 Title = "ADflow Slice Data"
Variables =  "CoordinateX"  "CoordinateY"  "CoordinateZ"  "XoC"  "YoC"  "ZoC" "VelocityX" "VelocityY" "VelocityZ" "CoefPressure" "Mach" 
Zone T= "Slice_0001 None Relative Regular z = 0.10000000"
 Nodes =          116  Elements=          112  ZONETYPE=FELINESEG
 DATAPACKING=POINT
  9.900000E-01  1.227513E-02  1.000000E-01  9.999997E-01  3.105662E-04  5.609077E-17  1.011213E-02 -9.030019E-03 -1.797273E-04 -2.333502E-02  0.000000E+00
  9.845260E-01  1.402297E-02  1.000000E-01  9.944685E-01  2.076653E-03  7.011346E-17  1.282627E-02 -4.101415E-03 -1.534249E-04  2.044686E-02  0.000000E+00
  9.783536E-01  1.595827E-02  1.000000E-01  9.882316E-01  4.032161E-03  1.402269E-17  1.028314E-02 -3.107138E-03 -1.420495E-04 -1.214700E-02  0.000000E+00
  9.713889E-01  1.802491E-02  1.000000E-01  9.811943E-01  6.120386E-03  7.011346E-17  8.743327E-03 -2.569666E-03 -1.384709E-04 -2.938065E-02  0.000000E+00
  9.635599E-01  2.029087E-02  1.000000E-01  9.732835E-01  8.410004E-03  0.000000E+00  8.855520E-03 -2.510828E-03 -1.401752E-04 -5.543749E-02  0.000000E+00
  9.547713E-01  2.274056E-02  1.000000E-01  9.644032E-01  1.088527E-02  5.609077E-17  1.013655E-02 -2.770124E-03 -1.450638E-04 -8.336125E-02  0.000000E+00
  9.449291E-01  2.538484E-02  1.000000E-01  9.544582E-01  1.355716E-02  1.402269E-17  1.197142E-02 -3.153041E-03 -1.510747E-04 -1.139894E-01  0.000000E+00
  9.339353E-01  2.823082E-02  1.000000E-01  9.433496E-01  1.643286E-02  9.815884E-17  1.402609E-02 -3.548212E-03 -1.572573E-04 -1.468097E-01  0.000000E+00
  9.216870E-01  3.126652E-02  1.000000E-01  9.309734E-01  1.950025E-02  5.609077E-17  1.615082E-02 -3.904418E-03 -1.630131E-04 -1.809207E-01  0.000000E+00
  9.080826E-01  3.448082E-02  1.000000E-01  9.172269E-01  2.274811E-02  1.402269E-17  1.824214E-02 -4.197994E-03 -1.674884E-04 -2.160914E-01  0.000000E+00
  8.930237E-01  3.786218E-02  1.000000E-01  9.020108E-01  2.616479E-02  5.609077E-17  2.021934E-02 -4.405458E-03 -1.699407E-04 -2.503886E-01  0.000000E+00
  8.764155E-01  4.137804E-02  1.000000E-01  8.852292E-01  2.971735E-02  0.000000E+00  2.201784E-02 -4.524392E-03 -1.699826E-04 -2.830917E-01  0.000000E+00
  8.581774E-01  4.501761E-02  1.000000E-01  8.668007E-01  3.339493E-02  4.907942E-16  2.360614E-02 -4.566675E-03 -1.675192E-04 -3.140804E-01  0.000000E+00
  8.382414E-01  4.875612E-02  1.000000E-01  8.466565E-01  3.717247E-02  4.487261E-16  2.498297E-02 -4.542855E-03 -1.626203E-04 -3.426897E-01  0.000000E+00
  8.165597E-01  5.257591E-02  1.000000E-01  8.247485E-01  4.103214E-02  5.609077E-17  2.616021E-02 -4.473011E-03 -1.554018E-04 -3.696501E-01  0.000000E+00
  7.931090E-01  5.646152E-02  1.000000E-01  8.010529E-01  4.495832E-02  1.402269E-17  2.717885E-02 -4.375295E-03 -1.460943E-04 -3.959364E-01  0.000000E+00
  7.678944E-01  6.039638E-02  1.000000E-01  7.755750E-01  4.893427E-02  2.804538E-17  2.810056E-02 -4.263199E-03 -1.350692E-04 -4.227021E-01  0.000000E+00
  7.409532E-01  6.435849E-02  1.000000E-01  7.483524E-01  5.293775E-02  4.907942E-16  2.899656E-02 -4.143912E-03 -1.229023E-04 -4.508243E-01  0.000000E+00
  7.123572E-01  6.831598E-02  1.000000E-01  7.194579E-01  5.693656E-02  5.609077E-17  2.993603E-02 -4.018590E-03 -1.104547E-04 -4.808606E-01  0.000000E+00
  6.822143E-01  7.222522E-02  1.000000E-01  6.890003E-01  6.088662E-02  5.609077E-17  3.097847E-02 -3.883624E-03 -9.886455E-05 -5.138426E-01  0.000000E+00
  6.506675E-01  7.602993E-02  1.000000E-01  6.571240E-01  6.473106E-02  2.804538E-17  3.216709E-02 -3.736332E-03 -8.930345E-05 -5.521554E-01  0.000000E+00
  6.178953E-01  7.967670E-02  1.000000E-01  6.240097E-01  6.841591E-02 -2.804538E-17  3.354237E-02 -3.553312E-03 -8.259151E-05 -5.958787E-01  0.000000E+00
  5.841133E-01  8.306564E-02  1.000000E-01  5.898749E-01  7.184023E-02  2.804538E-17  3.511428E-02 -3.284716E-03 -7.894871E-05 -6.403564E-01  0.000000E+00
  5.495706E-01  8.605837E-02  1.000000E-01  5.549716E-01  7.486421E-02  9.815884E-17  3.678723E-02 -2.917539E-03 -7.794771E-05 -6.822118E-01  0.000000E+00
  5.145480E-01  8.857608E-02  1.000000E-01  5.195833E-01  7.740821E-02  2.804538E-17  3.842019E-02 -2.476718E-03 -7.873160E-05 -7.210302E-01  0.000000E+00
  4.793451E-01  9.058137E-02  1.000000E-01  4.840128E-01  7.943443E-02  2.804538E-17  3.994147E-02 -1.984295E-03 -8.033579E-05 -7.572710E-01  0.000000E+00
  4.442686E-01  9.206535E-02  1.000000E-01  4.485701E-01  8.093390E-02 -4.206807E-17  4.138332E-02 -1.456633E-03 -8.189361E-05 -7.933866E-01  0.000000E+00
  4.096206E-01  9.303465E-02  1.000000E-01  4.135603E-01  8.191333E-02  7.011346E-17  4.287790E-02 -8.958319E-04 -8.275594E-05 -8.342391E-01  0.000000E+00
  3.756882E-01  9.349793E-02  1.000000E-01  3.792736E-01  8.238144E-02  2.804538E-17  4.461756E-02 -2.790168E-04 -8.253631E-05 -8.853258E-01  0.000000E+00
  3.427351E-01  9.345602E-02  1.000000E-01  3.459765E-01  8.233910E-02  2.804538E-17  4.682174E-02  4.879808E-04 -8.120771E-05 -9.456012E-01  0.000000E+00
  3.109952E-01  9.283630E-02  1.000000E-01  3.139051E-01  8.171291E-02  0.000000E+00  4.958405E-02  1.533071E-03 -7.896575E-05 -1.006689E+00  0.000000E+00
  2.806675E-01  9.155904E-02  1.000000E-01  2.832608E-01  8.042231E-02 -2.804538E-17  5.271292E-02  2.901874E-03 -7.592290E-05 -1.060609E+00  0.000000E+00
  2.519134E-01  8.961066E-02  1.000000E-01  2.542065E-01  7.845359E-02  4.907942E-16  5.584797E-02  4.568252E-03 -7.215441E-05 -1.101202E+00  0.000000E+00
  2.248544E-01  8.702082E-02  1.000000E-01  2.268649E-01  7.583671E-02 -4.206807E-17  5.862802E-02  6.450614E-03 -6.778193E-05 -1.124976E+00  0.000000E+00
  1.995702E-01  8.387551E-02  1.000000E-01  2.013167E-01  7.265855E-02  9.815884E-17  6.083276E-02  8.467046E-03 -6.301762E-05 -1.130061E+00  0.000000E+00
  1.761037E-01  8.025572E-02  1.000000E-01  1.776052E-01  6.900097E-02  4.487261E-16  6.234024E-02  1.048288E-02 -5.801546E-05 -1.119587E+00  0.000000E+00
  1.544558E-01  7.630313E-02  1.000000E-01  1.557313E-01  6.500711E-02  4.206807E-16  6.319611E-02  1.242158E-02 -5.293658E-05 -1.097017E+00  0.000000E+00
  1.346015E-01  7.211088E-02  1.000000E-01  1.356696E-01  6.077109E-02  5.609077E-17  6.355989E-02  1.429069E-02 -4.797234E-05 -1.063959E+00  0.000000E+00
  1.164884E-01  6.777633E-02  1.000000E-01  1.173674E-01  5.639128E-02  1.402269E-17  6.351430E-02  1.602850E-02 -4.314364E-05 -1.026671E+00  0.000000E+00
  1.000416E-01  6.339689E-02  1.000000E-01  1.007488E-01  5.196611E-02  2.804538E-17  6.319330E-02  1.766304E-02 -3.846951E-05 -9.886117E-01  0.000000E+00
  8.517641E-02  5.903212E-02  1.000000E-01  8.572846E-02  4.755577E-02  2.804538E-17  6.271602E-02  1.927459E-02 -3.397736E-05 -9.495143E-01  0.000000E+00
  7.179882E-02  5.472571E-02  1.000000E-01  7.221119E-02  4.320439E-02  1.402269E-17  6.211110E-02  2.092251E-02 -2.967654E-05 -9.072391E-01  0.000000E+00
  5.981409E-02  5.049804E-02  1.000000E-01  6.010133E-02  3.893258E-02  5.609077E-17  6.128928E-02  2.253455E-02 -2.551627E-05 -8.636175E-01  0.000000E+00
  4.911567E-02  4.639404E-02  1.000000E-01  4.929120E-02  3.478573E-02  2.804538E-17  6.020031E-02  2.410906E-02 -2.147276E-05 -8.189765E-01  0.000000E+00
  3.960719E-02  4.241581E-02  1.000000E-01  3.968344E-02  3.076596E-02  2.804538E-17  5.880439E-02  2.573014E-02 -1.756150E-05 -7.733515E-01  0.000000E+00
  3.119584E-02  3.856270E-02  1.000000E-01  3.118425E-02  2.687262E-02  8.413615E-17  5.695755E-02  2.734956E-02 -1.370436E-05 -7.353620E-01  0.000000E+00
  2.379252E-02  3.482978E-02  1.000000E-01  2.370364E-02  2.310072E-02  0.000000E+00  5.464829E-02  2.895651E-02 -9.851739E-06 -7.045199E-01  0.000000E+00
  1.731190E-02  3.121892E-02  1.000000E-01  1.715535E-02  1.945216E-02 -7.011346E-17  5.192156E-02  3.099529E-02 -6.268768E-06 -6.376822E-01  0.000000E+00
  1.171490E-02  2.764889E-02  1.000000E-01  1.149991E-02  1.584485E-02  9.815884E-17  4.804740E-02  3.365617E-02 -3.489508E-06 -5.117845E-01  0.000000E+00
  7.008801E-03  2.401589E-02  1.000000E-01  6.744673E-03  1.217392E-02  2.804538E-17  4.211198E-02  3.505139E-02 -1.465977E-06 -4.737072E-01  0.000000E+00
  9.900000E-01  1.117244E-02  1.000000E-01  9.999997E-01 -8.036334E-04  1.402269E-17  1.702288E-02 -4.390185E-03 -1.525982E-06  2.241423E-02  0.000000E+00
  9.900000E-01  1.127073E-02  1.000000E-01  9.999997E-01 -7.043170E-04  2.804538E-17  6.513849E-03 -3.075838E-02 -2.444237E-04 -1.252853E-01  0.000000E+00
  9.900000E-01  1.141952E-02  1.000000E-01  9.999997E-01 -5.539730E-04  4.206807E-17  6.745657E-04 -5.864763E-02 -4.992115E-04 -7.775818E-02  0.000000E+00
  9.900000E-01  1.161566E-02  1.000000E-01  9.999997E-01 -3.557888E-04  1.402269E-17 -1.170219E-03 -3.348911E-02 -5.709947E-04 -3.444631E-02  0.000000E+00
  9.900000E-01  1.183191E-02  1.000000E-01  9.999997E-01 -1.372784E-04  2.804538E-17 -8.773314E-04  1.155937E-02 -4.578801E-04 -4.662696E-02  0.000000E+00
  9.900000E-01  1.202805E-02  1.000000E-01  9.999997E-01  6.090586E-05  2.804538E-17  7.373143E-04  2.364622E-02 -3.023554E-04 -9.054089E-02  0.000000E+00
  9.900000E-01  1.217684E-02  1.000000E-01  9.999997E-01  2.112498E-04  0.000000E+00  3.999598E-03  1.683146E-03 -2.164347E-04 -1.073305E-01  0.000000E+00
  9.900000E-01  1.227513E-02  1.000000E-01  9.999997E-01  3.105662E-04  7.011346E-17  1.011213E-02 -9.030019E-03 -1.797273E-04 -2.333502E-02  0.000000E+00
  7.008801E-03  6.317943E-03  1.000000E-01  6.744673E-03 -5.708821E-03  9.815884E-17  2.129271E-02 -7.737091E-03  2.688736E-05  5.025991E-01  0.000000E+00
  1.220231E-02  4.674103E-03  1.000000E-01  1.199241E-02 -7.369825E-03  2.804538E-17  2.652261E-02 -6.608324E-03  3.064577E-05  4.931604E-01  0.000000E+00
  1.825510E-02  3.475165E-03  1.000000E-01  1.810840E-02 -8.581282E-03  9.815884E-17  3.062772E-02 -4.935839E-03  3.319713E-05  3.468859E-01  0.000000E+00
  2.517288E-02  2.608085E-03  1.000000E-01  2.509841E-02 -9.457416E-03  7.011346E-17  3.314151E-02 -3.295710E-03  3.612596E-05  2.703927E-01  0.000000E+00
  3.300629E-02  2.021346E-03  1.000000E-01  3.301361E-02 -1.005028E-02  2.804538E-17  3.436289E-02 -1.851178E-03  3.880510E-05  2.433017E-01  0.000000E+00
  4.183175E-02  1.722395E-03  1.000000E-01  4.193122E-02 -1.035235E-02  1.402269E-17  3.457403E-02 -6.970756E-04  4.083639E-05  2.268274E-01  0.000000E+00
  5.172748E-02  1.656758E-03  1.000000E-01  5.193028E-02 -1.041868E-02  0.000000E+00  3.411975E-02  1.307041E-04  4.239732E-05  2.181999E-01  0.000000E+00
  6.278438E-02  1.813505E-03  1.000000E-01  6.310262E-02 -1.026029E-02  9.815884E-17  3.322790E-02  7.735561E-04  4.364925E-05  2.128131E-01  0.000000E+00
  7.509844E-02  2.212776E-03  1.000000E-01  7.554526E-02 -9.856852E-03  7.011346E-17  3.210820E-02  1.245086E-03  4.473648E-05  2.125154E-01  0.000000E+00
  8.876407E-02  2.830569E-03  1.000000E-01  8.935358E-02 -9.232608E-03  9.815884E-17  3.096015E-02  1.524176E-03  4.576087E-05  2.188769E-01  0.000000E+00
  1.038747E-01  3.633340E-03  1.000000E-01  1.046220E-01 -8.421455E-03  2.804538E-17  2.985003E-02  1.686678E-03  4.673325E-05  2.259888E-01  0.000000E+00
  1.205193E-01  4.628286E-03  1.000000E-01  1.214404E-01 -7.416120E-03  7.011346E-17  2.882716E-02  1.760199E-03  4.771016E-05  2.332116E-01  0.000000E+00
  1.387771E-01  5.764496E-03  1.000000E-01  1.398888E-01 -6.268047E-03  4.627488E-16  2.796311E-02  1.739098E-03  4.875094E-05  2.419264E-01  0.000000E+00
  1.587145E-01  6.999400E-03  1.000000E-01  1.600344E-01 -5.020249E-03  5.048169E-16  2.728964E-02  1.654311E-03  4.985750E-05  2.494099E-01  0.000000E+00
  1.803796E-01  8.279280E-03  1.000000E-01  1.819257E-01 -3.727005E-03  5.609077E-17  2.683831E-02  1.522265E-03  5.105402E-05  2.545686E-01  0.000000E+00
  2.037979E-01  9.547227E-03  1.000000E-01  2.055886E-01 -2.445819E-03  2.804538E-17  2.663518E-02  1.358975E-03  5.237511E-05  2.566708E-01  0.000000E+00
  2.289667E-01  1.074770E-02  1.000000E-01  2.310201E-01 -1.232809E-03 -4.206807E-17  2.667920E-02  1.185467E-03  5.384365E-05  2.548025E-01  0.000000E+00
  2.558504E-01  1.184978E-02  1.000000E-01  2.581845E-01 -1.192194E-04  4.206807E-16  2.691958E-02  1.028095E-03  5.544429E-05  2.483893E-01  0.000000E+00
  2.843771E-01  1.285456E-02  1.000000E-01  2.870091E-01  8.960425E-04  0.000000E+00  2.724073E-02  9.205218E-04  5.708773E-05  2.376599E-01  0.000000E+00
  3.144350E-01  1.382205E-02  1.000000E-01  3.173809E-01  1.873641E-03  5.609077E-17  2.747131E-02  9.010754E-04  5.859365E-05  2.242456E-01  0.000000E+00
  3.458716E-01  1.486596E-02  1.000000E-01  3.491457E-01  2.928448E-03  2.804538E-17  2.741652E-02  1.006267E-03  5.969912E-05  2.105145E-01  0.000000E+00
  3.784939E-01  1.617188E-02  1.000000E-01  3.821086E-01  4.248001E-03  9.815884E-17  2.694726E-02  1.216918E-03  6.016450E-05  2.009926E-01  0.000000E+00
  4.120730E-01  1.786024E-02  1.000000E-01  4.160383E-01  5.953991E-03  0.000000E+00  2.607300E-02  1.439705E-03  5.989333E-05  2.015631E-01  0.000000E+00
  4.463507E-01  1.992410E-02  1.000000E-01  4.506740E-01  8.039405E-03  0.000000E+00  2.488842E-02  1.599918E-03  5.893433E-05  2.126540E-01  0.000000E+00
  4.810495E-01  2.229737E-02  1.000000E-01  4.857350E-01  1.043745E-02  9.815884E-17  2.352091E-02  1.669045E-03  5.751917E-05  2.308629E-01  0.000000E+00
  5.158819E-01  2.485858E-02  1.000000E-01  5.209312E-01  1.302540E-02  0.000000E+00  2.210975E-02  1.639409E-03  5.606731E-05  2.534577E-01  0.000000E+00
  5.505606E-01  2.744879E-02  1.000000E-01  5.559719E-01  1.564266E-02  4.206807E-17  2.077113E-02  1.522195E-03  5.508612E-05  2.780056E-01  0.000000E+00
  5.848044E-01  2.990435E-02  1.000000E-01  5.905732E-01  1.812386E-02  5.609077E-17  1.957631E-02  1.342433E-03  5.506054E-05  3.021027E-01  0.000000E+00
  6.183442E-01  3.209175E-02  1.000000E-01  6.244633E-01  2.033410E-02  1.402269E-17  1.855050E-02  1.129612E-03  5.635412E-05  3.238960E-01  0.000000E+00
  6.509298E-01  3.392815E-02  1.000000E-01  6.573891E-01  2.218967E-02  1.402269E-17  1.769310E-02  9.023004E-04  5.913882E-05  3.428915E-01  0.000000E+00
  6.823359E-01  3.535650E-02  1.000000E-01  6.891231E-01  2.363293E-02  1.402269E-17  1.700163E-02  6.611699E-04  6.332215E-05  3.599015E-01  0.000000E+00
  7.123710E-01  3.632168E-02  1.000000E-01  7.194719E-01  2.460820E-02  7.011346E-17  1.646854E-02  4.088693E-04  6.851166E-05  3.746962E-01  0.000000E+00
  7.408829E-01  3.681604E-02  1.000000E-01  7.482814E-01  2.510772E-02  4.206807E-16  1.608282E-02  1.510765E-04  7.419484E-05  3.865788E-01  0.000000E+00
  7.677594E-01  3.685056E-02  1.000000E-01  7.754385E-01  2.514260E-02  2.804538E-17  1.584672E-02 -1.161673E-04  7.996898E-05  3.958924E-01  0.000000E+00
  7.929268E-01  3.644567E-02  1.000000E-01  8.008688E-01  2.473348E-02  2.804538E-17  1.578055E-02 -4.031096E-04  8.560384E-05  4.029079E-01  0.000000E+00
  8.163467E-01  3.562351E-02  1.000000E-01  8.245332E-01  2.390274E-02  1.402269E-17  1.591615E-02 -7.221379E-04  9.101580E-05  4.072221E-01  0.000000E+00
  8.380119E-01  3.441761E-02  1.000000E-01  8.464246E-01  2.268425E-02  4.487261E-16  1.628490E-02 -1.086408E-03  9.621468E-05  4.081641E-01  0.000000E+00
  8.579422E-01  3.286994E-02  1.000000E-01  8.665630E-01  2.112042E-02  4.487261E-16  1.690455E-02 -1.505356E-03  1.012332E-04  4.052686E-01  0.000000E+00
  8.761813E-01  3.104183E-02  1.000000E-01  8.849926E-01  1.927322E-02  0.000000E+00  1.776247E-02 -1.970760E-03  1.060568E-04  3.977297E-01  0.000000E+00
  8.927940E-01  2.902436E-02  1.000000E-01  9.017788E-01  1.723468E-02  7.011346E-17  1.881489E-02 -2.465540E-03  1.105941E-04  3.852435E-01  0.000000E+00
  9.078617E-01  2.690904E-02  1.000000E-01  9.170037E-01  1.509728E-02  2.804538E-17  2.001108E-02 -2.991611E-03  1.146843E-04  3.697446E-01  0.000000E+00
  9.214750E-01  2.475254E-02  1.000000E-01  9.307592E-01  1.291826E-02  2.804538E-17  2.128412E-02 -3.525678E-03  1.180849E-04  3.513831E-01  0.000000E+00
  9.337349E-01  2.263274E-02  1.000000E-01  9.431471E-01  1.077632E-02  5.609077E-17  2.255572E-02 -4.022700E-03  1.206471E-04  3.293301E-01  0.000000E+00
  9.447451E-01  2.060793E-02  1.000000E-01  9.542723E-01  8.730372E-03  2.804538E-17  2.381422E-02 -4.487872E-03  1.226939E-04  3.057505E-01  0.000000E+00
  9.546071E-01  1.870250E-02  1.000000E-01  9.642372E-01  6.805049E-03  2.804538E-17  2.516983E-02 -4.958699E-03  1.253429E-04  2.816896E-01  0.000000E+00
  9.634201E-01  1.693063E-02  1.000000E-01  9.731422E-01  5.014677E-03  2.804538E-17  2.677895E-02 -5.474025E-03  1.302088E-04  2.566689E-01  0.000000E+00
  9.712788E-01  1.529488E-02  1.000000E-01  9.810830E-01  3.361848E-03  2.804538E-17  2.839107E-02 -5.979552E-03  1.367253E-04  2.273251E-01  0.000000E+00
  9.782737E-01  1.379835E-02  1.000000E-01  9.881509E-01  1.849687E-03  1.402269E-17  2.862548E-02 -6.262620E-03  1.361607E-04  1.928765E-01  0.000000E+00
  9.844874E-01  1.242242E-02  1.000000E-01  9.944296E-01  4.593964E-04  2.804538E-17  2.577292E-02 -5.669545E-03  1.078339E-04  1.760377E-01  0.000000E+00
  9.900000E-01  1.117244E-02  1.000000E-01  9.999997E-01 -8.036334E-04  2.804538E-17  1.702288E-02 -4.390185E-03 -1.525982E-06  2.241423E-02  0.000000E+00
  7.008801E-03  2.401589E-02  1.000000E-01  6.744673E-03  1.217392E-02  1.402269E-17  4.211198E-02  3.505139E-02 -1.465977E-06 -4.737072E-01  0.000000E+00
  5.408827E-03  2.256075E-02  1.000000E-01  5.127994E-03  1.070358E-02  0.000000E+00  3.627819E-02  3.518656E-02  9.271639E-07 -5.392935E-01  0.000000E+00
  3.121616E-03  2.018757E-02  1.000000E-01  2.816901E-03  8.305627E-03  7.011346E-17  2.795330E-02  3.487741E-02  4.871984E-06 -3.756443E-01  0.000000E+00
  7.410024E-04  1.653353E-02  1.000000E-01  4.114304E-04  4.613433E-03  2.804538E-17  1.223836E-02  3.019411E-02  1.032781E-05  3.542404E-01  0.000000E+00
  3.338236E-04  1.196777E-02  1.000000E-01  0.000000E+00  0.000000E+00  0.000000E+00  2.228532E-04  1.461117E-02  1.546325E-05  1.058060E+00  0.000000E+00
  2.687700E-03  8.771243E-03  1.000000E-01  2.378454E-03 -3.229905E-03 -4.206807E-17  4.407635E-03 -2.258246E-03  1.888479E-05  9.611888E-01  0.000000E+00
  5.170152E-03  7.075674E-03  1.000000E-01  4.886827E-03 -4.943179E-03  5.609077E-17  1.474114E-02 -7.911244E-03  2.222242E-05  5.616483E-01  0.000000E+00
  7.008801E-03  6.317943E-03  1.000000E-01  6.744673E-03 -5.708821E-03  1.121815E-16  2.129271E-02 -7.737091E-03  2.688736E-05  5.025991E-01  0.000000E+00
    1    2
    2    3
    3    4
    4    5
    5    6
    6    7
    7    8
    8    9
    9   10
   10   11
   11   12
   12   13
   13   14
   14   15
   15   16
   16   17
   17   18
   18   19
   19   20
   20   21
   21   22
   22   23
   23   24
   24   25
   25   26
   26   27
   27   28
   28   29
   29   30
   30   31
   31   32
   32   33
   33   34
   34   35
   35   36
   36   37
   37   38
   38   39
   39   40
   40   41
   41   42
   42   43
   43   44
   44   45
   45   46
   46   47
   47   48
   48   49
   49   50
   51   52
   52   53
   53   54
   54   55
   55   56
   56   57
   57   58
   59   60
   60   61
   61   62
   62   63
   63   64
   64   65
   65   66
   66   67
   67   68
   68   69
   69   70
   70   71
   71   72
   72   73
   73   74
   74   75
   75   76
   76   77
   77   78
   78   79
   79   80
   80   81
   81   82
   82   83
   83   84
   84   85
   85   86
   86   87
   87   88
   88   89
   89   90
   90   91
   91   92
   92   93
   93   94
   94   95
   95   96
   96   97
   97   98
   98   99
   99  100
  100  101
  101  102
  102  103
  103  104
  104  105
  105  106
  106  107
  107  108
  109  110
  110  111
  111  112
  112  113
  113  114
  114  115
  115  116
Zone T= "Slice_0002 None Relative Regular z = 0.36666667"
 Nodes =          116  Elements=          112  ZONETYPE=FELINESEG
 DATAPACKING=POINT
  9.900000E-01  1.187824E-02  3.666667E-01  9.999993E-01 -9.036289E-05 -2.804537E-16  1.015464E-02 -8.872784E-03 -5.675919E-04 -2.294621E-02  0.000000E+00
  9.845260E-01  1.360636E-02  3.666667E-01  9.944681E-01  1.655798E-03 -1.121815E-16  1.296149E-02 -4.099523E-03 -4.938950E-04  2.196634E-02  0.000000E+00
  9.783536E-01  1.552047E-02  3.666667E-01  9.882312E-01  3.589898E-03 -2.243630E-16  1.050613E-02 -3.140400E-03 -4.588802E-04 -1.036334E-02  0.000000E+00
  9.713889E-01  1.756479E-02  3.666667E-01  9.811939E-01  5.655563E-03 -1.682722E-16  8.993336E-03 -2.615130E-03 -4.479428E-04 -2.735122E-02  0.000000E+00
  9.635599E-01  1.980727E-02  3.666667E-01  9.732831E-01  7.921457E-03 -5.609074E-17  9.094305E-03 -2.552657E-03 -4.530037E-04 -5.298363E-02  0.000000E+00
  9.547713E-01  2.223269E-02  3.666667E-01  9.644028E-01  1.037220E-02 -2.243630E-16  1.035103E-02 -2.801804E-03 -4.678178E-04 -8.034172E-02  0.000000E+00
  9.449291E-01  2.485229E-02  3.666667E-01  9.544578E-01  1.301915E-02 -1.682722E-16  1.216139E-02 -3.174566E-03 -4.863579E-04 -1.103045E-01  0.000000E+00
  9.339353E-01  2.767373E-02  3.666667E-01  9.433492E-01  1.587005E-02 -1.682722E-16  1.419377E-02 -3.561336E-03 -5.058386E-04 -1.423714E-01  0.000000E+00
  9.216870E-01  3.068578E-02  3.666667E-01  9.309731E-01  1.891354E-02 -1.121815E-16  1.629115E-02 -3.909684E-03 -5.242546E-04 -1.756653E-01  0.000000E+00
  9.080826E-01  3.387824E-02  3.666667E-01  9.172266E-01  2.213934E-02  5.609074E-17  1.834495E-02 -4.195427E-03 -5.388113E-04 -2.099911E-01  0.000000E+00
  8.930237E-01  3.724075E-02  3.666667E-01  9.020104E-01  2.553696E-02 -5.609074E-17  2.027873E-02 -4.396597E-03 -5.473235E-04 -2.434644E-01  0.000000E+00
  8.764155E-01  4.074214E-02  3.666667E-01  8.852289E-01  2.907491E-02 -1.121815E-16  2.203389E-02 -4.512347E-03 -5.487050E-04 -2.754082E-01  0.000000E+00
  8.581774E-01  4.437326E-02  3.666667E-01  8.668004E-01  3.274394E-02  3.045727E-14  2.358200E-02 -4.555134E-03 -5.426980E-04 -3.057430E-01  0.000000E+00
  8.382414E-01  4.811120E-02  3.666667E-01  8.466562E-01  3.652090E-02  3.051336E-14  2.492318E-02 -4.535434E-03 -5.295259E-04 -3.338536E-01  0.000000E+00
  8.165597E-01  5.194034E-02  3.666667E-01  8.247481E-01  4.039002E-02 -5.609074E-17  2.607091E-02 -4.473126E-03 -5.094987E-04 -3.605121E-01  0.000000E+00
  7.931090E-01  5.584733E-02  3.666667E-01  8.010526E-01  4.433781E-02 -2.243630E-16  2.706865E-02 -4.386147E-03 -4.832626E-04 -3.867279E-01  0.000000E+00
  7.678944E-01  5.981754E-02  3.666667E-01  7.755747E-01  4.834947E-02 -1.121815E-16  2.798152E-02 -4.287712E-03 -4.518577E-04 -4.137192E-01  0.000000E+00
  7.409532E-01  6.383025E-02  3.666667E-01  7.483521E-01  5.240408E-02  3.051336E-14  2.888509E-02 -4.184443E-03 -4.168540E-04 -4.424864E-01  0.000000E+00
  7.123572E-01  6.785348E-02  3.666667E-01  7.194576E-01  5.646931E-02 -1.121815E-16  2.985290E-02 -4.076148E-03 -3.805208E-04 -4.737041E-01  0.000000E+00
  6.822143E-01  7.184095E-02  3.666667E-01  6.890000E-01  6.049842E-02 -1.682722E-16  3.094729E-02 -3.956446E-03 -3.457755E-04 -5.083107E-01  0.000000E+00
  6.506675E-01  7.572979E-02  3.666667E-01  6.571238E-01  6.442786E-02 -1.682722E-16  3.221048E-02 -3.818541E-03 -3.155683E-04 -5.482476E-01  0.000000E+00
  6.178953E-01  7.945563E-02  3.666667E-01  6.240094E-01  6.819260E-02  0.000000E+00  3.367463E-02 -3.637417E-03 -2.920796E-04 -5.932224E-01  0.000000E+00
  5.841133E-01  8.291178E-02  3.666667E-01  5.898747E-01  7.168484E-02 -1.682722E-16  3.533649E-02 -3.364865E-03 -2.761826E-04 -6.385524E-01  0.000000E+00
  5.495706E-01  8.595807E-02  3.666667E-01  5.549714E-01  7.476293E-02 -3.365445E-16  3.708913E-02 -2.988892E-03 -2.671083E-04 -6.808718E-01  0.000000E+00
  5.145480E-01  8.851520E-02  3.666667E-01  5.195831E-01  7.734677E-02 -1.121815E-16  3.878361E-02 -2.535274E-03 -2.629420E-04 -7.197595E-01  0.000000E+00
  4.793451E-01  9.054682E-02  3.666667E-01  4.840126E-01  7.939959E-02 -5.609074E-17  4.034505E-02 -2.028098E-03 -2.615159E-04 -7.557328E-01  0.000000E+00
  4.442686E-01  9.204641E-02  3.666667E-01  4.485699E-01  8.091485E-02  1.121815E-16  4.180817E-02 -1.486094E-03 -2.608757E-04 -7.913412E-01  0.000000E+00
  4.096206E-01  9.302378E-02  3.666667E-01  4.135601E-01  8.190242E-02 -1.121815E-16  4.331130E-02 -9.130103E-04 -2.594863E-04 -8.315678E-01  0.000000E+00
  3.756882E-01  9.349076E-02  3.666667E-01  3.792734E-01  8.237428E-02 -2.243630E-16  4.505408E-02 -2.864307E-04 -2.562835E-04 -8.820265E-01  0.000000E+00
  3.427351E-01  9.345085E-02  3.666667E-01  3.459763E-01  8.233395E-02 -1.682722E-16  4.726281E-02  4.892470E-04 -2.509984E-04 -9.417244E-01  0.000000E+00
  3.109952E-01  9.283256E-02  3.666667E-01  3.139050E-01  8.170920E-02  0.000000E+00  5.003379E-02  1.544248E-03 -2.438648E-04 -1.002283E+00  0.000000E+00
  2.806675E-01  9.155632E-02  3.666667E-01  2.832607E-01  8.041964E-02 -1.682722E-16  5.317199E-02  2.924890E-03 -2.348363E-04 -1.055730E+00  0.000000E+00
  2.519134E-01  8.960866E-02  3.666667E-01  2.542064E-01  7.845165E-02  3.056945E-14  5.631468E-02  4.604614E-03 -2.238337E-04 -1.095921E+00  0.000000E+00
  2.248544E-01  8.701934E-02  3.666667E-01  2.268648E-01  7.583528E-02 -2.804537E-16  5.909971E-02  6.501076E-03 -2.110264E-04 -1.119374E+00  0.000000E+00
  1.995702E-01  8.387439E-02  3.666667E-01  2.013166E-01  7.265749E-02 -1.121815E-16  6.130514E-02  8.531684E-03 -1.969501E-04 -1.124223E+00  0.000000E+00
  1.761037E-01  8.025485E-02  3.666667E-01  1.776051E-01  6.900017E-02  3.040118E-14  6.280950E-02  1.056097E-02 -1.820401E-04 -1.113584E+00  0.000000E+00
  1.544558E-01  7.630245E-02  3.666667E-01  1.557312E-01  6.500650E-02  3.045727E-14  6.365955E-02  1.251207E-02 -1.667855E-04 -1.090897E+00  0.000000E+00
  1.346015E-01  7.211034E-02  3.666667E-01  1.356696E-01  6.077062E-02 -1.121815E-16  6.401548E-02  1.439270E-02 -1.517815E-04 -1.057744E+00  0.000000E+00
  1.164884E-01  6.777589E-02  3.666667E-01  1.173674E-01  5.639092E-02 -2.804537E-16  6.396045E-02  1.614081E-02 -1.371178E-04 -1.020359E+00  0.000000E+00
  1.000416E-01  6.339653E-02  3.666667E-01  1.007488E-01  5.196583E-02 -5.609074E-17  6.362901E-02  1.778464E-02 -1.228672E-04 -9.821790E-01  0.000000E+00
  8.517641E-02  5.903181E-02  3.666667E-01  8.572842E-02  4.755554E-02 -3.365445E-16  6.314050E-02  1.940494E-02 -1.091165E-04 -9.429319E-01  0.000000E+00
  7.179882E-02  5.472545E-02  3.666667E-01  7.221117E-02  4.320421E-02  0.000000E+00  6.252357E-02  2.106141E-02 -9.589920E-05 -9.004804E-01  0.000000E+00
  5.981409E-02  5.049782E-02  3.666667E-01  6.010130E-02  3.893244E-02 -1.682722E-16  6.168929E-02  2.268166E-02 -8.307123E-05 -8.566489E-01  0.000000E+00
  4.911567E-02  4.639384E-02  3.666667E-01  4.929118E-02  3.478562E-02 -1.121815E-16  6.058777E-02  2.426432E-02 -7.056401E-05 -8.117389E-01  0.000000E+00
  3.960719E-02  4.241563E-02  3.666667E-01  3.968342E-02  3.076587E-02 -5.609074E-17  5.917876E-02  2.589413E-02 -5.841071E-05 -7.657435E-01  0.000000E+00
  3.119584E-02  3.856254E-02  3.666667E-01  3.118424E-02  2.687255E-02  0.000000E+00  5.731499E-02  2.752139E-02 -4.633995E-05 -7.272561E-01  0.000000E+00
  2.379252E-02  3.482964E-02  3.666667E-01  2.370363E-02  2.310067E-02 -1.682722E-16  5.497581E-02  2.912992E-02 -3.420077E-05 -6.958252E-01  0.000000E+00
  1.731190E-02  3.121879E-02  3.666667E-01  1.715534E-02  1.945212E-02 -2.243630E-16  5.219237E-02  3.115591E-02 -2.289182E-05 -6.283108E-01  0.000000E+00
  1.171490E-02  2.764876E-02  3.666667E-01  1.149991E-02  1.584482E-02 -1.121815E-16  4.823392E-02  3.378486E-02 -1.413146E-05 -5.015065E-01  0.000000E+00
  7.008801E-03  2.401578E-02  3.666667E-01  6.744670E-03  1.217390E-02  5.609074E-17  4.221825E-02  3.513910E-02 -7.742854E-06 -4.622645E-01  0.000000E+00
  9.900000E-01  1.078004E-02  3.666667E-01  9.999993E-01 -1.200025E-03 -1.121815E-16  1.706296E-02 -4.532887E-03 -7.572494E-06  2.135403E-02  0.000000E+00
  9.900000E-01  1.087793E-02  3.666667E-01  9.999993E-01 -1.101113E-03 -2.243630E-16  6.473725E-03 -3.105232E-02 -7.503839E-04 -1.258595E-01  0.000000E+00
  9.900000E-01  1.102612E-02  3.666667E-01  9.999993E-01 -9.513816E-04 -1.121815E-16  6.544514E-04 -5.875317E-02 -1.524224E-03 -7.791992E-02  0.000000E+00
  9.900000E-01  1.122146E-02  3.666667E-01  9.999993E-01 -7.540044E-04 -3.365445E-16 -1.151105E-03 -3.335460E-02 -1.801407E-03 -3.407003E-02  0.000000E+00
  9.900000E-01  1.143683E-02  3.666667E-01  9.999993E-01 -5.363838E-04  1.121815E-16 -8.657477E-04  1.195553E-02 -1.515222E-03 -4.602319E-02  0.000000E+00
  9.900000E-01  1.163216E-02  3.666667E-01  9.999993E-01 -3.390066E-04 -1.121815E-16  7.263972E-04  2.421998E-02 -1.029615E-03 -9.066783E-02  0.000000E+00
  9.900000E-01  1.178035E-02  3.666667E-01  9.999993E-01 -1.892748E-04 -2.243630E-16  3.992008E-03  2.119143E-03 -7.060779E-04 -1.078248E-01  0.000000E+00
  9.900000E-01  1.187824E-02  3.666667E-01  9.999993E-01 -9.036289E-05 -2.804537E-16  1.015464E-02 -8.872784E-03 -5.675919E-04 -2.294621E-02  0.000000E+00
  7.008801E-03  6.317832E-03  3.666667E-01  6.744670E-03 -5.708826E-03 -3.365445E-16  2.165653E-02 -7.869576E-03  8.681098E-05  4.955651E-01  0.000000E+00
  1.220231E-02  4.673985E-03  3.666667E-01  1.199240E-02 -7.369836E-03 -1.121815E-16  2.690188E-02 -6.704993E-03  9.890591E-05  4.865016E-01  0.000000E+00
  1.825510E-02  3.475039E-03  3.666667E-01  1.810840E-02 -8.581301E-03 -1.682722E-16  3.102907E-02 -5.000567E-03  1.070637E-04  3.407134E-01  0.000000E+00
  2.517288E-02  2.607948E-03  3.666667E-01  2.509840E-02 -9.457445E-03 -2.243630E-16  3.355271E-02 -3.336999E-03  1.164398E-04  2.646416E-01  0.000000E+00
  3.300629E-02  2.021196E-03  3.666667E-01  3.301360E-02 -1.005032E-02 -5.609074E-17  3.476563E-02 -1.873303E-03  1.249955E-04  2.380370E-01  0.000000E+00
  4.183175E-02  1.722229E-03  3.666667E-01  4.193121E-02 -1.035241E-02  1.121815E-16  3.495788E-02 -7.050332E-04  1.314453E-04  2.220804E-01  0.000000E+00
  5.172748E-02  1.656570E-03  3.666667E-01  5.193026E-02 -1.041876E-02 -2.243630E-16  3.448322E-02  1.319267E-04  1.363694E-04  2.138929E-01  0.000000E+00
  6.278438E-02  1.813291E-03  3.666667E-01  6.310260E-02 -1.026040E-02 -1.121815E-16  3.357137E-02  7.813961E-04  1.402795E-04  2.088634E-01  0.000000E+00