 Title= "ADflow Lift Distribution Data"
Variables = "eta" "CoordinateX" "CoordinateY" "CoordinateZ" "Lift" "Drag" "Moment" "Normalized Lift" "Normalized Drag" "Normalized Moment" "CL" "CD" "CM" "CLp" "CDp" "CMp" "CLv" "CDv" "CMv" "Elliptical" "thickness" "twist" "chord" "fx" "fy" "fz" 
Zone T= "LiftDist_01 allWalls: : z normal"
 I=          150
 DATAPACKING=BLOCK
  0.000000E+00
  6.711405E-03
  1.342281E-02
  2.013422E-02
  2.684563E-02
  3.355704E-02
  4.026845E-02
  4.697986E-02
  5.369127E-02
  6.040268E-02
  6.711409E-02
  7.382550E-02
  8.053691E-02
  8.724832E-02
  9.395973E-02
  1.006711E-01
  1.073825E-01
  1.140940E-01
  1.208054E-01
  1.275168E-01
  1.342282E-01
  1.409396E-01
  1.476510E-01
  1.543624E-01
  1.610738E-01
  1.677852E-01
  1.744966E-01
  1.812081E-01
  1.879195E-01
  1.946309E-01
  2.013423E-01
  2.080537E-01
  2.147651E-01
  2.214765E-01
  2.281879E-01
  2.348993E-01
  2.416107E-01
  2.483221E-01
  2.550336E-01
  2.617450E-01
  2.684564E-01
  2.751678E-01
  2.818792E-01
  2.885906E-01
  2.953020E-01
  3.020134E-01
  3.087248E-01
  3.154362E-01
  3.221476E-01
  3.288591E-01
  3.355705E-01
  3.422819E-01
  3.489933E-01
  3.557047E-01
  3.624161E-01
  3.691275E-01
  3.758389E-01
  3.825503E-01
  3.892617E-01
  3.959732E-01
  4.026846E-01
  4.093960E-01
  4.161074E-01
  4.228188E-01
  4.295302E-01
  4.362416E-01
  4.429530E-01
  4.496644E-01
  4.563758E-01
  4.630872E-01
  4.697987E-01
  4.765101E-01
  4.832215E-01
  4.899329E-01
  4.966443E-01
  5.033557E-01
  5.100671E-01
  5.167785E-01
  5.234899E-01
  5.302013E-01
  5.369128E-01
  5.436242E-01
  5.503356E-01
  5.570470E-01
  5.637584E-01
  5.704698E-01
  5.771812E-01
  5.838926E-01
  5.906040E-01
  5.973154E-01
  6.040268E-01
  6.107383E-01
  6.174497E-01
  6.241611E-01
  6.308725E-01
  6.375839E-01
  6.442953E-01
  6.510067E-01
  6.577181E-01
  6.644295E-01
  6.711409E-01
  6.778524E-01
  6.845638E-01
  6.912752E-01
  6.979866E-01
  7.046980E-01
  7.114094E-01
  7.181208E-01
  7.248322E-01
  7.315436E-01
  7.382550E-01
  7.449664E-01
  7.516779E-01
  7.583893E-01
  7.651007E-01
  7.718121E-01
  7.785235E-01
  7.852349E-01
  7.919463E-01
  7.986577E-01
  8.053691E-01
  8.120805E-01
  8.187919E-01
  8.255034E-01
  8.322148E-01
  8.389262E-01
  8.456376E-01
  8.523490E-01
  8.590604E-01
  8.657718E-01
  8.724832E-01
  8.791946E-01
  8.859060E-01
  8.926175E-01
  8.993289E-01
  9.060403E-01
  9.127517E-01
  9.194631E-01
  9.261745E-01
  9.328859E-01
  9.395973E-01
  9.463087E-01
  9.530201E-01
  9.597315E-01
  9.664430E-01
  9.731544E-01
  9.798658E-01
  9.865772E-01
  9.932886E-01
  1.000000E+00
  0.000000E+00
  0.000000E+00
  0.000000E+00
  0.000000E+00
  0.000000E+00
  0.000000E+00
  0.000000E+00
  0.000000E+00
  0.000000E+00
  0.000000E+00
  0.000000E+00
  0.000000E+00
  0.000000E+00
  0.000000E+00
  0.000000E+00
  0.000000E+00
  0.000000E+00
  0.000000E+00
  0.000000E+00
  0.000000E+00
  0.000000E+00
  0.000000E+00
  0.000000E+00
  0.000000E+00
  0.000000E+00
  0.000000E+00
  0.000000E+00
  0.000000E+00
  0.000000E+00
  0.000000E+00
  0.000000E+00
  0.000000E+00
  0.000000E+00
  0.000000E+00
  0.000000E+00
  0.000000E+00
  0.000000E+00
  0.000000E+00
  0.000000E+00
  0.000000E+00
  0.000000E+00
  0.000000E+00
  0.000000E+00
  0.000000E+00
  0.000000E+00
  0.000000E+00
  0.000000E+00
  0.000000E+00
  0.000000E+00
  0.000000E+00
  0.000000E+00
  0.000000E+00
  0.000000E+00
  0.000000E+00
  0.000000E+00
  0.000000E+00
  0.000000E+00
  0.000000E+00
  0.000000E+00
  0.000000E+00
  0.000000E+00
  0.000000E+00
  0.000000E+00
  0.000000E+00
  0.000000E+00
  0.000000E+00
  0.000000E+00
  0.000000E+00
  0.000000E+00
  0.000000E+00
  0.000000E+00
  0.000000E+00
  0.000000E+00
  0.000000E+00
  0.000000E+00
  0.000000E+00
  0.000000E+00
  0.000000E+00
  0.000000E+00
  0.000000E+00
  0.000000E+00
  0.000000E+00
  0.000000E+00
  0.000000E+00
  0.000000E+00
  0.000000E+00
  0.000000E+00
  0.000000E+00
  0.000000E+00
  0.000000E+00
  0.000000E+00
  0.000000E+00
  0.000000E+00
  0.000000E+00
  0.000000E+00
  0.000000E+00
  0.000000E+00
  0.000000E+00
  0.000000E+00
  0.000000E+00
  0.000000E+00
  0.000000E+00
  0.000000E+00
  0.000000E+00
  0.000000E+00
  0.000000E+00
  0.000000E+00
  0.000000E+00
  0.000000E+00
  0.000000E+00
  0.000000E+00
  0.000000E+00
  0.000000E+00
  0.000000E+00
  0.000000E+00
  0.000000E+00
  0.000000E+00
  0.000000E+00
  0.000000E+00
  0.000000E+00
  0.000000E+00
  0.000000E+00
  0.000000E+00
  0.000000E+00
  0.000000E+00
  0.000000E+00
  0.000000E+00
  0.000000E+00
  0.000000E+00
  0.000000E+00
  0.000000E+00
  0.000000E+00
  0.000000E+00
  0.000000E+00
  0.000000E+00
  0.000000E+00
  0.000000E+00
  0.000000E+00
  0.000000E+00
  0.000000E+00
  0.000000E+00
  0.000000E+00
  0.000000E+00
  0.000000E+00
  0.000000E+00
  0.000000E+00
  0.000000E+00
  0.000000E+00
  0.000000E+00
  0.000000E+00
  0.000000E+00
  0.000000E+00
  0.000000E+00
  0.000000E+00
  0.000000E+00
  0.000000E+00
  0.000000E+00
  0.000000E+00
  0.000000E+00
  0.000000E+00
  0.000000E+00
  0.000000E+00
  0.000000E+00
  0.000000E+00
  0.000000E+00
  0.000000E+00
  0.000000E+00
  0.000000E+00
  0.000000E+00
  0.000000E+00
  0.000000E+00
  0.000000E+00
  0.000000E+00
  0.000000E+00
  0.000000E+00
  0.000000E+00
  0.000000E+00
  0.000000E+00
  0.000000E+00
  0.000000E+00
  0.000000E+00
  0.000000E+00
  0.000000E+00
  0.000000E+00
  0.000000E+00
  0.000000E+00
  0.000000E+00
  0.000000E+00
  0.000000E+00
  0.000000E+00
  0.000000E+00
  0.000000E+00
  0.000000E+00
  0.000000E+00
  0.000000E+00
  0.000000E+00
  0.000000E+00
  0.000000E+00
  0.000000E+00
  0.000000E+00
  0.000000E+00
  0.000000E+00
  0.000000E+00
  0.000000E+00
  0.000000E+00
  0.000000E+00
  0.000000E+00
  0.000000E+00
  0.000000E+00
  0.000000E+00
  0.000000E+00
  0.000000E+00
  0.000000E+00
  0.000000E+00
  0.000000E+00
  0.000000E+00
  0.000000E+00
  0.000000E+00
  0.000000E+00
  0.000000E+00
  0.000000E+00
  0.000000E+00
  0.000000E+00
  0.000000E+00
  0.000000E+00
  0.000000E+00
  0.000000E+00
  0.000000E+00
  0.000000E+00
  0.000000E+00
  0.000000E+00
  0.000000E+00
  0.000000E+00
  0.000000E+00
  0.000000E+00
  0.000000E+00
  0.000000E+00
  0.000000E+00
  0.000000E+00
  0.000000E+00
  0.000000E+00
  0.000000E+00
  0.000000E+00
  0.000000E+00
  0.000000E+00
  0.000000E+00
  0.000000E+00
  0.000000E+00
  0.000000E+00
  0.000000E+00
  0.000000E+00
  0.000000E+00
  0.000000E+00
  0.000000E+00
  0.000000E+00
  0.000000E+00
  0.000000E+00
  0.000000E+00
  0.000000E+00
  0.000000E+00
  0.000000E+00
  0.000000E+00
  0.000000E+00
  0.000000E+00
  0.000000E+00
  0.000000E+00
  0.000000E+00
  0.000000E+00
  0.000000E+00
  0.000000E+00
  0.000000E+00
  0.000000E+00
  0.000000E+00
  0.000000E+00
  0.000000E+00
  0.000000E+00
  0.000000E+00
  0.000000E+00
  0.000000E+00
  0.000000E+00
  0.000000E+00
  0.000000E+00
  0.000000E+00
  0.000000E+00
  0.000000E+00
  0.000000E+00
  0.000000E+00
  0.000000E+00
  0.000000E+00
  0.000000E+00
  0.000000E+00
  0.000000E+00
  0.000000E+00
  0.000000E+00
  0.000000E+00
  0.000000E+00
  0.000000E+00
  0.000000E+00
  0.000000E+00
  0.000000E+00
  1.000000E-08
  1.690972E-02
  3.381945E-02
  5.072917E-02
  6.763890E-02
  8.454862E-02
  1.014583E-01
  1.183681E-01
  1.352778E-01
  1.521875E-01
  1.690972E-01
  1.860070E-01
  2.029167E-01
  2.198264E-01
  2.367361E-01
  2.536459E-01
  2.705556E-01
  2.874653E-01
  3.043750E-01
  3.212848E-01
  3.381945E-01
  3.551042E-01
  3.720139E-01
  3.889237E-01
  4.058334E-01
  4.227431E-01
  4.396528E-01
  4.565626E-01
  4.734723E-01
  4.903820E-01
  5.072917E-01
  5.242015E-01
  5.411112E-01
  5.580209E-01
  5.749306E-01
  5.918404E-01
  6.087501E-01
  6.256598E-01
  6.425695E-01
  6.594792E-01
  6.763890E-01
  6.932987E-01
  7.102084E-01
  7.271181E-01
  7.440279E-01
  7.609376E-01
  7.778473E-01
  7.947570E-01
  8.116668E-01
  8.285765E-01
  8.454862E-01
  8.623959E-01
  8.793057E-01
  8.962154E-01
  9.131251E-01
  9.300348E-01
  9.469446E-01
  9.638543E-01
  9.807640E-01
  9.976737E-01
  1.014583E+00
  1.031493E+00
  1.048403E+00
  1.065313E+00
  1.082222E+00
  1.099132E+00
  1.116042E+00
  1.132952E+00
  1.149861E+00
  1.166771E+00
  1.183681E+00
  1.200590E+00
  1.217500E+00
  1.234410E+00
  1.251320E+00
  1.268229E+00
  1.285139E+00
  1.302049E+00
  1.318958E+00
  1.335868E+00
  1.352778E+00
  1.369688E+00
  1.386597E+00
  1.403507E+00
  1.420417E+00
  1.437327E+00
  1.454236E+00
  1.471146E+00
  1.488056E+00
  1.504965E+00
  1.521875E+00
  1.538785E+00
  1.555695E+00
  1.572604E+00
  1.589514E+00
  1.606424E+00
  1.623334E+00
  1.640243E+00
  1.657153E+00
  1.674063E+00
  1.690972E+00
  1.707882E+00
  1.724792E+00
  1.741702E+00
  1.758611E+00
  1.775521E+00
  1.792431E+00
  1.809341E+00
  1.826250E+00
  1.843160E+00
  1.860070E+00
  1.876979E+00
  1.893889E+00
  1.910799E+00
  1.927709E+00
  1.944618E+00
  1.961528E+00
  1.978438E+00
  1.995347E+00
  2.012257E+00
  2.029167E+00
  2.046077E+00
  2.062986E+00
  2.079896E+00
  2.096806E+00
  2.113716E+00
  2.130625E+00
  2.147535E+00
  2.164445E+00
  2.181354E+00
  2.198264E+00
  2.215174E+00
  2.232084E+00
  2.248993E+00
  2.265903E+00
  2.282813E+00
  2.299723E+00
  2.316632E+00
  2.333542E+00
  2.350452E+00
  2.367361E+00
  2.384271E+00
  2.401181E+00
  2.418091E+00
  2.435000E+00
  2.451910E+00
  2.468820E+00
  2.485729E+00
  2.502639E+00
  2.519549E+00
  1.102111E+04
  1.101951E+04
  1.101791E+04
  1.101631E+04
  1.101471E+04
  1.101311E+04
  1.101151E+04
  1.100992E+04
  1.100832E+04
  1.100359E+04
  1.099872E+04
  1.099384E+04
  1.098897E+04
  1.098410E+04
  1.097923E+04
  1.097435E+04
  1.096855E+04
  1.096070E+04
  1.095286E+04
  1.094502E+04
  1.093717E+04
  1.092933E+04
  1.092149E+04
  1.091349E+04
  1.090279E+04
  1.089209E+04
  1.088139E+04
  1.087069E+04
  1.085999E+04
  1.084929E+04
  1.083810E+04
  1.082431E+04
  1.081053E+04
  1.079675E+04
  1.078296E+04
  1.076918E+04
  1.075539E+04
  1.073962E+04
  1.072256E+04
  1.070550E+04
  1.068844E+04
  1.067138E+04
  1.065432E+04
  1.063598E+04
  1.061558E+04
  1.059518E+04
  1.057478E+04
  1.055438E+04
  1.053398E+04
  1.051197E+04
  1.048815E+04
  1.046434E+04
  1.044052E+04
  1.041671E+04
  1.039289E+04
  1.036609E+04
  1.033878E+04
  1.031147E+04
  1.028416E+04
  1.025686E+04
  1.022776E+04
  1.019697E+04
  1.016620E+04
  1.013542E+04
  1.010465E+04
  1.007231E+04
  1.003804E+04
  1.000377E+04
  9.969504E+03
  9.935240E+03
  9.898682E+03
  9.860784E+03
  9.822889E+03
  9.784994E+03
  9.746894E+03
  9.705289E+03
  9.663685E+03
  9.622082E+03
  9.580479E+03
  9.536220E+03
  9.490874E+03
  9.445528E+03
  9.400183E+03
  9.352624E+03
  9.303463E+03
  9.254305E+03
  9.205148E+03
  9.153587E+03
  9.100776E+03
  9.047969E+03
  8.995166E+03
  8.939240E+03
  8.883091E+03
  8.826949E+03
  8.769471E+03
  8.709910E+03
  8.650366E+03
  8.590744E+03
  8.527793E+03
  8.464876E+03
  8.401993E+03
  8.336905E+03
  8.271418E+03
  8.205984E+03
  8.138560E+03
  8.070681E+03
  8.002864E+03
  7.931940E+03
  7.860782E+03
  7.788932E+03
  7.713555E+03
  7.638239E+03
  7.560214E+03
  7.480171E+03
  7.399673E+03
  7.314641E+03
  7.229650E+03
  7.140879E+03
  7.050875E+03
  6.958391E+03
  6.863611E+03
  6.767042E+03
  6.667774E+03
  6.566932E+03
  6.463574E+03
  6.358538E+03
  6.251630E+03
  6.142686E+03
  6.032678E+03
  5.920096E+03
  5.806610E+03
  5.691373E+03
  5.574516E+03
  5.456536E+03
  5.336978E+03
  5.215593E+03
  5.092693E+03
  4.968100E+03
  4.841703E+03
  4.714117E+03
  4.589575E+03
  4.477186E+03
  4.392135E+03
  4.361066E+03
  4.442655E+03
  4.602383E+03
  4.391506E+03
  4.567801E+03
  1.343795E+03
  2.318113E-03
  6.049156E+02
  6.048843E+02
  6.048531E+02
  6.048218E+02
  6.047906E+02
  6.047593E+02
  6.047281E+02
  6.046968E+02
  6.046656E+02
  6.045902E+02
  6.045127E+02
  6.044353E+02
  6.043579E+02
  6.042806E+02
  6.042032E+02
  6.041258E+02
  6.040529E+02
  6.039894E+02
  6.039260E+02
  6.038626E+02
  6.037993E+02
  6.037359E+02
  6.036726E+02
  6.036106E+02
  6.035711E+02
  6.035316E+02
  6.034921E+02
  6.034527E+02
  6.034133E+02
  6.033739E+02
  6.033303E+02
  6.032640E+02
  6.031979E+02
  6.031317E+02
  6.030657E+02
  6.029997E+02
  6.029338E+02
  6.028476E+02
  6.027483E+02
  6.026491E+02
  6.025501E+02
  6.024511E+02
  6.023523E+02
  6.022489E+02
  6.021382E+02
  6.020276E+02
  6.019172E+02
  6.018069E+02
  6.016968E+02
  6.015744E+02
  6.014380E+02
  6.013019E+02
  6.011660E+02
  6.010303E+02
  6.008949E+02
  6.006988E+02
  6.004924E+02
  6.002864E+02
  6.000808E+02
  5.998754E+02
  5.996245E+02
  5.993311E+02
  5.990381E+02
  5.987455E+02
  5.984533E+02
  5.981086E+02
  5.976987E+02
  5.972893E+02
  5.968804E+02
  5.964718E+02
  5.959552E+02
  5.953757E+02
  5.947966E+02
  5.942177E+02
  5.936287E+02
  5.928624E+02
  5.920963E+02
  5.913304E+02
  5.905648E+02
  5.895780E+02
  5.885008E+02
  5.874237E+02
  5.863468E+02
  5.849089E+02
  5.832098E+02
  5.815106E+02
  5.798113E+02
  5.775379E+02
  5.749655E+02
  5.723931E+02
  5.698207E+02
  5.663063E+02
  5.627234E+02
  5.591419E+02
  5.550486E+02
  5.501595E+02
  5.452761E+02
  5.403589E+02
  5.340619E+02
  5.277780E+02
  5.215072E+02
  5.145611E+02
  5.074956E+02
  5.004493E+02
  4.934223E+02
  4.864157E+02
  4.794292E+02
  4.729468E+02
  4.665269E+02
  4.602716E+02
  4.547329E+02
  4.492048E+02
  4.442839E+02
  4.398164E+02
  4.354640E+02
  4.321106E+02
  4.287587E+02
  4.262064E+02
  4.239193E+02
  4.221077E+02
  4.207366E+02
  4.196151E+02
  4.188689E+02
  4.182397E+02
  4.177958E+02
  4.174034E+02
  4.170696E+02
  4.167541E+02
  4.164556E+02
  4.161785E+02
  4.159392E+02
  4.157691E+02
  4.157599E+02
  4.159129E+02
  4.163558E+02
  4.172879E+02
  4.187301E+02
  4.208525E+02
  4.239111E+02
  4.286628E+02
  4.361447E+02
  4.484772E+02
  4.691715E+02
  5.041939E+02
  5.652123E+02
  6.514046E+02
  6.974527E+02
  8.071595E+02
  3.481111E+02
  5.050489E-04
  1.987895E+03
  1.987473E+03
  1.987052E+03
  1.986631E+03
  1.986209E+03
  1.985788E+03
  1.985367E+03
  1.984946E+03
  1.984524E+03
  1.983327E+03
  1.982094E+03
  1.980861E+03
  1.979628E+03
  1.978396E+03
  1.977163E+03
  1.975930E+03
  1.974492E+03
  1.972606E+03
  1.970720E+03
  1.968834E+03
  1.966948E+03
  1.965062E+03
  1.963176E+03
  1.961254E+03
  1.958717E+03
  1.956179E+03
  1.953642E+03
  1.951105E+03
  1.948568E+03
  1.946030E+03
  1.943366E+03
  1.940031E+03
  1.936697E+03
  1.933362E+03
  1.930027E+03
  1.926692E+03
  1.923357E+03
  1.919472E+03
  1.915231E+03
  1.910990E+03
  1.906749E+03
  1.902509E+03
  1.898268E+03
  1.893670E+03
  1.888497E+03
  1.883324E+03
  1.878151E+03
  1.872978E+03
  1.867805E+03
  1.862200E+03
  1.856108E+03
  1.850016E+03
  1.843924E+03
  1.837832E+03
  1.831740E+03
  1.824935E+03
  1.818006E+03
  1.811079E+03
  1.804151E+03
  1.797224E+03
  1.789959E+03
  1.782379E+03
  1.774800E+03
  1.767221E+03
  1.759642E+03
  1.751837E+03
  1.743750E+03
  1.735665E+03
  1.727579E+03
  1.719494E+03
  1.711187E+03
  1.702750E+03
  1.694313E+03
  1.685877E+03
  1.677442E+03
  1.669027E+03
  1.660612E+03
  1.652197E+03
  1.643782E+03
  1.635558E+03
  1.627413E+03
  1.619268E+03
  1.611123E+03
  1.603053E+03
  1.595037E+03
  1.587022E+03
  1.579007E+03
  1.571103E+03
  1.563257E+03
  1.555412E+03
  1.547568E+03
  1.540147E+03
  1.532760E+03
  1.525375E+03
  1.518062E+03
  1.510863E+03
  1.503671E+03
  1.496469E+03
  1.488725E+03
  1.480995E+03
  1.473281E+03
  1.464884E+03
  1.456370E+03
  1.447852E+03
  1.438569E+03
  1.429107E+03
  1.419675E+03
  1.408717E+03
  1.397643E+03
  1.386192E+03
  1.372843E+03
  1.359520E+03
  1.344752E+03
  1.328904E+03
  1.312823E+03
  1.294469E+03
  1.276129E+03
  1.256064E+03
  1.235431E+03
  1.213819E+03
  1.191299E+03
  1.168225E+03
  1.144316E+03
  1.120079E+03
  1.095323E+03
  1.070441E+03
  1.045421E+03
  1.020602E+03
  9.958923E+02
  9.719749E+02
  9.485211E+02
  9.260506E+02
  9.049399E+02
  8.849065E+02
  8.665814E+02
  8.504394E+02
  8.361402E+02
  8.240037E+02
  8.144648E+02
  8.091407E+02
  8.106071E+02
  8.248292E+02
  8.622516E+02
  9.392106E+02
  1.081126E+03
  1.273743E+03
  1.337398E+03
  1.399290E+03
 -7.905351E+01
  2.905927E-09
  1.237067E+00
  1.236887E+00
  1.236708E+00
  1.236528E+00
  1.236349E+00
  1.236169E+00
  1.235990E+00
  1.235810E+00
  1.235631E+00
  1.235100E+00
  1.234553E+00
  1.234006E+00
  1.233459E+00
  1.232913E+00
  1.232366E+00
  1.231819E+00
  1.231167E+00
  1.230287E+00
  1.229406E+00
  1.228526E+00
  1.227645E+00
  1.226765E+00
  1.225885E+00
  1.224987E+00
  1.223786E+00
  1.222585E+00
  1.221384E+00
  1.220183E+00
  1.218982E+00
  1.217781E+00
  1.216525E+00
  1.214978E+00
  1.213430E+00
  1.211883E+00
  1.210336E+00
  1.208789E+00
  1.207242E+00
  1.205471E+00
  1.203556E+00
  1.201641E+00
  1.199726E+00
  1.197811E+00
  1.195897E+00
  1.193838E+00
  1.191548E+00
  1.189258E+00
  1.186968E+00
  1.184678E+00
  1.182389E+00
  1.179919E+00
  1.177245E+00
  1.174572E+00
  1.171899E+00
  1.169226E+00
  1.166553E+00
  1.163545E+00
  1.160479E+00
  1.157414E+00
  1.154348E+00
  1.151283E+00
  1.148017E+00
  1.144562E+00
  1.141107E+00
  1.137652E+00
  1.134198E+00
  1.130568E+00
  1.126722E+00
  1.122875E+00
  1.119029E+00
  1.115183E+00
  1.111080E+00
  1.106826E+00
  1.102572E+00
  1.098319E+00
  1.094042E+00
  1.089372E+00
  1.084702E+00
  1.080033E+00
  1.075363E+00
  1.070395E+00
  1.065305E+00
  1.060215E+00
  1.055126E+00
  1.049787E+00
  1.044269E+00
  1.038751E+00
  1.033234E+00
  1.027446E+00
  1.021519E+00
  1.015591E+00
  1.009664E+00
  1.003387E+00
  9.970845E-01
  9.907829E-01
  9.843312E-01
  9.776458E-01
  9.709623E-01
  9.642699E-01
  9.572040E-01
  9.501419E-01
  9.430836E-01
  9.357778E-01
  9.284272E-01
  9.210825E-01
  9.135145E-01
  9.058954E-01
  8.982833E-01
  8.903224E-01
  8.823353E-01
  8.742704E-01
  8.658097E-01
  8.573558E-01
  8.485979E-01
  8.396135E-01
  8.305780E-01
  8.210335E-01
  8.114937E-01
  8.015296E-01
  7.914271E-01
  7.810461E-01
  7.704075E-01
  7.595682E-01
  7.484258E-01
  7.371067E-01
  7.255053E-01
  7.137155E-01
  7.017156E-01
  6.894872E-01
  6.771393E-01
  6.645025E-01
  6.517642E-01
  6.388295E-01
  6.257128E-01
  6.124701E-01
  5.990503E-01
  5.854254E-01
  5.716305E-01
  5.576454E-01
  5.434581E-01
  5.291371E-01
  5.151579E-01
  5.025427E-01
  4.929961E-01
  4.895088E-01
  4.986668E-01
  5.165955E-01
  4.929255E-01
  5.127138E-01
  1.508346E-01
  2.601971E-07
  1.103545E+00
  1.103488E+00
  1.103430E+00
  1.103373E+00
  1.103316E+00
  1.103259E+00
  1.103202E+00
  1.103145E+00
  1.103088E+00
  1.102951E+00
  1.102810E+00
  1.102668E+00
  1.102527E+00
  1.102386E+00
  1.102245E+00
  1.102104E+00
  1.101971E+00
  1.101855E+00
  1.101739E+00
  1.101624E+00
  1.101508E+00
  1.101392E+00
  1.101277E+00
  1.101164E+00
  1.101092E+00
  1.101020E+00
  1.100948E+00
  1.100876E+00
  1.100804E+00
  1.100732E+00
  1.100652E+00
  1.100532E+00
  1.100411E+00
  1.100290E+00
  1.100170E+00
  1.100049E+00
  1.099929E+00
  1.099772E+00
  1.099591E+00
  1.099410E+00
  1.099229E+00
  1.099049E+00
  1.098868E+00
  1.098680E+00
  1.098478E+00
  1.098276E+00
  1.098075E+00
  1.097873E+00
  1.097673E+00
  1.097449E+00
  1.097200E+00
  1.096952E+00
  1.096704E+00
  1.096457E+00
  1.096210E+00
  1.095852E+00
  1.095475E+00
  1.095100E+00
  1.094724E+00
  1.094350E+00
  1.093892E+00
  1.093357E+00
  1.092822E+00
  1.092289E+00
  1.091755E+00
  1.091127E+00
  1.090379E+00
  1.089632E+00
  1.088886E+00
  1.088141E+00
  1.087198E+00
  1.086141E+00
  1.085084E+00
  1.084028E+00
  1.082954E+00
  1.081556E+00
  1.080158E+00
  1.078761E+00
  1.077364E+00
  1.075564E+00
  1.073599E+00
  1.071634E+00
  1.069670E+00
  1.067046E+00
  1.063947E+00
  1.060847E+00
  1.057747E+00
  1.053599E+00
  1.048907E+00
  1.044214E+00
  1.039521E+00
  1.033110E+00
  1.026574E+00
  1.020040E+00
  1.012572E+00
  1.003653E+00
  9.947445E-01
  9.857740E-01
  9.742864E-01
  9.628229E-01
  9.513830E-01
  9.387113E-01
  9.258217E-01
  9.129671E-01
  9.001478E-01
  8.873658E-01
  8.746203E-01
  8.627944E-01
  8.510828E-01
  8.396713E-01
  8.295670E-01
  8.194821E-01
  8.105050E-01
  8.023550E-01
  7.944148E-01
  7.882973E-01
  7.821824E-01
  7.775262E-01
  7.733539E-01
  7.700489E-01
  7.675478E-01
  7.655017E-01
  7.641405E-01
  7.629926E-01
  7.621828E-01
  7.614670E-01
  7.608581E-01
  7.602824E-01
  7.597379E-01
  7.592325E-01
  7.587959E-01
  7.584856E-01
  7.584687E-01
  7.587479E-01
  7.595558E-01
  7.612562E-01
  7.638872E-01
  7.677591E-01
  7.733389E-01
  7.820074E-01
  7.956566E-01
  8.181547E-01
  8.559072E-01
  9.197984E-01
  1.031114E+00
  1.188354E+00
  1.272360E+00
  1.472497E+00
  6.350574E-01
  9.213583E-07
  1.259330E+00
  1.259063E+00
  1.258796E+00
  1.258529E+00
  1.258262E+00
  1.257995E+00
  1.257728E+00
  1.257462E+00
  1.257195E+00
  1.256436E+00
  1.255655E+00
  1.254874E+00
  1.254093E+00
  1.253312E+00
  1.252531E+00
  1.251750E+00
  1.250839E+00
  1.249644E+00
  1.248450E+00
  1.247255E+00
  1.246060E+00
  1.244865E+00
  1.243671E+00
  1.242453E+00
  1.240846E+00
  1.239238E+00
  1.237631E+00
  1.236024E+00
  1.234416E+00
  1.232809E+00
  1.231121E+00
  1.229009E+00
  1.226896E+00
  1.224783E+00
  1.222671E+00
  1.220558E+00
  1.218445E+00
  1.215984E+00
  1.213298E+00
  1.210611E+00
  1.207924E+00
  1.205238E+00
  1.202551E+00
  1.199638E+00
  1.196361E+00
  1.193084E+00
  1.189807E+00
  1.186530E+00
  1.183253E+00
  1.179702E+00
  1.175843E+00
  1.171984E+00
  1.168124E+00
  1.164265E+00
  1.160406E+00
  1.156095E+00
  1.151706E+00
  1.147317E+00
  1.142928E+00
  1.138540E+00
  1.133938E+00
  1.129136E+00
  1.124334E+00
  1.119533E+00
  1.114732E+00
  1.109787E+00
  1.104665E+00
  1.099542E+00
  1.094420E+00
  1.089298E+00
  1.084036E+00
  1.078691E+00
  1.073346E+00
  1.068002E+00
  1.062658E+00
  1.057327E+00
  1.051997E+00
  1.046666E+00
  1.041335E+00
  1.036125E+00
  1.030965E+00
  1.025805E+00
  1.020645E+00
  1.015533E+00
  1.010455E+00
  1.005377E+00
  1.000300E+00
  9.952928E-01
  9.903223E-01
  9.853525E-01
  9.803833E-01
  9.756820E-01
  9.710022E-01
  9.663241E-01
  9.616915E-01
  9.571307E-01
  9.525742E-01
  9.480121E-01
  9.431059E-01
  9.382095E-01
  9.333227E-01
  9.280030E-01
  9.226096E-01
  9.172132E-01
  9.113321E-01
  9.053381E-01
  8.993629E-01
  8.924212E-01
  8.854057E-01
  8.781517E-01
  8.696948E-01
  8.612547E-01
  8.518992E-01
  8.418596E-01
  8.316722E-01
  8.200452E-01
  8.084266E-01
  7.957154E-01
  7.826445E-01
  7.689532E-01
  7.546874E-01
  7.400699E-01
  7.249231E-01
  7.095695E-01
  6.938861E-01
  6.781236E-01
  6.622734E-01
  6.465505E-01
  6.308971E-01
  6.157454E-01
  6.008875E-01
  5.866524E-01
  5.732788E-01
  5.605876E-01
  5.489787E-01
  5.387528E-01
  5.296943E-01
  5.220058E-01
  5.159629E-01
  5.125900E-01
  5.135191E-01
  5.225287E-01
  5.462358E-01
  5.949893E-01
  6.848923E-01
  8.069151E-01
  8.472404E-01
  8.864489E-01
 -5.008034E-02
  1.840903E-12
  9.758169E-01
  9.756753E-01
  9.755337E-01
  9.753921E-01
  9.752505E-01
  9.751090E-01
  9.749674E-01
  9.748258E-01
  9.746842E-01
  9.742655E-01
  9.738341E-01
  9.734026E-01
  9.729712E-01
  9.725398E-01
  9.721084E-01
  9.716770E-01
  9.711628E-01
  9.704683E-01
  9.697738E-01
  9.690794E-01
  9.683849E-01
  9.676904E-01
  9.669960E-01
  9.662875E-01
  9.653401E-01
  9.643927E-01
  9.634453E-01
  9.624979E-01
  9.615505E-01
  9.606031E-01
  9.596123E-01
  9.583918E-01
  9.571712E-01
  9.559507E-01
  9.547302E-01
  9.535097E-01
  9.522892E-01
  9.508925E-01
  9.493818E-01
  9.478712E-01
  9.463606E-01
  9.448500E-01
  9.433395E-01
  9.417155E-01
  9.399090E-01
  9.381025E-01
  9.362960E-01
  9.344896E-01
  9.326832E-01
  9.307345E-01
  9.286255E-01
  9.265165E-01
  9.244077E-01
  9.222989E-01
  9.201902E-01
  9.178171E-01
  9.153987E-01
  9.129804E-01
  9.105623E-01
  9.081442E-01
  9.055672E-01
  9.028417E-01
  9.001163E-01
  8.973910E-01
  8.946660E-01
  8.918025E-01
  8.887679E-01
  8.857335E-01
  8.826992E-01
  8.796652E-01
  8.764280E-01
  8.730722E-01
  8.697165E-01
  8.663609E-01
  8.629871E-01
  8.593029E-01
  8.556188E-01
  8.519348E-01
  8.482508E-01
  8.443315E-01
  8.403160E-01
  8.363006E-01
  8.322852E-01
  8.280738E-01
  8.237208E-01
  8.193680E-01
  8.150153E-01
  8.104501E-01
  8.057744E-01
  8.010991E-01
  7.964241E-01
  7.914733E-01
  7.865027E-01
  7.815328E-01
  7.764448E-01
  7.711728E-01
  7.659022E-01
  7.606245E-01
  7.550526E-01
  7.494834E-01
  7.439169E-01
  7.381550E-01
  7.323574E-01
  7.265635E-01
  7.205930E-01
  7.145815E-01
  7.085753E-01
  7.022936E-01
  6.959910E-01
  6.896268E-01
  6.829506E-01
  6.762796E-01
  6.693692E-01
  6.622804E-01
  6.551513E-01
  6.476219E-01
  6.400961E-01
  6.322367E-01
  6.242683E-01
  6.160809E-01
  6.076908E-01
  5.991425E-01
  5.903556E-01
  5.814292E-01
  5.722803E-01
  5.629825E-01
  5.535189E-01
  5.438747E-01
  5.341359E-01
  5.241688E-01
  5.141213E-01
  5.039182E-01
  4.935710E-01
  4.831239E-01
  4.725368E-01
  4.617877E-01
  4.509040E-01
  4.398701E-01
  4.286764E-01
  4.173771E-01
  4.063472E-01
  3.963932E-01
  3.888594E-01
  3.861048E-01
  3.933239E-01
  4.074606E-01
  3.887863E-01
  4.043888E-01
  1.385923E-01
  4.112538E-02
  5.355967E-02
  5.355690E-02
  5.355413E-02
  5.355136E-02
  5.354859E-02
  5.354582E-02
  5.354305E-02
  5.354029E-02
  5.353752E-02
  5.353084E-02
  5.352399E-02
  5.351713E-02
  5.351028E-02
  5.350343E-02
  5.349658E-02
  5.348973E-02
  5.348327E-02
  5.347765E-02
  5.347203E-02
  5.346642E-02
  5.346081E-02
  5.345520E-02
  5.344959E-02
  5.344410E-02
  5.344059E-02
  5.343709E-02
  5.343360E-02
  5.343010E-02
  5.342661E-02
  5.342312E-02
  5.341926E-02
  5.341339E-02
  5.340753E-02
  5.340167E-02
  5.339581E-02
  5.338997E-02
  5.338412E-02
  5.337649E-02
  5.336769E-02
  5.335891E-02
  5.335013E-02
  5.334136E-02
  5.333260E-02
  5.332344E-02
  5.331363E-02
  5.330383E-02
  5.329404E-02
  5.328427E-02
  5.327451E-02
  5.326366E-02
  5.325157E-02
  5.323951E-02
  5.322746E-02
  5.321544E-02
  5.320343E-02
  5.318605E-02
  5.316777E-02
  5.314951E-02
  5.313129E-02
  5.311309E-02
  5.309086E-02
  5.306487E-02
  5.303891E-02
  5.301298E-02
  5.298710E-02
  5.295655E-02
  5.292025E-02
  5.288398E-02
  5.284775E-02
  5.281155E-02
  5.276580E-02
  5.271447E-02
  5.266316E-02
  5.261188E-02
  5.255970E-02
  5.249183E-02
  5.242397E-02
  5.235613E-02
  5.228831E-02
  5.220090E-02
  5.210549E-02
  5.201009E-02
  5.191471E-02
  5.178737E-02
  5.163690E-02
  5.148643E-02
  5.133595E-02
  5.113467E-02
  5.090692E-02
  5.067918E-02
  5.045142E-02
  5.014031E-02
  4.982314E-02
  4.950609E-02
  4.914374E-02
  4.871096E-02
  4.827867E-02
  4.784338E-02
  4.728595E-02
  4.672967E-02
  4.617452E-02
  4.555957E-02
  4.493403E-02
  4.431013E-02
  4.368790E-02
  4.306746E-02
  4.244876E-02
  4.187469E-02
  4.130613E-02
  4.075214E-02
  4.026161E-02
  3.977200E-02
  3.933618E-02
  3.894052E-02
  3.855505E-02
  3.825811E-02
  3.796128E-02
  3.773531E-02
  3.753284E-02
  3.737250E-02
  3.725121E-02
  3.715201E-02
  3.708608E-02
  3.703050E-02
  3.699135E-02
  3.695674E-02
  3.692731E-02
  3.689949E-02
  3.687316E-02
  3.684870E-02
  3.682755E-02
  3.681249E-02
  3.681163E-02
  3.682510E-02
  3.686420E-02
  3.694659E-02
  3.707411E-02
  3.726182E-02
  3.753239E-02
  3.795282E-02
  3.861495E-02
  3.970648E-02
  4.153828E-02
  4.463855E-02
  5.004024E-02
  5.767049E-02
  6.174649E-02
  7.145807E-02
  3.590243E-02
  8.960018E-03
  1.760096E-01
  1.759723E-01
  1.759350E-01
  1.758977E-01
  1.758604E-01
  1.758231E-01
  1.757858E-01
  1.757485E-01
  1.757112E-01
  1.756052E-01
  1.754960E-01
  1.753869E-01
  1.752777E-01
  1.751685E-01
  1.750594E-01
  1.749502E-01
  1.748229E-01
  1.746559E-01
  1.744889E-01
  1.743219E-01
  1.741549E-01
  1.739879E-01
  1.738209E-01
  1.736508E-01
  1.734261E-01
  1.732014E-01
  1.729768E-01
  1.727521E-01
  1.725275E-01
  1.723028E-01
  1.720669E-01
  1.717716E-01
  1.714764E-01
  1.711811E-01
  1.708858E-01
  1.705905E-01
  1.702952E-01
  1.699512E-01
  1.695757E-01
  1.692002E-01
  1.688247E-01
  1.684492E-01
  1.680737E-01
  1.676665E-01
  1.672085E-01
  1.667504E-01
  1.662924E-01
  1.658344E-01
  1.653763E-01
  1.648800E-01
  1.643406E-01
  1.638011E-01
  1.632617E-01
  1.627223E-01
  1.621829E-01
  1.615803E-01
  1.609668E-01
  1.603534E-01
  1.597399E-01
  1.591265E-01
  1.584833E-01
  1.578121E-01
  1.571410E-01
  1.564699E-01
  1.557988E-01
  1.551077E-01
  1.543917E-01
  1.536757E-01
  1.529598E-01
  1.522438E-01
  1.515083E-01
  1.507612E-01
  1.500142E-01
  1.492671E-01
  1.485202E-01
  1.477751E-01
  1.470299E-01
  1.462848E-01
  1.455396E-01
  1.448114E-01
  1.440901E-01
  1.433689E-01
  1.426476E-01
  1.419330E-01
  1.412233E-01
  1.405135E-01
  1.398039E-01
  1.391040E-01
  1.384094E-01
  1.377148E-01
  1.370203E-01
  1.363634E-01
  1.357095E-01
  1.350558E-01
  1.344085E-01
  1.337714E-01
  1.331348E-01
  1.324974E-01
  1.318120E-01
  1.311279E-01
  1.304451E-01
  1.297018E-01
  1.289481E-01
  1.281938E-01
  1.273717E-01
  1.265337E-01
  1.256983E-01
  1.247277E-01
  1.237468E-01
  1.227325E-01
  1.215501E-01
  1.203701E-01
  1.190621E-01
  1.176587E-01
  1.162345E-01
  1.146094E-01
  1.129854E-01
  1.112089E-01
  1.093822E-01
  1.074689E-01
  1.054753E-01
  1.034327E-01
  1.013161E-01
  9.917065E-02
  9.697909E-02
  9.477644E-02
  9.256149E-02
  9.036428E-02
  8.817673E-02
  8.605923E-02
  8.398273E-02
  8.199318E-02
  8.012392E-02
  7.834998E-02
  7.672724E-02
  7.529774E-02
  7.403135E-02
  7.295639E-02
  7.211136E-02
  7.163946E-02
  7.176873E-02
  7.302727E-02
  7.633979E-02
  8.315253E-02
  9.571587E-02
  1.127676E-01
  1.184017E-01
  1.238795E-01
 -8.153182E-03
  5.155374E-08
  9.760046E-01
  9.758631E-01
  9.757215E-01
  9.755800E-01
  9.754384E-01
  9.752969E-01
  9.751553E-01
  9.750138E-01
  9.748722E-01
  9.744535E-01
  9.740222E-01
  9.735909E-01
  9.731596E-01
  9.727283E-01
  9.722970E-01
  9.718656E-01
  9.713515E-01
  9.706573E-01
  9.699630E-01
  9.692687E-01
  9.685744E-01
  9.678801E-01
  9.671858E-01
  9.664776E-01
  9.655305E-01