 Title= "ADflow Lift Distribution Data"
Variables = "eta" "CoordinateX" "CoordinateY" "CoordinateZ" "Lift" "Drag" "Moment" "Normalized Lift" "Normalized Drag" "Normalized Moment" "CL" "CD" "CM" "CLp" "CDp" "CMp" "CLv" "CDv" "CMv" "Elliptical" "thickness" "twist" "chord" "fx" "fy" "fz" 
Zone T= "LiftDist_01 allWalls: : z normal"
 I=          150
 DATAPACKING=BLOCK
  0.000000E+00
  6.711405E-03
  1.342281E-02
  2.013422E-02
  2.684563E-02
  3.355704E-02
  4.026845E-02
  4.697986E-02
  5.369127E-02
  6.040268E-02
  6.711409E-02
  7.382550E-02
  8.053691E-02
  8.724832E-02
  9.395973E-02
  1.006711E-01
  1.073825E-01
  1.140940E-01
  1.208054E-01
  1.275168E-01
  1.342282E-01
  1.409396E-01
  1.476510E-01
  1.543624E-01
  1.610738E-01
  1.677852E-01
  1.744966E-01
  1.812081E-01
  1.879195E-01
  1.946309E-01
  2.013423E-01
  2.080537E-01
  2.147651E-01
  2.214765E-01
  2.281879E-01
  2.348993E-01
  2.416107E-01
  2.483221E-01
  2.550336E-01
  2.617450E-01
  2.684564E-01
  2.751678E-01
  2.818792E-01
  2.885906E-01
  2.953020E-01
  3.020134E-01
  3.087248E-01
  3.154362E-01
  3.221476E-01
  3.288591E-01
  3.355705E-01
  3.422819E-01
  3.489933E-01
  3.557047E-01
  3.624161E-01
  3.691275E-01
  3.758389E-01
  3.825503E-01
  3.892617E-01
  3.959732E-01
  4.026846E-01
  4.093960E-01
  4.161074E-01
  4.228188E-01
  4.295302E-01
  4.362416E-01
  4.429530E-01
  4.496644E-01
  4.563758E-01
  4.630872E-01
  4.697987E-01
  4.765101E-01
  4.832215E-01
  4.899329E-01
  4.966443E-01
  5.033557E-01
  5.100671E-01
  5.167785E-01
  5.234899E-01
  5.302013E-01
  5.369128E-01
  5.436242E-01
  5.503356E-01
  5.570470E-01
  5.637584E-01
  5.704698E-01
  5.771812E-01
  5.838926E-01
  5.906040E-01
  5.973154E-01
  6.040268E-01
  6.107383E-01
  6.174497E-01
  6.241611E-01
  6.308725E-01
  6.375839E-01
  6.442953E-01
  6.510067E-01
  6.577181E-01
  6.644295E-01
  6.711409E-01
  6.778524E-01
  6.845638E-01
  6.912752E-01
  6.979866E-01
  7.046980E-01
  7.114094E-01
  7.181208E-01
  7.248322E-01
  7.315436E-01
  7.382550E-01
  7.449664E-01
  7.516779E-01
  7.583893E-01
  7.651007E-01
  7.718121E-01
  7.785235E-01
  7.852349E-01
  7.919463E-01
  7.986577E-01
  8.053691E-01
  8.120805E-01
  8.187919E-01
  8.255034E-01
  8.322148E-01
  8.389262E-01
  8.456376E-01
  8.523490E-01
  8.590604E-01
  8.657718E-01
  8.724832E-01
  8.791946E-01
  8.859060E-01
  8.926175E-01
  8.993289E-01
  9.060403E-01
  9.127517E-01
  9.194631E-01
  9.261745E-01
  9.328859E-01
  9.395973E-01
  9.463087E-01
  9.530201E-01
  9.597315E-01
  9.664430E-01
  9.731544E-01
  9.798658E-01
  9.865772E-01
  9.932886E-01
  1.000000E+00
  0.000000E+00
  0.000000E+00
  0.000000E+00
  0.000000E+00
  0.000000E+00
  0.000000E+00
  0.000000E+00
  0.000000E+00
  0.000000E+00
  0.000000E+00
  0.000000E+00
  0.000000E+00
  0.000000E+00
  0.000000E+00
  0.000000E+00
  0.000000E+00
  0.000000E+00
  0.000000E+00
  0.000000E+00
  0.000000E+00
  0.000000E+00
  0.000000E+00
  0.000000E+00
  0.000000E+00
  0.000000E+00
  0.000000E+00
  0.000000E+00
  0.000000E+00
  0.000000E+00
  0.000000E+00
  0.000000E+00
  0.000000E+00
  0.000000E+00
  0.000000E+00
  0.000000E+00
  0.000000E+00
  0.000000E+00
  0.000000E+00
  0.000000E+00
  0.000000E+00
  0.000000E+00
  0.000000E+00
  0.000000E+00
  0.000000E+00
  0.000000E+00
  0.000000E+00
  0.000000E+00
  0.000000E+00
  0.000000E+00
  0.000000E+00
  0.000000E+00
  0.000000E+00
  0.000000E+00
  0.000000E+00
  0.000000E+00
  0.000000E+00
  0.000000E+00
  0.000000E+00
  0.000000E+00
  0.000000E+00
  0.000000E+00
  0.000000E+00
  0.000000E+00
  0.000000E+00
  0.000000E+00
  0.000000E+00
  0.000000E+00
  0.000000E+00
  0.000000E+00
  0.000000E+00
  0.000000E+00
  0.000000E+00
  0.000000E+00
  0.000000E+00
  0.000000E+00
  0.000000E+00
  0.000000E+00
  0.000000E+00
  0.000000E+00
  0.000000E+00
  0.000000E+00
  0.000000E+00
  0.000000E+00
  0.000000E+00
  0.000000E+00
  0.000000E+00
  0.000000E+00
  0.000000E+00
  0.000000E+00
  0.000000E+00
  0.000000E+00
  0.000000E+00
  0.000000E+00
  0.000000E+00
  0.000000E+00
  0.000000E+00
  0.000000E+00
  0.000000E+00
  0.000000E+00
  0.000000E+00
  0.000000E+00
  0.000000E+00
  0.000000E+00
  0.000000E+00
  0.000000E+00
  0.000000E+00
  0.000000E+00
  0.000000E+00
  0.000000E+00
  0.000000E+00
  0.000000E+00
  0.000000E+00
  0.000000E+00
  0.000000E+00
  0.000000E+00
  0.000000E+00
  0.000000E+00
  0.000000E+00
  0.000000E+00
  0.000000E+00
  0.000000E+00
  0.000000E+00
  0.000000E+00
  0.000000E+00
  0.000000E+00
  0.000000E+00
  0.000000E+00
  0.000000E+00
  0.000000E+00
  0.000000E+00
  0.000000E+00
  0.000000E+00
  0.000000E+00
  0.000000E+00
  0.000000E+00
  0.000000E+00
  0.000000E+00
  0.000000E+00
  0.000000E+00
  0.000000E+00
  0.000000E+00
  0.000000E+00
  0.000000E+00
  0.000000E+00
  0.000000E+00
  0.000000E+00
  0.000000E+00
  0.000000E+00
  0.000000E+00
  0.000000E+00
  0.000000E+00
  0.000000E+00
  0.000000E+00
  0.000000E+00
  0.000000E+00
  0.000000E+00
  0.000000E+00
  0.000000E+00
  0.000000E+00
  0.000000E+00
  0.000000E+00
  0.000000E+00
  0.000000E+00
  0.000000E+00
  0.000000E+00
  0.000000E+00
  0.000000E+00
  0.000000E+00
  0.000000E+00
  0.000000E+00
  0.000000E+00
  0.000000E+00
  0.000000E+00
  0.000000E+00
  0.000000E+00
  0.000000E+00
  0.000000E+00
  0.000000E+00
  0.000000E+00
  0.000000E+00
  0.000000E+00
  0.000000E+00
  0.000000E+00
  0.000000E+00
  0.000000E+00
  0.000000E+00
  0.000000E+00
  0.000000E+00
  0.000000E+00
  0.000000E+00
  0.000000E+00
  0.000000E+00
  0.000000E+00
  0.000000E+00
  0.000000E+00
  0.000000E+00
  0.000000E+00
  0.000000E+00
  0.000000E+00
  0.000000E+00
  0.000000E+00
  0.000000E+00
  0.000000E+00
  0.000000E+00
  0.000000E+00
  0.000000E+00
  0.000000E+00
  0.000000E+00
  0.000000E+00
  0.000000E+00
  0.000000E+00
  0.000000E+00
  0.000000E+00
  0.000000E+00
  0.000000E+00
  0.000000E+00
  0.000000E+00
  0.000000E+00
  0.000000E+00
  0.000000E+00
  0.000000E+00
  0.000000E+00
  0.000000E+00
  0.000000E+00
  0.000000E+00
  0.000000E+00
  0.000000E+00
  0.000000E+00
  0.000000E+00
  0.000000E+00
  0.000000E+00
  0.000000E+00
  0.000000E+00
  0.000000E+00
  0.000000E+00
  0.000000E+00
  0.000000E+00
  0.000000E+00
  0.000000E+00
  0.000000E+00
  0.000000E+00
  0.000000E+00
  0.000000E+00
  0.000000E+00
  0.000000E+00
  0.000000E+00
  0.000000E+00
  0.000000E+00
  0.000000E+00
  0.000000E+00
  0.000000E+00
  0.000000E+00
  0.000000E+00
  0.000000E+00
  0.000000E+00
  0.000000E+00
  0.000000E+00
  0.000000E+00
  0.000000E+00
  0.000000E+00
  0.000000E+00
  0.000000E+00
  0.000000E+00
  0.000000E+00
  0.000000E+00
  0.000000E+00
  0.000000E+00
  0.000000E+00
  0.000000E+00
  0.000000E+00
  0.000000E+00
  0.000000E+00
  0.000000E+00
  0.000000E+00
  0.000000E+00
  0.000000E+00
  0.000000E+00
  0.000000E+00
  0.000000E+00
  0.000000E+00
  0.000000E+00
  0.000000E+00
  0.000000E+00
  0.000000E+00
  0.000000E+00
  0.000000E+00
  0.000000E+00
  0.000000E+00
  0.000000E+00
  0.000000E+00
  0.000000E+00
  0.000000E+00
  0.000000E+00
  0.000000E+00
  0.000000E+00
  0.000000E+00
  0.000000E+00
  0.000000E+00
  0.000000E+00
  0.000000E+00
  1.000000E-08
  1.690972E-02
  3.381945E-02
  5.072917E-02
  6.763890E-02
  8.454862E-02
  1.014583E-01
  1.183681E-01
  1.352778E-01
  1.521875E-01
  1.690972E-01
  1.860070E-01
  2.029167E-01
  2.198264E-01
  2.367361E-01
  2.536459E-01
  2.705556E-01
  2.874653E-01
  3.043750E-01
  3.212848E-01
  3.381945E-01
  3.551042E-01
  3.720139E-01
  3.889237E-01
  4.058334E-01
  4.227431E-01
  4.396528E-01
  4.565626E-01
  4.734723E-01
  4.903820E-01
  5.072917E-01
  5.242015E-01
  5.411112E-01
  5.580209E-01
  5.749306E-01
  5.918404E-01
  6.087501E-01
  6.256598E-01
  6.425695E-01
  6.594792E-01
  6.763890E-01
  6.932987E-01
  7.102084E-01
  7.271181E-01
  7.440279E-01
  7.609376E-01
  7.778473E-01
  7.947570E-01
  8.116668E-01
  8.285765E-01
  8.454862E-01
  8.623959E-01
  8.793057E-01
  8.962154E-01
  9.131251E-01
  9.300348E-01
  9.469446E-01
  9.638543E-01
  9.807640E-01
  9.976737E-01
  1.014583E+00
  1.031493E+00
  1.048403E+00
  1.065313E+00
  1.082222E+00
  1.099132E+00
  1.116042E+00
  1.132952E+00
  1.149861E+00
  1.166771E+00
  1.183681E+00
  1.200590E+00
  1.217500E+00
  1.234410E+00
  1.251320E+00
  1.268229E+00
  1.285139E+00
  1.302049E+00
  1.318958E+00
  1.335868E+00
  1.352778E+00
  1.369688E+00
  1.386597E+00
  1.403507E+00
  1.420417E+00
  1.437327E+00
  1.454236E+00
  1.471146E+00
  1.488056E+00
  1.504965E+00
  1.521875E+00
  1.538785E+00
  1.555695E+00
  1.572604E+00
  1.589514E+00
  1.606424E+00
  1.623334E+00
  1.640243E+00
  1.657153E+00
  1.674063E+00
  1.690972E+00
  1.707882E+00
  1.724792E+00
  1.741702E+00
  1.758611E+00
  1.775521E+00
  1.792431E+00
  1.809341E+00
  1.826250E+00
  1.843160E+00
  1.860070E+00
  1.876979E+00
  1.893889E+00
  1.910799E+00
  1.927709E+00
  1.944618E+00
  1.961528E+00
  1.978438E+00
  1.995347E+00
  2.012257E+00
  2.029167E+00
  2.046077E+00
  2.062986E+00
  2.079896E+00
  2.096806E+00
  2.113716E+00
  2.130625E+00
  2.147535E+00
  2.164445E+00
  2.181354E+00
  2.198264E+00
  2.215174E+00
  2.232084E+00
  2.248993E+00
  2.265903E+00
  2.282813E+00
  2.299723E+00
  2.316632E+00
  2.333542E+00
  2.350452E+00
  2.367361E+00
  2.384271E+00
  2.401181E+00
  2.418091E+00
  2.435000E+00
  2.451910E+00
  2.468820E+00
  2.485729E+00
  2.502639E+00
  2.519549E+00
  1.137301E+04
  1.137125E+04
  1.136949E+04
  1.136773E+04
  1.136597E+04
  1.136421E+04
  1.136245E+04
  1.136069E+04
  1.135893E+04
  1.135388E+04
  1.134868E+04
  1.134348E+04
  1.133827E+04
  1.133307E+04
  1.132787E+04
  1.132266E+04
  1.131647E+04
  1.130814E+04
  1.129980E+04
  1.129146E+04
  1.128312E+04
  1.127478E+04
  1.126644E+04
  1.125792E+04
  1.124631E+04
  1.123469E+04
  1.122307E+04
  1.121146E+04
  1.119984E+04
  1.118822E+04
  1.117603E+04
  1.116082E+04
  1.114560E+04
  1.113038E+04
  1.111516E+04
  1.109994E+04
  1.108472E+04
  1.106713E+04
  1.104801E+04
  1.102889E+04
  1.100977E+04
  1.099065E+04
  1.097153E+04
  1.095079E+04
  1.092741E+04
  1.090404E+04
  1.088066E+04
  1.085729E+04
  1.083392E+04
  1.080828E+04
  1.078009E+04
  1.075190E+04
  1.072371E+04
  1.069552E+04
  1.066733E+04
  1.063435E+04
  1.060056E+04
  1.056676E+04
  1.053297E+04
  1.049918E+04
  1.046199E+04
  1.042162E+04
  1.038125E+04
  1.034088E+04
  1.030052E+04
  1.025670E+04
  1.020860E+04
  1.016050E+04
  1.011241E+04
  1.006432E+04
  1.001062E+04
  9.953658E+03
  9.896701E+03
  9.839754E+03
  9.782303E+03
  9.716217E+03
  9.650150E+03
  9.584103E+03
  9.518074E+03
  9.446597E+03
  9.372912E+03
  9.299260E+03
  9.225640E+03
  9.148925E+03
  9.069987E+03
  8.991091E+03
  8.912234E+03
  8.831368E+03
  8.749476E+03
  8.667626E+03
  8.585816E+03
  8.503317E+03
  8.420801E+03
  8.338320E+03
  8.256181E+03
  8.174548E+03
  8.092942E+03
  8.011395E+03
  7.931033E+03
  7.850687E+03
  7.770357E+03
  7.691113E+03
  7.612096E+03
  7.533089E+03
  7.455257E+03
  7.377730E+03
  7.300210E+03
  7.223727E+03
  7.147349E+03
  7.071065E+03
  6.995212E+03
  6.919364E+03
  6.843491E+03
  6.767601E+03
  6.691656E+03
  6.615183E+03
  6.538714E+03
  6.461391E+03
  6.383789E+03
  6.305321E+03
  6.226052E+03
  6.145944E+03
  6.064573E+03
  5.982244E+03
  5.898392E+03
  5.813236E+03
  5.726627E+03
  5.638129E+03
  5.548638E+03
  5.456456E+03
  5.363238E+03
  5.267983E+03
  5.170656E+03
  5.071849E+03
  4.970910E+03
  4.867558E+03
  4.762356E+03
  4.655255E+03
  4.546411E+03
  4.437040E+03
  4.331795E+03
  4.239850E+03
  4.175556E+03
  4.163105E+03
  4.258064E+03
  4.420563E+03
  4.202413E+03
  4.432410E+03
  1.153369E+03
  2.367118E-03
  6.692493E+02
  6.691984E+02
  6.691475E+02
  6.690966E+02
  6.690456E+02
  6.689947E+02
  6.689438E+02
  6.688929E+02
  6.688419E+02
  6.687513E+02
  6.686589E+02
  6.685664E+02
  6.684740E+02
  6.683816E+02
  6.682891E+02
  6.681967E+02
  6.681124E+02
  6.680457E+02
  6.679790E+02
  6.679123E+02
  6.678456E+02
  6.677789E+02
  6.677122E+02
  6.676430E+02
  6.675309E+02
  6.674189E+02
  6.673068E+02
  6.671947E+02
  6.670827E+02
  6.669706E+02
  6.668322E+02
  6.665548E+02
  6.662774E+02
  6.660000E+02
  6.657225E+02
  6.654451E+02
  6.651676E+02
  6.647300E+02
  6.641887E+02
  6.636474E+02
  6.631061E+02
  6.625648E+02
  6.620235E+02
  6.613385E+02
  6.604223E+02
  6.595061E+02
  6.585898E+02
  6.576735E+02
  6.567572E+02
  6.556028E+02
  6.541803E+02
  6.527577E+02
  6.513351E+02
  6.499125E+02
  6.484898E+02
  6.465072E+02
  6.444282E+02
  6.423491E+02
  6.402699E+02
  6.381907E+02
  6.356945E+02
  6.328084E+02
  6.299224E+02
  6.270364E+02
  6.241506E+02
  6.208562E+02
  6.170575E+02
  6.132598E+02
  6.094630E+02
  6.056672E+02
  6.012505E+02
  5.964738E+02
  5.917008E+02
  5.869316E+02
  5.821152E+02
  5.764468E+02
  5.707883E+02
  5.651396E+02
  5.595007E+02
  5.535912E+02
  5.475836E+02
  5.415940E+02
  5.356222E+02
  5.297731E+02
  5.240223E+02
  5.182948E+02
  5.125904E+02
  5.071635E+02
  5.018933E+02
  4.966471E+02
  4.914249E+02
  4.865789E+02
  4.817802E+02
  4.770025E+02
  4.723361E+02
  4.678277E+02
  4.633347E+02
  4.588548E+02
  4.543023E+02
  4.497590E+02
  4.452251E+02
  4.404897E+02
  4.357167E+02
  4.309482E+02
  4.261592E+02
  4.213654E+02
  4.165729E+02
  4.119972E+02
  4.074413E+02
  4.029528E+02
  3.987861E+02
  3.946174E+02
  3.907301E+02
  3.870524E+02
  3.834274E+02
  3.802991E+02
  3.771676E+02
  3.744537E+02
  3.718758E+02
  3.695819E+02
  3.675501E+02
  3.657317E+02
  3.642357E+02
  3.629401E+02
  3.619655E+02
  3.612326E+02
  3.607702E+02
  3.606497E+02
  3.607112E+02
  3.612875E+02
  3.620824E+02
  3.633123E+02
  3.650437E+02
  3.671619E+02
  3.698713E+02
  3.733525E+02
  3.775410E+02
  3.826134E+02
  3.888309E+02
  3.969785E+02
  4.080413E+02
  4.240695E+02
  4.483837E+02
  4.864400E+02
  5.487080E+02
  6.319245E+02
  6.726984E+02
  7.823456E+02
  3.282686E+02
  5.985215E-04
  2.011187E+03
  2.010961E+03
  2.010736E+03
  2.010511E+03
  2.010286E+03
  2.010061E+03
  2.009835E+03
  2.009610E+03
  2.009385E+03
  2.008790E+03
  2.008179E+03
  2.007567E+03
  2.006956E+03
  2.006344E+03
  2.005733E+03
  2.005121E+03
  2.004409E+03
  2.003477E+03
  2.002545E+03
  2.001613E+03
  2.000681E+03
  1.999750E+03
  1.998818E+03
  1.997861E+03
  1.996482E+03
  1.995103E+03
  1.993724E+03
  1.992345E+03
  1.990966E+03
  1.989587E+03
  1.988107E+03
  1.986094E+03
  1.984080E+03
  1.982066E+03
  1.980053E+03
  1.978039E+03
  1.976026E+03
  1.973515E+03
  1.970682E+03
  1.967850E+03
  1.965018E+03
  1.962185E+03
  1.959353E+03
  1.956120E+03
  1.952242E+03
  1.948365E+03
  1.944488E+03
  1.940610E+03
  1.936733E+03
  1.932229E+03
  1.927020E+03
  1.921811E+03
  1.916602E+03
  1.911393E+03
  1.906184E+03
  1.899423E+03
  1.892394E+03
  1.885365E+03
  1.878337E+03
  1.871309E+03
  1.862890E+03
  1.853170E+03
  1.843450E+03
  1.833731E+03
  1.824013E+03
  1.812582E+03
  1.799034E+03
  1.785489E+03
  1.771945E+03
  1.758403E+03
  1.741660E+03
  1.723049E+03
  1.704444E+03
  1.685844E+03
  1.666913E+03
  1.642311E+03
  1.617785E+03
  1.593209E+03
  1.568645E+03
  1.540217E+03
  1.510223E+03
  1.480253E+03
  1.450306E+03
  1.418441E+03
  1.385202E+03
  1.351994E+03
  1.318817E+03
  1.285005E+03
  1.250879E+03
  1.216785E+03
  1.182724E+03
  1.149627E+03
  1.116629E+03
  1.083660E+03
  1.051835E+03
  1.021774E+03
  9.917336E+02
  9.618281E+02
  9.359628E+02
  9.101103E+02
  8.842703E+02
  8.620242E+02
  8.405060E+02
  8.189944E+02
  8.004645E+02
  7.826953E+02
  7.649293E+02
  7.499610E+02
  7.352585E+02
  7.209826E+02
  7.087218E+02
  6.964616E+02
  6.852619E+02
  6.748561E+02
  6.645818E+02
  6.554956E+02
  6.464094E+02
  6.379420E+02
  6.296799E+02
  6.216647E+02
  6.138779E+02
  6.062374E+02
  5.988169E+02
  5.915319E+02
  5.844626E+02
  5.775622E+02
  5.708501E+02
  5.644373E+02
  5.581817E+02
  5.525303E+02
  5.471837E+02
  5.424727E+02
  5.386101E+02
  5.354213E+02
  5.333111E+02
  5.326727E+02
  5.334008E+02
  5.358801E+02
  5.407130E+02
  5.499171E+02
  5.664960E+02
  5.966559E+02
  6.507199E+02
  7.441561E+02
  9.009187E+02
  1.107211E+03
  1.193226E+03
  1.293493E+03
 -9.895033E+01
  2.998992E-09
  1.287229E+00
  1.287030E+00
  1.286831E+00
  1.286632E+00
  1.286433E+00
  1.286233E+00
  1.286034E+00
  1.285835E+00
  1.285636E+00
  1.285064E+00
  1.284475E+00
  1.283886E+00
  1.283297E+00
  1.282709E+00
  1.282120E+00
  1.281531E+00
  1.280830E+00
  1.279887E+00
  1.278943E+00
  1.277999E+00
  1.277055E+00
  1.276112E+00
  1.275168E+00
  1.274203E+00
  1.272889E+00
  1.271574E+00
  1.270259E+00
  1.268944E+00
  1.267629E+00
  1.266315E+00
  1.264935E+00
  1.263212E+00
  1.261490E+00
  1.259767E+00
  1.258045E+00
  1.256322E+00
  1.254600E+00
  1.252609E+00
  1.250445E+00
  1.248281E+00
  1.246117E+00
  1.243953E+00
  1.241789E+00
  1.239441E+00
  1.236795E+00
  1.234150E+00
  1.231504E+00
  1.228859E+00
  1.226213E+00
  1.223311E+00
  1.220121E+00
  1.216930E+00
  1.213739E+00
  1.210549E+00
  1.207358E+00
  1.203626E+00
  1.199801E+00
  1.195976E+00
  1.192151E+00
  1.188326E+00
  1.184117E+00
  1.179548E+00
  1.174979E+00
  1.170410E+00
  1.165842E+00
  1.160882E+00
  1.155438E+00
  1.149994E+00
  1.144551E+00
  1.139108E+00
  1.133030E+00
  1.126583E+00
  1.120136E+00
  1.113691E+00
  1.107188E+00
  1.099709E+00
  1.092231E+00
  1.084756E+00
  1.077282E+00
  1.069192E+00
  1.060852E+00
  1.052516E+00
  1.044184E+00
  1.035501E+00
  1.026567E+00
  1.017637E+00
  1.008712E+00
  9.995590E-01
  9.902902E-01
  9.810262E-01
  9.717667E-01
  9.624293E-01
  9.530898E-01
  9.437545E-01
  9.344577E-01
  9.252183E-01
  9.159819E-01
  9.067522E-01
  8.976565E-01
  8.885627E-01
  8.794708E-01
  8.705018E-01
  8.615584E-01
  8.526161E-01
  8.438069E-01
  8.350321E-01
  8.262582E-01
  8.176017E-01
  8.089570E-01
  8.003230E-01
  7.917377E-01
  7.831530E-01
  7.745655E-01
  7.659760E-01
  7.573804E-01
  7.487249E-01
  7.400700E-01
  7.313184E-01
  7.225351E-01
  7.136539E-01
  7.046821E-01
  6.956152E-01
  6.864053E-01
  6.770872E-01
  6.675966E-01
  6.579584E-01
  6.481557E-01
  6.381393E-01
  6.280104E-01
  6.175770E-01
  6.070263E-01
  5.962451E-01
  5.852294E-01
  5.740461E-01
  5.626215E-01
  5.509238E-01
  5.390168E-01
  5.268948E-01
  5.145756E-01
  5.021966E-01
  4.902847E-01
  4.798781E-01
  4.726011E-01
  4.711918E-01
  4.819396E-01
  5.003318E-01
  4.756409E-01
  5.016726E-01
  1.305416E-01
  2.679170E-07
  1.223190E+00
  1.223097E+00
  1.223004E+00
  1.222911E+00
  1.222818E+00
  1.222725E+00
  1.222632E+00
  1.222539E+00
  1.222446E+00
  1.222280E+00
  1.222111E+00
  1.221942E+00
  1.221773E+00
  1.221604E+00
  1.221435E+00
  1.221266E+00
  1.221112E+00
  1.220990E+00
  1.220868E+00
  1.220747E+00
  1.220625E+00
  1.220503E+00
  1.220381E+00
  1.220254E+00
  1.220050E+00
  1.219845E+00
  1.219640E+00
  1.219435E+00
  1.219230E+00
  1.219025E+00
  1.218773E+00
  1.218266E+00
  1.217759E+00
  1.217251E+00
  1.216744E+00
  1.216237E+00
  1.215730E+00
  1.214930E+00
  1.213941E+00
  1.212952E+00
  1.211962E+00
  1.210973E+00
  1.209984E+00
  1.208732E+00
  1.207057E+00
  1.205383E+00
  1.203708E+00
  1.202033E+00
  1.200358E+00
  1.198248E+00
  1.195649E+00
  1.193049E+00
  1.190449E+00
  1.187848E+00
  1.185248E+00
  1.181624E+00
  1.177825E+00
  1.174025E+00
  1.170225E+00
  1.166424E+00
  1.161862E+00
  1.156587E+00
  1.151312E+00
  1.146038E+00
  1.140763E+00
  1.134742E+00
  1.127799E+00
  1.120858E+00
  1.113919E+00
  1.106981E+00
  1.098909E+00
  1.090178E+00
  1.081455E+00
  1.072738E+00
  1.063935E+00
  1.053575E+00
  1.043233E+00
  1.032909E+00
  1.022602E+00
  1.011801E+00
  1.000821E+00
  9.898740E-01
  9.789593E-01
  9.682690E-01
  9.577582E-01
  9.472900E-01
  9.368640E-01
  9.269453E-01
  9.173128E-01
  9.077244E-01
  8.981798E-01
  8.893227E-01
  8.805521E-01
  8.718199E-01
  8.632911E-01
  8.550510E-01
  8.468392E-01
  8.386513E-01
  8.303305E-01
  8.220268E-01
  8.137402E-01
  8.050852E-01
  7.963616E-01
  7.876462E-01
  7.788933E-01
  7.701317E-01
  7.613723E-01
  7.530094E-01
  7.446825E-01
  7.364788E-01
  7.288633E-01
  7.212441E-01
  7.141393E-01
  7.074177E-01
  7.007921E-01
  6.950745E-01
  6.893512E-01
  6.843908E-01
  6.796793E-01
  6.754867E-01
  6.717731E-01
  6.684496E-01
  6.657154E-01
  6.633474E-01
  6.615662E-01
  6.602265E-01
  6.593815E-01
  6.591613E-01
  6.592737E-01
  6.603269E-01
  6.617799E-01
  6.640278E-01
  6.671922E-01
  6.710637E-01
  6.760157E-01
  6.823782E-01
  6.900335E-01
  6.993044E-01
  7.106682E-01
  7.255595E-01
  7.457792E-01
  7.750739E-01
  8.195132E-01
  8.890689E-01
  1.002876E+00
  1.154972E+00
  1.229494E+00
  1.429897E+00
  5.999782E-01
  1.093921E-06
  1.434895E+00
  1.434734E+00
  1.434574E+00
  1.434413E+00
  1.434252E+00
  1.434092E+00
  1.433931E+00
  1.433770E+00
  1.433609E+00
  1.433185E+00
  1.432749E+00
  1.432313E+00
  1.431876E+00
  1.431440E+00
  1.431004E+00
  1.430568E+00
  1.430059E+00
  1.429395E+00
  1.428730E+00
  1.428065E+00
  1.427400E+00
  1.426735E+00
  1.426070E+00
  1.425388E+00
  1.424404E+00
  1.423420E+00
  1.422436E+00
  1.421452E+00
  1.420468E+00
  1.419485E+00
  1.418429E+00
  1.416992E+00
  1.415556E+00
  1.414119E+00
  1.412682E+00
  1.411246E+00
  1.409809E+00
  1.408018E+00
  1.405997E+00
  1.403976E+00
  1.401955E+00
  1.399935E+00
  1.397914E+00
  1.395607E+00
  1.392841E+00
  1.390074E+00
  1.387308E+00
  1.384542E+00
  1.381775E+00
  1.378562E+00
  1.374846E+00
  1.371129E+00
  1.367413E+00
  1.363696E+00
  1.359980E+00
  1.355156E+00
  1.350142E+00
  1.345127E+00
  1.340113E+00
  1.335098E+00
  1.329091E+00
  1.322157E+00
  1.315222E+00
  1.308288E+00
  1.301355E+00
  1.293199E+00
  1.283533E+00
  1.273869E+00
  1.264207E+00
  1.254545E+00
  1.242599E+00
  1.229321E+00
  1.216047E+00
  1.202777E+00
  1.189271E+00
  1.171718E+00
  1.154220E+00
  1.136686E+00
  1.119161E+00
  1.098878E+00
  1.077479E+00
  1.056097E+00
  1.034731E+00
  1.011996E+00
  9.882819E-01
  9.645896E-01
  9.409192E-01
  9.167954E-01
  8.924479E-01
  8.681238E-01
  8.438223E-01
  8.202095E-01
  7.966669E-01
  7.731447E-01
  7.504387E-01
  7.289914E-01
  7.075591E-01
  6.862229E-01
  6.677691E-01
  6.493245E-01
  6.308887E-01
  6.150171E-01
  5.996648E-01
  5.843172E-01
  5.710969E-01
  5.584193E-01
  5.457441E-01
  5.350648E-01
  5.245753E-01
  5.143900E-01
  5.056425E-01
  4.968953E-01
  4.889049E-01
  4.814807E-01
  4.741505E-01
  4.676679E-01
  4.611852E-01
  4.551441E-01
  4.492494E-01
  4.435310E-01
  4.379754E-01
  4.325243E-01
  4.272300E-01
  4.220325E-01
  4.169889E-01
  4.120658E-01
  4.072770E-01
  4.027017E-01
  3.982386E-01
  3.942065E-01
  3.903920E-01
  3.870309E-01
  3.842751E-01
  3.820000E-01
  3.804945E-01
  3.800390E-01
  3.805585E-01
  3.823274E-01
  3.857754E-01
  3.923421E-01
  4.041705E-01
  4.256883E-01
  4.642606E-01
  5.309233E-01
  6.427666E-01
  7.899475E-01
  8.513155E-01
  9.228514E-01
 -7.059679E-02
  2.139652E-12
  1.006974E+00
  1.006818E+00
  1.006663E+00
  1.006507E+00
  1.006351E+00
  1.006195E+00
  1.006039E+00
  1.005883E+00
  1.005728E+00
  1.005280E+00
  1.004820E+00
  1.004359E+00
  1.003898E+00
  1.003438E+00
  1.002977E+00
  1.002516E+00
  1.001968E+00
  1.001230E+00
  1.000492E+00
  9.997535E-01
  9.990152E-01
  9.982769E-01
  9.975386E-01
  9.967843E-01
  9.957557E-01
  9.947272E-01
  9.936986E-01
  9.926700E-01
  9.916415E-01
  9.906129E-01
  9.895337E-01
  9.881861E-01
  9.868386E-01
  9.854911E-01
  9.841435E-01
  9.827960E-01
  9.814485E-01
  9.798913E-01
  9.781984E-01
  9.765056E-01
  9.748127E-01
  9.731199E-01
  9.714271E-01
  9.695899E-01
  9.675204E-01
  9.654509E-01
  9.633814E-01
  9.613120E-01
  9.592425E-01
  9.569724E-01
  9.544763E-01
  9.519803E-01
  9.494843E-01
  9.469883E-01
  9.444924E-01
  9.415730E-01
  9.385807E-01
  9.355885E-01
  9.325964E-01
  9.296044E-01
  9.263114E-01
  9.227371E-01
  9.191630E-01
  9.155890E-01
  9.120152E-01
  9.081350E-01
  9.038761E-01
  8.996177E-01
  8.953596E-01
  8.911019E-01
  8.863477E-01
  8.813039E-01
  8.762610E-01
  8.712189E-01
  8.661322E-01
  8.602810E-01
  8.544314E-01
  8.485834E-01
  8.427371E-01
  8.364084E-01
  8.298841E-01
  8.233627E-01
  8.168441E-01
  8.100515E-01
  8.030620E-01
  7.960761E-01
  7.890938E-01
  7.819335E-01
  7.746824E-01
  7.674349E-01
  7.601910E-01
  7.528861E-01
  7.455797E-01
  7.382764E-01
  7.310034E-01
  7.237753E-01
  7.165496E-01
  7.093292E-01
  7.022138E-01
  6.950999E-01
  6.879874E-01
  6.809712E-01
  6.739751E-01
  6.669799E-01
  6.600889E-01
  6.532248E-01
  6.463614E-01
  6.395899E-01
  6.328276E-01
  6.260737E-01
  6.193578E-01
  6.126424E-01
  6.059248E-01
  5.992057E-01
  5.924818E-01
  5.857109E-01
  5.789405E-01
  5.720944E-01
  5.652236E-01
  5.582761E-01
  5.512577E-01
  5.441649E-01
  5.369603E-01
  5.296708E-01
  5.222465E-01
  5.147066E-01
  5.070380E-01
  4.992022E-01
  4.912783E-01
  4.831161E-01
  4.748621E-01
  4.664277E-01
  4.578097E-01
  4.490605E-01
  4.401224E-01
  4.309706E-01
  4.216549E-01
  4.121708E-01
  4.025324E-01
  3.928470E-01
  3.835269E-01
  3.753841E-01
  3.696893E-01
  3.685842E-01
  3.769884E-01
  3.913719E-01
  3.720544E-01
  3.924126E-01
  1.189538E-01
  4.195853E-02
  5.925579E-02
  5.925128E-02
  5.924677E-02
  5.924226E-02
  5.923775E-02
  5.923325E-02
  5.922874E-02
  5.922423E-02
  5.921972E-02
  5.921169E-02
  5.920351E-02
  5.919533E-02
  5.918714E-02
  5.917896E-02
  5.917077E-02
  5.916259E-02
  5.915512E-02
  5.914921E-02
  5.914331E-02
  5.913740E-02
  5.913150E-02
  5.912559E-02
  5.911969E-02
  5.911356E-02
  5.910364E-02
  5.909372E-02
  5.908379E-02
  5.907387E-02
  5.906395E-02
  5.905403E-02
  5.904178E-02
  5.901721E-02
  5.899265E-02
  5.896809E-02
  5.894352E-02
  5.891896E-02
  5.889439E-02
  5.885564E-02
  5.880772E-02
  5.875979E-02
  5.871187E-02
  5.866394E-02
  5.861601E-02
  5.855536E-02
  5.847424E-02
  5.839311E-02
  5.831199E-02
  5.823086E-02
  5.814973E-02
  5.804751E-02
  5.792157E-02
  5.779561E-02
  5.766966E-02
  5.754369E-02
  5.741773E-02
  5.724219E-02
  5.705811E-02
  5.687402E-02
  5.668993E-02
  5.650584E-02
  5.628482E-02
  5.602929E-02
  5.577376E-02
  5.551823E-02
  5.526272E-02
  5.497103E-02
  5.463470E-02
  5.429845E-02
  5.396228E-02
  5.362620E-02
  5.323514E-02
  5.281221E-02
  5.238961E-02
  5.196735E-02
  5.154090E-02
  5.103902E-02
  5.053801E-02
  5.003787E-02
  4.953860E-02
  4.901535E-02
  4.848343E-02
  4.795309E-02
  4.742433E-02
  4.690644E-02
  4.639725E-02
  4.589011E-02
  4.538502E-02
  4.490450E-02
  4.443784E-02
  4.397332E-02
  4.351092E-02
  4.308183E-02
  4.265693E-02
  4.223389E-02
  4.182070E-02
  4.142151E-02
  4.102369E-02
  4.062702E-02
  4.022393E-02
  3.982167E-02
  3.942023E-02
  3.900096E-02
  3.857836E-02
  3.815617E-02
  3.773216E-02
  3.730773E-02
  3.688341E-02
  3.647830E-02
  3.607493E-02
  3.567753E-02
  3.530862E-02
  3.493953E-02
  3.459536E-02
  3.426976E-02
  3.394880E-02
  3.367183E-02
  3.339458E-02
  3.315429E-02
  3.292606E-02
  3.272296E-02
  3.254306E-02
  3.238206E-02
  3.224961E-02
  3.213489E-02
  3.204860E-02
  3.198370E-02
  3.194275E-02
  3.193207E-02
  3.193750E-02
  3.198849E-02
  3.205885E-02
  3.216770E-02
  3.232095E-02
  3.250844E-02
  3.274826E-02
  3.305640E-02
  3.342715E-02
  3.387614E-02
  3.442650E-02
  3.514771E-02
  3.612701E-02
  3.754589E-02
  3.969834E-02
  4.306741E-02
  4.857996E-02
  5.594705E-02
  5.955636E-02
  6.926306E-02
  3.385627E-02
  1.060914E-02
  1.780718E-01
  1.780519E-01
  1.780319E-01
  1.780120E-01
  1.779921E-01
  1.779721E-01
  1.779522E-01
  1.779322E-01
  1.779123E-01
  1.778596E-01
  1.778055E-01
  1.777514E-01
  1.776972E-01
  1.776431E-01
  1.775889E-01
  1.775348E-01
  1.774717E-01
  1.773892E-01
  1.773067E-01
  1.772242E-01
  1.771417E-01
  1.770592E-01
  1.769767E-01
  1.768920E-01
  1.767699E-01
  1.766478E-01
  1.765257E-01
  1.764036E-01
  1.762815E-01
  1.761594E-01
  1.760283E-01
  1.758501E-01
  1.756718E-01
  1.754935E-01
  1.753152E-01
  1.751369E-01
  1.749586E-01
  1.747363E-01
  1.744856E-01
  1.742348E-01
  1.739840E-01
  1.737332E-01
  1.734824E-01
  1.731962E-01
  1.728529E-01
  1.725096E-01
  1.721663E-01
  1.718229E-01
  1.714796E-01
  1.710809E-01
  1.706197E-01
  1.701584E-01
  1.696972E-01
  1.692360E-01
  1.687748E-01
  1.681762E-01
  1.675538E-01
  1.669315E-01
  1.663092E-01
  1.656870E-01
  1.649415E-01
  1.640809E-01
  1.632203E-01
  1.623598E-01
  1.614993E-01
  1.604872E-01
  1.592877E-01
  1.580884E-01
  1.568893E-01
  1.556903E-01
  1.542078E-01
  1.525600E-01
  1.509127E-01
  1.492659E-01
  1.475897E-01
  1.454114E-01
  1.432399E-01
  1.410639E-01
  1.388890E-01
  1.363719E-01
  1.337162E-01
  1.310626E-01
  1.284110E-01
  1.255896E-01
  1.226466E-01
  1.197063E-01
  1.167688E-01
  1.137749E-01
  1.107533E-01
  1.077346E-01
  1.047187E-01
  1.017883E-01
  9.886662E-02
  9.594745E-02
  9.312959E-02
  9.046794E-02
  8.780816E-02
  8.516029E-02
  8.287016E-02
  8.058117E-02
  7.829329E-02
  7.632363E-02
  7.441842E-02
  7.251379E-02
  7.087317E-02
  6.929991E-02
  6.772692E-02
  6.640166E-02
  6.509993E-02
  6.383595E-02
  6.275040E-02
  6.166491E-02
  6.067331E-02
  5.975199E-02
  5.884232E-02
  5.803784E-02
  5.723336E-02
  5.648367E-02
  5.575214E-02
  5.504249E-02
  5.435304E-02
  5.367656E-02
  5.301954E-02
  5.237452E-02
  5.174860E-02
  5.113763E-02
  5.054332E-02
  4.997550E-02
  4.942160E-02
  4.892118E-02
  4.844775E-02
  4.803058E-02
  4.768851E-02
  4.740610E-02
  4.721916E-02
  4.716252E-02
  4.722685E-02
  4.744620E-02
  4.787391E-02
  4.868860E-02
  5.015621E-02
  5.282620E-02
  5.761249E-02
  6.588453E-02
  7.976300E-02
  9.802628E-02
  1.056405E-01
  1.145162E-01
 -1.020533E-02
  5.315887E-08
  1.007201E+00
  1.007045E+00
  1.006889E+00
  1.006733E+00
  1.006577E+00
  1.006422E+00
  1.006266E+00
  1.006110E+00
  1.005954E+00
  1.005507E+00
  1.005046E+00
  1.004586E+00
  1.004125E+00
  1.003664E+00
  1.003204E+00
  1.002743E+00
  1.002195E+00
  1.001457E+00
  1.000719E+00
  9.999808E-01
  9.992427E-01
  9.985045E-01
  9.977664E-01
  9.970122E-01
  9.959838E-01