 Title= "ADflow Lift Distribution Data"
Variables = "eta" "CoordinateX" "CoordinateY" "CoordinateZ" "Lift" "Drag" "Moment" "Normalized Lift" "Normalized Drag" "Normalized Moment" "CL" "CD" "CM" "CLp" "CDp" "CMp" "CLv" "CDv" "CMv" "Elliptical" "thickness" "twist" "chord" "fx" "fy" "fz" 
Zone T= "LiftDist_01 allWalls: : z normal"
 I=          150
 DATAPACKING=BLOCK
  0.000000E+00
  6.711405E-03
  1.342281E-02
  2.013422E-02
  2.684563E-02
  3.355704E-02
  4.026845E-02
  4.697986E-02
  5.369127E-02
  6.040268E-02
  6.711409E-02
  7.382550E-02
  8.053691E-02
  8.724832E-02
  9.395973E-02
  1.006711E-01
  1.073825E-01
  1.140940E-01
  1.208054E-01
  1.275168E-01
  1.342282E-01
  1.409396E-01
  1.476510E-01
  1.543624E-01
  1.610738E-01
  1.677852E-01
  1.744966E-01
  1.812081E-01
  1.879195E-01
  1.946309E-01
  2.013423E-01
  2.080537E-01
  2.147651E-01
  2.214765E-01
  2.281879E-01
  2.348993E-01
  2.416107E-01
  2.483221E-01
  2.550336E-01
  2.617450E-01
  2.684564E-01
  2.751678E-01
  2.818792E-01
  2.885906E-01
  2.953020E-01
  3.020134E-01
  3.087248E-01
  3.154362E-01
  3.221476E-01
  3.288591E-01
  3.355705E-01
  3.422819E-01
  3.489933E-01
  3.557047E-01
  3.624161E-01
  3.691275E-01
  3.758389E-01
  3.825503E-01
  3.892617E-01
  3.959732E-01
  4.026846E-01
  4.093960E-01
  4.161074E-01
  4.228188E-01
  4.295302E-01
  4.362416E-01
  4.429530E-01
  4.496644E-01
  4.563758E-01
  4.630872E-01
  4.697987E-01
  4.765101E-01
  4.832215E-01
  4.899329E-01
  4.966443E-01
  5.033557E-01
  5.100671E-01
  5.167785E-01
  5.234899E-01
  5.302013E-01
  5.369128E-01
  5.436242E-01
  5.503356E-01
  5.570470E-01
  5.637584E-01
  5.704698E-01
  5.771812E-01
  5.838926E-01
  5.906040E-01
  5.973154E-01
  6.040268E-01
  6.107383E-01
  6.174497E-01
  6.241611E-01
  6.308725E-01
  6.375839E-01
  6.442953E-01
  6.510067E-01
  6.577181E-01
  6.644295E-01
  6.711409E-01
  6.778524E-01
  6.845638E-01
  6.912752E-01
  6.979866E-01
  7.046980E-01
  7.114094E-01
  7.181208E-01
  7.248322E-01
  7.315436E-01
  7.382550E-01
  7.449664E-01
  7.516779E-01
  7.583893E-01
  7.651007E-01
  7.718121E-01
  7.785235E-01
  7.852349E-01
  7.919463E-01
  7.986577E-01
  8.053691E-01
  8.120805E-01
  8.187919E-01
  8.255034E-01
  8.322148E-01
  8.389262E-01
  8.456376E-01
  8.523490E-01
  8.590604E-01
  8.657718E-01
  8.724832E-01
  8.791946E-01
  8.859060E-01
  8.926175E-01
  8.993289E-01
  9.060403E-01
  9.127517E-01
  9.194631E-01
  9.261745E-01
  9.328859E-01
  9.395973E-01
  9.463087E-01
  9.530201E-01
  9.597315E-01
  9.664430E-01
  9.731544E-01
  9.798658E-01
  9.865772E-01
  9.932886E-01
  1.000000E+00
  0.000000E+00
  0.000000E+00
  0.000000E+00
  0.000000E+00
  0.000000E+00
  0.000000E+00
  0.000000E+00
  0.000000E+00
  0.000000E+00
  0.000000E+00
  0.000000E+00
  0.000000E+00
  0.000000E+00
  0.000000E+00
  0.000000E+00
  0.000000E+00
  0.000000E+00
  0.000000E+00
  0.000000E+00
  0.000000E+00
  0.000000E+00
  0.000000E+00
  0.000000E+00
  0.000000E+00
  0.000000E+00
  0.000000E+00
  0.000000E+00
  0.000000E+00
  0.000000E+00
  0.000000E+00
  0.000000E+00
  0.000000E+00
  0.000000E+00
  0.000000E+00
  0.000000E+00
  0.000000E+00
  0.000000E+00
  0.000000E+00
  0.000000E+00
  0.000000E+00
  0.000000E+00
  0.000000E+00
  0.000000E+00
  0.000000E+00
  0.000000E+00
  0.000000E+00
  0.000000E+00
  0.000000E+00
  0.000000E+00
  0.000000E+00
  0.000000E+00
  0.000000E+00
  0.000000E+00
  0.000000E+00
  0.000000E+00
  0.000000E+00
  0.000000E+00
  0.000000E+00
  0.000000E+00
  0.000000E+00
  0.000000E+00
  0.000000E+00
  0.000000E+00
  0.000000E+00
  0.000000E+00
  0.000000E+00
  0.000000E+00
  0.000000E+00
  0.000000E+00
  0.000000E+00
  0.000000E+00
  0.000000E+00
  0.000000E+00
  0.000000E+00
  0.000000E+00
  0.000000E+00
  0.000000E+00
  0.000000E+00
  0.000000E+00
  0.000000E+00
  0.000000E+00
  0.000000E+00
  0.000000E+00
  0.000000E+00
  0.000000E+00
  0.000000E+00
  0.000000E+00
  0.000000E+00
  0.000000E+00
  0.000000E+00
  0.000000E+00
  0.000000E+00
  0.000000E+00
  0.000000E+00
  0.000000E+00
  0.000000E+00
  0.000000E+00
  0.000000E+00
  0.000000E+00
  0.000000E+00
  0.000000E+00
  0.000000E+00
  0.000000E+00
  0.000000E+00
  0.000000E+00
  0.000000E+00
  0.000000E+00
  0.000000E+00
  0.000000E+00
  0.000000E+00
  0.000000E+00
  0.000000E+00
  0.000000E+00
  0.000000E+00
  0.000000E+00
  0.000000E+00
  0.000000E+00
  0.000000E+00
  0.000000E+00
  0.000000E+00
  0.000000E+00
  0.000000E+00
  0.000000E+00
  0.000000E+00
  0.000000E+00
  0.000000E+00
  0.000000E+00
  0.000000E+00
  0.000000E+00
  0.000000E+00
  0.000000E+00
  0.000000E+00
  0.000000E+00
  0.000000E+00
  0.000000E+00
  0.000000E+00
  0.000000E+00
  0.000000E+00
  0.000000E+00
  0.000000E+00
  0.000000E+00
  0.000000E+00
  0.000000E+00
  0.000000E+00
  0.000000E+00
  0.000000E+00
  0.000000E+00
  0.000000E+00
  0.000000E+00
  0.000000E+00
  0.000000E+00
  0.000000E+00
  0.000000E+00
  0.000000E+00
  0.000000E+00
  0.000000E+00
  0.000000E+00
  0.000000E+00
  0.000000E+00
  0.000000E+00
  0.000000E+00
  0.000000E+00
  0.000000E+00
  0.000000E+00
  0.000000E+00
  0.000000E+00
  0.000000E+00
  0.000000E+00
  0.000000E+00
  0.000000E+00
  0.000000E+00
  0.000000E+00
  0.000000E+00
  0.000000E+00
  0.000000E+00
  0.000000E+00
  0.000000E+00
  0.000000E+00
  0.000000E+00
  0.000000E+00
  0.000000E+00
  0.000000E+00
  0.000000E+00
  0.000000E+00
  0.000000E+00
  0.000000E+00
  0.000000E+00
  0.000000E+00
  0.000000E+00
  0.000000E+00
  0.000000E+00
  0.000000E+00
  0.000000E+00
  0.000000E+00
  0.000000E+00
  0.000000E+00
  0.000000E+00
  0.000000E+00
  0.000000E+00
  0.000000E+00
  0.000000E+00
  0.000000E+00
  0.000000E+00
  0.000000E+00
  0.000000E+00
  0.000000E+00
  0.000000E+00
  0.000000E+00
  0.000000E+00
  0.000000E+00
  0.000000E+00
  0.000000E+00
  0.000000E+00
  0.000000E+00
  0.000000E+00
  0.000000E+00
  0.000000E+00
  0.000000E+00
  0.000000E+00
  0.000000E+00
  0.000000E+00
  0.000000E+00
  0.000000E+00
  0.000000E+00
  0.000000E+00
  0.000000E+00
  0.000000E+00
  0.000000E+00
  0.000000E+00
  0.000000E+00
  0.000000E+00
  0.000000E+00
  0.000000E+00
  0.000000E+00
  0.000000E+00
  0.000000E+00
  0.000000E+00
  0.000000E+00
  0.000000E+00
  0.000000E+00
  0.000000E+00
  0.000000E+00
  0.000000E+00
  0.000000E+00
  0.000000E+00
  0.000000E+00
  0.000000E+00
  0.000000E+00
  0.000000E+00
  0.000000E+00
  0.000000E+00
  0.000000E+00
  0.000000E+00
  0.000000E+00
  0.000000E+00
  0.000000E+00
  0.000000E+00
  0.000000E+00
  0.000000E+00
  0.000000E+00
  0.000000E+00
  0.000000E+00
  0.000000E+00
  0.000000E+00
  0.000000E+00
  0.000000E+00
  0.000000E+00
  0.000000E+00
  0.000000E+00
  0.000000E+00
  0.000000E+00
  0.000000E+00
  0.000000E+00
  0.000000E+00
  0.000000E+00
  0.000000E+00
  0.000000E+00
  0.000000E+00
  0.000000E+00
  0.000000E+00
  0.000000E+00
  0.000000E+00
  0.000000E+00
  0.000000E+00
  0.000000E+00
  0.000000E+00
  0.000000E+00
  0.000000E+00
  0.000000E+00
  0.000000E+00
  0.000000E+00
  0.000000E+00
  0.000000E+00
  0.000000E+00
  0.000000E+00
  0.000000E+00
  0.000000E+00
  0.000000E+00
  0.000000E+00
  0.000000E+00
  1.000000E-08
  1.690972E-02
  3.381945E-02
  5.072917E-02
  6.763890E-02
  8.454862E-02
  1.014583E-01
  1.183681E-01
  1.352778E-01
  1.521875E-01
  1.690972E-01
  1.860070E-01
  2.029167E-01
  2.198264E-01
  2.367361E-01
  2.536459E-01
  2.705556E-01
  2.874653E-01
  3.043750E-01
  3.212848E-01
  3.381945E-01
  3.551042E-01
  3.720139E-01
  3.889237E-01
  4.058334E-01
  4.227431E-01
  4.396528E-01
  4.565626E-01
  4.734723E-01
  4.903820E-01
  5.072917E-01
  5.242015E-01
  5.411112E-01
  5.580209E-01
  5.749306E-01
  5.918404E-01
  6.087501E-01
  6.256598E-01
  6.425695E-01
  6.594792E-01
  6.763890E-01
  6.932987E-01
  7.102084E-01
  7.271181E-01
  7.440279E-01
  7.609376E-01
  7.778473E-01
  7.947570E-01
  8.116668E-01
  8.285765E-01
  8.454862E-01
  8.623959E-01
  8.793057E-01
  8.962154E-01
  9.131251E-01
  9.300348E-01
  9.469446E-01
  9.638543E-01
  9.807640E-01
  9.976737E-01
  1.014583E+00
  1.031493E+00
  1.048403E+00
  1.065313E+00
  1.082222E+00
  1.099132E+00
  1.116042E+00
  1.132952E+00
  1.149861E+00
  1.166771E+00
  1.183681E+00
  1.200590E+00
  1.217500E+00
  1.234410E+00
  1.251320E+00
  1.268229E+00
  1.285139E+00
  1.302049E+00
  1.318958E+00
  1.335868E+00
  1.352778E+00
  1.369688E+00
  1.386597E+00
  1.403507E+00
  1.420417E+00
  1.437327E+00
  1.454236E+00
  1.471146E+00
  1.488056E+00
  1.504965E+00
  1.521875E+00
  1.538785E+00
  1.555695E+00
  1.572604E+00
  1.589514E+00
  1.606424E+00
  1.623334E+00
  1.640243E+00
  1.657153E+00
  1.674063E+00
  1.690972E+00
  1.707882E+00
  1.724792E+00
  1.741702E+00
  1.758611E+00
  1.775521E+00
  1.792431E+00
  1.809341E+00
  1.826250E+00
  1.843160E+00
  1.860070E+00
  1.876979E+00
  1.893889E+00
  1.910799E+00
  1.927709E+00
  1.944618E+00
  1.961528E+00
  1.978438E+00
  1.995347E+00
  2.012257E+00
  2.029167E+00
  2.046077E+00
  2.062986E+00
  2.079896E+00
  2.096806E+00
  2.113716E+00
  2.130625E+00
  2.147535E+00
  2.164445E+00
  2.181354E+00
  2.198264E+00
  2.215174E+00
  2.232084E+00
  2.248993E+00
  2.265903E+00
  2.282813E+00
  2.299723E+00
  2.316632E+00
  2.333542E+00
  2.350452E+00
  2.367361E+00
  2.384271E+00
  2.401181E+00
  2.418091E+00
  2.435000E+00
  2.451910E+00
  2.468820E+00
  2.485729E+00
  2.502639E+00
  2.519549E+00
  1.093864E+04
  1.093709E+04
  1.093555E+04
  1.093401E+04
  1.093247E+04
  1.093092E+04
  1.092938E+04
  1.092784E+04
  1.092630E+04
  1.092216E+04
  1.091790E+04
  1.091365E+04
  1.090939E+04
  1.090513E+04
  1.090088E+04
  1.089662E+04
  1.089162E+04
  1.088500E+04
  1.087837E+04
  1.087175E+04
  1.086512E+04
  1.085850E+04
  1.085188E+04
  1.084510E+04
  1.083565E+04
  1.082621E+04
  1.081677E+04
  1.080732E+04
  1.079788E+04
  1.078843E+04
  1.077849E+04
  1.076593E+04
  1.075336E+04
  1.074080E+04
  1.072823E+04
  1.071567E+04
  1.070310E+04
  1.068857E+04
  1.067277E+04
  1.065697E+04
  1.064117E+04
  1.062537E+04
  1.060957E+04
  1.059251E+04
  1.057341E+04
  1.055432E+04
  1.053522E+04
  1.051613E+04
  1.049703E+04
  1.047635E+04
  1.045389E+04
  1.043143E+04
  1.040897E+04
  1.038650E+04
  1.036404E+04
  1.033868E+04
  1.031281E+04
  1.028695E+04
  1.026108E+04
  1.023522E+04
  1.020764E+04
  1.017845E+04
  1.014926E+04
  1.012008E+04
  1.009089E+04
  1.006026E+04
  1.002784E+04
  9.995416E+03
  9.962995E+03
  9.930574E+03
  9.896097E+03
  9.860417E+03
  9.824739E+03
  9.789061E+03
  9.753196E+03
  9.714159E+03
  9.675122E+03
  9.636086E+03
  9.597051E+03
  9.555533E+03
  9.513000E+03
  9.470467E+03
  9.427936E+03
  9.383292E+03
  9.337121E+03
  9.290952E+03
  9.244786E+03
  9.196178E+03
  9.146300E+03
  9.096427E+03
  9.046557E+03
  8.993177E+03
  8.939544E+03
  8.885919E+03
  8.830746E+03
  8.773164E+03
  8.715598E+03
  8.657932E+03
  8.596234E+03
  8.534567E+03
  8.472932E+03
  8.407963E+03
  8.342363E+03
  8.276810E+03
  8.207990E+03
  8.138383E+03
  8.068831E+03
  7.995110E+03
  7.921047E+03
  7.846177E+03
  7.767272E+03
  7.688420E+03
  7.606747E+03
  7.522971E+03
  7.438748E+03
  7.350123E+03
  7.261537E+03
  7.169462E+03
  7.076250E+03
  6.980809E+03
  6.883309E+03
  6.784198E+03
  6.682654E+03
  6.579628E+03
  6.474232E+03
  6.367170E+03
  6.258249E+03
  6.147244E+03
  6.035154E+03
  5.920416E+03
  5.804755E+03
  5.687298E+03
  5.568174E+03
  5.447889E+03
  5.325962E+03
  5.202109E+03
  5.076659E+03
  4.949434E+03
  4.820350E+03
  4.690124E+03
  4.563174E+03
  4.448801E+03
  4.362361E+03
  4.330800E+03
  4.413820E+03
  4.577297E+03
  4.371877E+03
  4.571603E+03
  1.310005E+03
  2.270641E-03
  5.975929E+02
  5.974978E+02
  5.974027E+02
  5.973076E+02
  5.972125E+02
  5.971175E+02
  5.970224E+02
  5.969273E+02
  5.968323E+02
  5.967129E+02
  5.965924E+02
  5.964719E+02
  5.963514E+02
  5.962309E+02
  5.961105E+02
  5.959900E+02
  5.959108E+02
  5.959216E+02
  5.959323E+02
  5.959430E+02
  5.959538E+02
  5.959645E+02
  5.959752E+02
  5.959886E+02
  5.960475E+02
  5.961064E+02
  5.961652E+02
  5.962241E+02
  5.962829E+02
  5.963418E+02
  5.963987E+02
  5.964448E+02
  5.964909E+02
  5.965371E+02
  5.965832E+02
  5.966294E+02
  5.966756E+02
  5.967152E+02
  5.967508E+02
  5.967863E+02
  5.968219E+02
  5.968575E+02
  5.968932E+02
  5.969331E+02
  5.969798E+02
  5.970266E+02
  5.970736E+02
  5.971205E+02
  5.971676E+02
  5.972146E+02
  5.972616E+02
  5.973088E+02
  5.973561E+02
  5.974035E+02
  5.974510E+02
  5.974522E+02
  5.974456E+02
  5.974391E+02
  5.974328E+02
  5.974266E+02
  5.973599E+02
  5.972365E+02
  5.971133E+02
  5.969903E+02
  5.968674E+02
  5.966487E+02
  5.963116E+02
  5.959745E+02
  5.956375E+02
  5.953006E+02
  5.947434E+02
  5.940575E+02
  5.933714E+02
  5.926852E+02
  5.919740E+02
  5.908425E+02
  5.897106E+02
  5.885784E+02
  5.874459E+02
  5.859496E+02
  5.843041E+02
  5.826581E+02
  5.810117E+02
  5.790329E+02
  5.768136E+02
  5.745938E+02
  5.723736E+02
  5.697868E+02
  5.670091E+02
  5.642312E+02
  5.614531E+02
  5.582016E+02
  5.549157E+02
  5.516306E+02
  5.481141E+02
  5.442382E+02
  5.403651E+02
  5.364770E+02
  5.319563E+02
  5.274423E+02
  5.229347E+02
  5.180918E+02
  5.131897E+02
  5.082969E+02
  5.033513E+02
  4.984001E+02
  4.934588E+02
  4.886405E+02
  4.838418E+02
  4.790979E+02
  4.745812E+02
  4.700710E+02
  4.657880E+02
  4.616752E+02
  4.576123E+02
  4.539667E+02
  4.503233E+02
  4.470404E+02
  4.438773E+02
  4.409617E+02
  4.382744E+02
  4.357450E+02
  4.334522E+02
  4.312530E+02
  4.292030E+02
  4.272250E+02
  4.253277E+02
  4.235223E+02
  4.217662E+02
  4.201805E+02
  4.186883E+02
  4.173912E+02
  4.163862E+02
  4.156297E+02
  4.152881E+02
  4.155582E+02
  4.164185E+02
  4.180379E+02
  4.206668E+02
  4.250636E+02
  4.322489E+02
  4.443322E+02
  4.648025E+02
  4.995983E+02
  5.603205E+02
  6.459732E+02
  6.924627E+02
  8.045997E+02
  3.480049E+02
  5.099971E-04
  1.928305E+03
  1.928150E+03
  1.927996E+03
  1.927841E+03
  1.927686E+03
  1.927532E+03
  1.927377E+03
  1.927223E+03
  1.927068E+03
  1.926691E+03
  1.926304E+03
  1.925917E+03
  1.925530E+03
  1.925143E+03
  1.924756E+03
  1.924369E+03
  1.923882E+03
  1.923177E+03
  1.922472E+03
  1.921766E+03
  1.921061E+03
  1.920356E+03
  1.919651E+03
  1.918911E+03
  1.917590E+03
  1.916268E+03
  1.914947E+03
  1.913625E+03
  1.912304E+03
  1.910983E+03
  1.909534E+03
  1.907414E+03
  1.905294E+03
  1.903174E+03
  1.901054E+03
  1.898934E+03
  1.896814E+03
  1.894159E+03
  1.891159E+03
  1.888158E+03
  1.885158E+03
  1.882157E+03
  1.879157E+03
  1.875807E+03
  1.871896E+03
  1.867985E+03
  1.864074E+03
  1.860163E+03
  1.856253E+03
  1.851928E+03
  1.847138E+03
  1.842348E+03
  1.837558E+03
  1.832769E+03
  1.827979E+03
  1.822555E+03
  1.817022E+03
  1.811489E+03
  1.805956E+03
  1.800423E+03
  1.794636E+03
  1.788609E+03
  1.782583E+03
  1.776556E+03
  1.770530E+03
  1.764391E+03
  1.758112E+03
  1.751833E+03
  1.745554E+03
  1.739276E+03
  1.732979E+03
  1.726671E+03
  1.720363E+03
  1.714055E+03
  1.707761E+03
  1.701705E+03
  1.695648E+03
  1.689591E+03
  1.683535E+03
  1.677689E+03
  1.671931E+03
  1.666172E+03
  1.660414E+03
  1.654616E+03
  1.648789E+03
  1.642963E+03
  1.637137E+03
  1.631048E+03
  1.624823E+03
  1.618600E+03
  1.612377E+03
  1.605648E+03
  1.598885E+03
  1.592123E+03
  1.584986E+03
  1.577264E+03
  1.569548E+03
  1.561792E+03
  1.552504E+03
  1.543226E+03
  1.533959E+03
  1.523232E+03
  1.512200E+03
  1.501211E+03
  1.488813E+03
  1.476072E+03
  1.463352E+03
  1.448751E+03
  1.433991E+03
  1.418846E+03
  1.401791E+03
  1.384756E+03
  1.366406E+03
  1.347073E+03
  1.327539E+03
  1.306063E+03
  1.284599E+03
  1.261692E+03
  1.238311E+03
  1.214140E+03
  1.189238E+03
  1.163952E+03
  1.138089E+03
  1.112071E+03
  1.085807E+03
  1.059593E+03
  1.033434E+03
  1.007662E+03
  9.820963E+02
  9.575320E+02
  9.334857E+02
  9.105335E+02
  8.890105E+02
  8.685904E+02
  8.498886E+02
  8.333254E+02
  8.185483E+02
  8.058672E+02
  7.957188E+02
  7.897760E+02
  7.907439E+02
  8.047448E+02
  8.424073E+02
  9.203634E+02
  1.064801E+03
  1.262631E+03
  1.333975E+03
  1.408430E+03
 -8.101222E+01
  2.850313E-09
  1.229420E+00
  1.229247E+00
  1.229074E+00
  1.228900E+00
  1.228727E+00
  1.228554E+00
  1.228380E+00
  1.228207E+00
  1.228033E+00
  1.227568E+00
  1.227090E+00
  1.226612E+00
  1.226133E+00
  1.225655E+00
  1.225177E+00
  1.224698E+00
  1.224136E+00
  1.223392E+00
  1.222647E+00
  1.221903E+00
  1.221158E+00
  1.220414E+00
  1.219669E+00
  1.218907E+00
  1.217846E+00
  1.216785E+00
  1.215723E+00
  1.214662E+00
  1.213600E+00
  1.212539E+00
  1.211422E+00
  1.210010E+00
  1.208597E+00
  1.207185E+00
  1.205773E+00
  1.204361E+00
  1.202948E+00
  1.201315E+00
  1.199540E+00
  1.197764E+00
  1.195988E+00
  1.194212E+00
  1.192436E+00
  1.190519E+00
  1.188372E+00
  1.186226E+00
  1.184080E+00
  1.181934E+00
  1.179788E+00
  1.177463E+00
  1.174939E+00
  1.172414E+00
  1.169889E+00
  1.167365E+00
  1.164840E+00
  1.161989E+00
  1.159082E+00
  1.156175E+00
  1.153268E+00
  1.150362E+00
  1.147262E+00
  1.143981E+00
  1.140701E+00
  1.137421E+00
  1.134141E+00
  1.130698E+00
  1.127054E+00
  1.123410E+00
  1.119766E+00
  1.116122E+00
  1.112247E+00
  1.108237E+00
  1.104227E+00
  1.100217E+00
  1.096186E+00
  1.091798E+00
  1.087411E+00
  1.083024E+00
  1.078636E+00
  1.073970E+00
  1.069190E+00
  1.064409E+00
  1.059629E+00
  1.054611E+00
  1.049422E+00
  1.044233E+00
  1.039044E+00
  1.033581E+00
  1.027975E+00
  1.022370E+00
  1.016765E+00
  1.010765E+00
  1.004738E+00
  9.987104E-01
  9.925095E-01
  9.860377E-01
  9.795677E-01
  9.730865E-01
  9.661521E-01
  9.592212E-01
  9.522938E-01
  9.449918E-01
  9.376189E-01
  9.302513E-01
  9.225164E-01
  9.146930E-01
  9.068760E-01
  8.985902E-01
  8.902661E-01
  8.818513E-01
  8.729830E-01
  8.641206E-01
  8.549412E-01
  8.455253E-01
  8.360593E-01
  8.260986E-01
  8.161422E-01
  8.057936E-01
  7.953173E-01
  7.845905E-01
  7.736322E-01
  7.624928E-01
  7.510800E-01
  7.395007E-01
  7.276550E-01
  7.156220E-01
  7.033801E-01
  6.909040E-01
  6.783059E-01
  6.654103E-01
  6.524108E-01
  6.392095E-01
  6.258209E-01
  6.123018E-01
  5.985980E-01
  5.846779E-01
  5.705783E-01
  5.562792E-01
  5.417710E-01
  5.271347E-01
  5.128665E-01
  5.000118E-01
  4.902966E-01
  4.867493E-01
  4.960802E-01
  5.144538E-01
  4.913661E-01
  5.138138E-01
  1.472348E-01
  2.552030E-07
  1.092272E+00
  1.092098E+00
  1.091924E+00
  1.091750E+00
  1.091577E+00
  1.091403E+00
  1.091229E+00
  1.091055E+00
  1.090882E+00
  1.090663E+00
  1.090443E+00
  1.090223E+00
  1.090003E+00
  1.089783E+00
  1.089562E+00
  1.089342E+00
  1.089197E+00
  1.089217E+00
  1.089237E+00
  1.089256E+00
  1.089276E+00
  1.089296E+00
  1.089315E+00
  1.089340E+00
  1.089447E+00
  1.089555E+00
  1.089662E+00
  1.089770E+00
  1.089878E+00
  1.089985E+00
  1.090089E+00
  1.090173E+00
  1.090258E+00
  1.090342E+00
  1.090426E+00
  1.090511E+00
  1.090595E+00
  1.090668E+00
  1.090733E+00
  1.090798E+00
  1.090863E+00
  1.090928E+00
  1.090993E+00
  1.091066E+00
  1.091151E+00
  1.091237E+00
  1.091323E+00
  1.091409E+00
  1.091495E+00
  1.091580E+00
  1.091666E+00
  1.091753E+00
  1.091839E+00
  1.091926E+00
  1.092013E+00
  1.092015E+00
  1.092003E+00
  1.091991E+00
  1.091979E+00
  1.091968E+00
  1.091846E+00
  1.091620E+00
  1.091395E+00
  1.091170E+00
  1.090946E+00
  1.090546E+00
  1.089930E+00
  1.089314E+00
  1.088698E+00
  1.088082E+00
  1.087064E+00
  1.085810E+00
  1.084556E+00
  1.083302E+00
  1.082002E+00
  1.079934E+00
  1.077865E+00
  1.075795E+00
  1.073725E+00
  1.070990E+00
  1.067983E+00
  1.064974E+00
  1.061965E+00
  1.058348E+00
  1.054292E+00
  1.050235E+00
  1.046176E+00
  1.041448E+00
  1.036371E+00
  1.031294E+00
  1.026216E+00
  1.020273E+00
  1.014267E+00
  1.008263E+00
  1.001835E+00
  9.947509E-01
  9.876718E-01
  9.805650E-01
  9.723022E-01
  9.640516E-01
  9.558127E-01
  9.469610E-01
  9.380009E-01
  9.290580E-01
  9.200185E-01
  9.109687E-01
  9.019371E-01
  8.931303E-01
  8.843593E-01
  8.756885E-01
  8.674329E-01
  8.591891E-01
  8.513608E-01
  8.438435E-01
  8.364173E-01
  8.297539E-01
  8.230946E-01
  8.170941E-01
  8.113126E-01
  8.059836E-01
  8.010718E-01
  7.964485E-01
  7.922578E-01
  7.882382E-01
  7.844912E-01
  7.808759E-01
  7.774080E-01
  7.741081E-01
  7.708983E-01
  7.680000E-01
  7.652725E-01
  7.629018E-01
  7.610649E-01
  7.596821E-01
  7.590578E-01
  7.595515E-01
  7.611239E-01
  7.640838E-01
  7.688888E-01
  7.769252E-01
  7.900585E-01
  8.121441E-01
  8.495594E-01
  9.131588E-01
  1.024146E+00
  1.180701E+00
  1.265674E+00
  1.470636E+00
  6.360784E-01
  9.321655E-07
  1.221914E+00
  1.221816E+00
  1.221718E+00
  1.221620E+00
  1.221522E+00
  1.221424E+00
  1.221327E+00
  1.221229E+00
  1.221131E+00
  1.220892E+00
  1.220647E+00
  1.220401E+00
  1.220156E+00
  1.219911E+00
  1.219666E+00
  1.219421E+00
  1.219112E+00
  1.218665E+00
  1.218218E+00
  1.217771E+00
  1.217324E+00
  1.216877E+00
  1.216430E+00
  1.215962E+00
  1.215124E+00
  1.214287E+00
  1.213450E+00
  1.212612E+00
  1.211775E+00
  1.210938E+00
  1.210020E+00
  1.208676E+00
  1.207333E+00
  1.205990E+00
  1.204646E+00
  1.203303E+00
  1.201959E+00
  1.200277E+00
  1.198376E+00
  1.196475E+00
  1.194573E+00
  1.192672E+00
  1.190770E+00
  1.188648E+00
  1.186170E+00
  1.183691E+00
  1.181213E+00
  1.178735E+00
  1.176257E+00
  1.173517E+00
  1.170481E+00
  1.167446E+00
  1.164411E+00
  1.161376E+00
  1.158340E+00
  1.154903E+00
  1.151397E+00
  1.147891E+00
  1.144385E+00
  1.140879E+00
  1.137212E+00
  1.133393E+00
  1.129574E+00
  1.125755E+00
  1.121937E+00
  1.118046E+00
  1.114068E+00
  1.110089E+00
  1.106110E+00
  1.102132E+00
  1.098141E+00
  1.094144E+00
  1.090147E+00
  1.086150E+00
  1.082162E+00
  1.078324E+00
  1.074486E+00
  1.070648E+00
  1.066810E+00
  1.063106E+00
  1.059457E+00
  1.055808E+00
  1.052159E+00
  1.048485E+00
  1.044793E+00
  1.041101E+00
  1.037409E+00
  1.033551E+00
  1.029606E+00
  1.025663E+00
  1.021719E+00
  1.017456E+00
  1.013170E+00
  1.008885E+00
  1.004363E+00
  9.994695E-01
  9.945796E-01
  9.896652E-01
  9.837794E-01
  9.779003E-01
  9.720281E-01
  9.652309E-01
  9.582403E-01
  9.512767E-01
  9.434202E-01
  9.353468E-01
  9.272864E-01
  9.180341E-01
  9.086813E-01
  8.990839E-01
  8.882771E-01
  8.774823E-01
  8.658542E-01
  8.536035E-01
  8.412255E-01
  8.276167E-01
  8.140151E-01
  7.994996E-01
  7.846840E-01
  7.693675E-01
  7.535875E-01
  7.375648E-01
  7.211757E-01
  7.046893E-01
  6.880463E-01
  6.714350E-01
  6.548587E-01
  6.385281E-01
  6.223277E-01
  6.067619E-01
  5.915245E-01
  5.769803E-01
  5.633418E-01
  5.504021E-01
  5.385513E-01
  5.280556E-01
  5.186918E-01
  5.106561E-01
  5.042253E-01
  5.004595E-01
  5.010729E-01
  5.099449E-01
  5.338106E-01
  5.832092E-01
  6.747357E-01
  8.000948E-01
  8.453036E-01
  8.924838E-01
 -5.133524E-02
  1.806166E-12
  9.685110E-01
  9.683744E-01
  9.682379E-01
  9.681014E-01
  9.679648E-01
  9.678283E-01
  9.676918E-01
  9.675553E-01
  9.674187E-01
  9.670524E-01
  9.666756E-01
  9.662988E-01
  9.659219E-01
  9.655451E-01
  9.651683E-01
  9.647915E-01
  9.643487E-01
  9.637622E-01
  9.631757E-01
  9.625893E-01
  9.620028E-01
  9.614163E-01
  9.608299E-01
  9.602296E-01
  9.593934E-01
  9.585572E-01
  9.577210E-01
  9.568849E-01
  9.560487E-01
  9.552125E-01
  9.543324E-01
  9.532198E-01
  9.521073E-01
  9.509947E-01
  9.498821E-01
  9.487695E-01
  9.476569E-01
  9.463704E-01
  9.449713E-01
  9.435723E-01
  9.421733E-01
  9.407742E-01
  9.393752E-01
  9.378643E-01
  9.361734E-01
  9.344824E-01
  9.327915E-01
  9.311007E-01
  9.294098E-01
  9.275787E-01
  9.255896E-01
  9.236005E-01
  9.216115E-01
  9.196225E-01
  9.176336E-01
  9.153874E-01
  9.130970E-01
  9.108067E-01
  9.085164E-01
  9.062263E-01
  9.037840E-01
  9.011995E-01
  8.986151E-01
  8.960308E-01
  8.934465E-01
  8.907341E-01
  8.878631E-01
  8.849922E-01
  8.821214E-01
  8.792507E-01
  8.761978E-01
  8.730386E-01
  8.698795E-01
  8.667204E-01
  8.635447E-01
  8.600883E-01
  8.566320E-01
  8.531757E-01
  8.497194E-01
  8.460434E-01
  8.422775E-01
  8.385118E-01
  8.347461E-01
  8.307935E-01
  8.267058E-01
  8.226183E-01
  8.185309E-01
  8.142275E-01
  8.098119E-01
  8.053965E-01
  8.009815E-01
  7.962559E-01
  7.915079E-01
  7.867605E-01
  7.818762E-01
  7.767787E-01
  7.716825E-01
  7.665773E-01
  7.611153E-01
  7.556559E-01
  7.501991E-01
  7.444470E-01
  7.386389E-01
  7.328345E-01
  7.267406E-01
  7.205769E-01
  7.144180E-01
  7.078899E-01
  7.013314E-01
  6.947015E-01
  6.877144E-01
  6.807320E-01
  6.735000E-01
  6.660819E-01
  6.586243E-01
  6.507774E-01
  6.429338E-01
  6.347818E-01
  6.265291E-01
  6.180793E-01
  6.094473E-01
  6.006728E-01
  5.916829E-01
  5.825619E-01
  5.732309E-01
  5.637523E-01
  5.541090E-01
  5.442811E-01
  5.343569E-01
  5.241978E-01
  5.139566E-01
  5.035562E-01
  4.930080E-01
  4.823567E-01
  4.715598E-01
  4.605922E-01
  4.494829E-01
  4.382164E-01
  4.267850E-01
  4.152524E-01
  4.040097E-01
  3.938804E-01
  3.862240E-01
  3.834261E-01
  3.907724E-01
  4.052413E-01
  3.870505E-01
  4.047277E-01
  1.351076E-01
  4.028142E-02
  5.291110E-02
  5.290269E-02
  5.289427E-02
  5.288585E-02
  5.287744E-02
  5.286902E-02
  5.286061E-02
  5.285219E-02
  5.284378E-02
  5.283321E-02
  5.282254E-02
  5.281187E-02
  5.280121E-02
  5.279054E-02
  5.277988E-02
  5.276921E-02
  5.276220E-02
  5.276315E-02
  5.276410E-02
  5.276505E-02
  5.276600E-02
  5.276695E-02
  5.276791E-02
  5.276909E-02
  5.277430E-02
  5.277951E-02
  5.278472E-02
  5.278993E-02
  5.279514E-02
  5.280036E-02
  5.280539E-02
  5.280947E-02
  5.281355E-02
  5.281763E-02
  5.282172E-02
  5.282580E-02
  5.282989E-02
  5.283339E-02
  5.283653E-02
  5.283968E-02
  5.284282E-02
  5.284597E-02
  5.284912E-02
  5.285264E-02
  5.285678E-02
  5.286091E-02
  5.286506E-02
  5.286921E-02
  5.287336E-02
  5.287752E-02
  5.288167E-02
  5.288583E-02
  5.289000E-02
  5.289419E-02
  5.289839E-02
  5.289848E-02
  5.289787E-02
  5.289728E-02
  5.289671E-02
  5.289615E-02
  5.289023E-02
  5.287929E-02
  5.286837E-02
  5.285746E-02
  5.284657E-02
  5.282719E-02
  5.279733E-02
  5.276747E-02
  5.273762E-02
  5.270777E-02
  5.265843E-02
  5.259768E-02
  5.253693E-02
  5.247616E-02
  5.241319E-02
  5.231299E-02
  5.221277E-02
  5.211252E-02
  5.201224E-02
  5.187976E-02
  5.173407E-02
  5.158834E-02
  5.144257E-02
  5.126738E-02
  5.107090E-02
  5.087437E-02
  5.067781E-02
  5.044880E-02
  5.020289E-02
  4.995696E-02
  4.971101E-02
  4.942317E-02
  4.913228E-02
  4.884145E-02
  4.853015E-02
  4.818702E-02
  4.784414E-02
  4.749992E-02
  4.709970E-02
  4.670007E-02
  4.630099E-02
  4.587222E-02
  4.543819E-02
  4.500496E-02
  4.456704E-02
  4.412862E-02
  4.369107E-02
  4.326441E-02
  4.283947E-02
  4.241939E-02
  4.201943E-02
  4.162004E-02
  4.124078E-02
  4.087660E-02
  4.051684E-02
  4.019405E-02
  3.987146E-02
  3.958080E-02
  3.930076E-02
  3.904265E-02
  3.880476E-02
  3.858086E-02
  3.837790E-02
  3.818325E-02
  3.800179E-02
  3.782671E-02
  3.765877E-02
  3.749895E-02
  3.734348E-02
  3.720308E-02
  3.707092E-02
  3.695603E-02
  3.686697E-02
  3.679990E-02
  3.676955E-02
  3.679332E-02
  3.686933E-02
  3.701253E-02
  3.724507E-02
  3.763411E-02
  3.827001E-02
  3.933953E-02
  4.115154E-02
  4.423180E-02
  4.960732E-02
  5.718987E-02
  6.130502E-02
  7.123186E-02
  3.589153E-02
  9.047405E-03
  1.707329E-01
  1.707192E-01
  1.707055E-01
  1.706918E-01
  1.706781E-01
  1.706644E-01
  1.706508E-01
  1.706371E-01
  1.706234E-01
  1.705900E-01
  1.705558E-01
  1.705215E-01
  1.704873E-01
  1.704530E-01
  1.704188E-01
  1.703845E-01
  1.703414E-01
  1.702789E-01
  1.702165E-01
  1.701540E-01
  1.700916E-01
  1.700291E-01
  1.699667E-01
  1.699012E-01
  1.697842E-01
  1.696672E-01
  1.695502E-01
  1.694332E-01
  1.693162E-01
  1.691992E-01
  1.690710E-01
  1.688832E-01
  1.686955E-01
  1.685078E-01
  1.683201E-01
  1.681324E-01
  1.679447E-01
  1.677096E-01
  1.674439E-01
  1.671782E-01
  1.669125E-01
  1.666468E-01
  1.663811E-01
  1.660846E-01
  1.657383E-01
  1.653920E-01
  1.650457E-01
  1.646994E-01
  1.643531E-01
  1.639701E-01
  1.635460E-01
  1.631219E-01
  1.626977E-01
  1.622736E-01
  1.618495E-01
  1.613692E-01
  1.608792E-01
  1.603893E-01
  1.598994E-01
  1.594095E-01
  1.588970E-01
  1.583633E-01
  1.578297E-01
  1.572961E-01
  1.567625E-01
  1.562189E-01
  1.556629E-01
  1.551070E-01
  1.545510E-01
  1.539951E-01
  1.534375E-01
  1.528789E-01
  1.523204E-01
  1.517619E-01
  1.512046E-01
  1.506683E-01
  1.501321E-01
  1.495958E-01
  1.490595E-01
  1.485420E-01
  1.480321E-01
  1.475223E-01
  1.470125E-01
  1.464991E-01
  1.459833E-01
  1.454674E-01
  1.449517E-01
  1.444126E-01
  1.438616E-01
  1.433106E-01
  1.427597E-01
  1.421641E-01
  1.415654E-01
  1.409668E-01
  1.403350E-01
  1.396515E-01
  1.389684E-01
  1.382818E-01
  1.374595E-01
  1.366382E-01
  1.358178E-01
  1.348681E-01
  1.338913E-01
  1.329183E-01
  1.318204E-01
  1.306923E-01
  1.295659E-01
  1.282729E-01
  1.269659E-01
  1.256248E-01
  1.241146E-01
  1.226062E-01
  1.209813E-01
  1.192695E-01
  1.175399E-01
  1.156384E-01
  1.137379E-01
  1.117097E-01
  1.096397E-01
  1.074997E-01
  1.052950E-01
  1.030563E-01
  1.007665E-01
  9.846306E-02
  9.613775E-02
  9.381685E-02
  9.150082E-02
  8.921909E-02
  8.695552E-02
  8.478055E-02
  8.265141E-02
  8.061909E-02
  7.871328E-02
  7.690509E-02
  7.524900E-02
  7.378222E-02
  7.247355E-02
  7.135041E-02
  7.045149E-02
  6.992488E-02
  7.001008E-02
  7.124912E-02
  7.458298E-02
  8.148411E-02
  9.427096E-02
  1.117844E-01
  1.180993E-01
  1.246894E-01
 -8.355207E-03
  5.056486E-08
  9.686984E-01
  9.685619E-01
  9.684253E-01
  9.682888E-01
  9.681522E-01
  9.680157E-01
  9.678791E-01
  9.677426E-01
  9.676061E-01
  9.672398E-01
  9.668629E-01
  9.664861E-01
  9.661093E-01
  9.657325E-01
  9.653557E-01
  9.649789E-01
  9.645361E-01
  9.639497E-01
  9.633634E-01
  9.627770E-01
  9.621906E-01
  9.616043E-01
  9.610179E-01
  9.604177E-01
  9.595818E-01