 Title= "ADflow Lift Distribution Data"
Variables = "eta" "CoordinateX" "CoordinateY" "CoordinateZ" "Lift" "Drag" "Moment" "Normalized Lift" "Normalized Drag" "Normalized Moment" "CL" "CD" "CM" "CLp" "CDp" "CMp" "CLv" "CDv" "CMv" "Elliptical" "thickness" "twist" "chord" "fx" "fy" "fz" 
Zone T= "LiftDist_01 allWalls: : z normal"
 I=          150
 DATAPACKING=BLOCK
  0.000000E+00
  6.711405E-03
  1.342281E-02
  2.013422E-02
  2.684563E-02
  3.355704E-02
  4.026845E-02
  4.697986E-02
  5.369127E-02
  6.040268E-02
  6.711409E-02
  7.382550E-02
  8.053691E-02
  8.724832E-02
  9.395973E-02
  1.006711E-01
  1.073825E-01
  1.140940E-01
  1.208054E-01
  1.275168E-01
  1.342282E-01
  1.409396E-01
  1.476510E-01
  1.543624E-01
  1.610738E-01
  1.677852E-01
  1.744966E-01
  1.812081E-01
  1.879195E-01
  1.946309E-01
  2.013423E-01
  2.080537E-01
  2.147651E-01
  2.214765E-01
  2.281879E-01
  2.348993E-01
  2.416107E-01
  2.483221E-01
  2.550336E-01
  2.617450E-01
  2.684564E-01
  2.751678E-01
  2.818792E-01
  2.885906E-01
  2.953020E-01
  3.020134E-01
  3.087248E-01
  3.154362E-01
  3.221476E-01
  3.288591E-01
  3.355705E-01
  3.422819E-01
  3.489933E-01
  3.557047E-01
  3.624161E-01
  3.691275E-01
  3.758389E-01
  3.825503E-01
  3.892617E-01
  3.959732E-01
  4.026846E-01
  4.093960E-01
  4.161074E-01
  4.228188E-01
  4.295302E-01
  4.362416E-01
  4.429530E-01
  4.496644E-01
  4.563758E-01
  4.630872E-01
  4.697987E-01
  4.765101E-01
  4.832215E-01
  4.899329E-01
  4.966443E-01
  5.033557E-01
  5.100671E-01
  5.167785E-01
  5.234899E-01
  5.302013E-01
  5.369128E-01
  5.436242E-01
  5.503356E-01
  5.570470E-01
  5.637584E-01
  5.704698E-01
  5.771812E-01
  5.838926E-01
  5.906040E-01
  5.973154E-01
  6.040268E-01
  6.107383E-01
  6.174497E-01
  6.241611E-01
  6.308725E-01
  6.375839E-01
  6.442953E-01
  6.510067E-01
  6.577181E-01
  6.644295E-01
  6.711409E-01
  6.778524E-01
  6.845638E-01
  6.912752E-01
  6.979866E-01
  7.046980E-01
  7.114094E-01
  7.181208E-01
  7.248322E-01
  7.315436E-01
  7.382550E-01
  7.449664E-01
  7.516779E-01
  7.583893E-01
  7.651007E-01
  7.718121E-01
  7.785235E-01
  7.852349E-01
  7.919463E-01
  7.986577E-01
  8.053691E-01
  8.120805E-01
  8.187919E-01
  8.255034E-01
  8.322148E-01
  8.389262E-01
  8.456376E-01
  8.523490E-01
  8.590604E-01
  8.657718E-01
  8.724832E-01
  8.791946E-01
  8.859060E-01
  8.926175E-01
  8.993289E-01
  9.060403E-01
  9.127517E-01
  9.194631E-01
  9.261745E-01
  9.328859E-01
  9.395973E-01
  9.463087E-01
  9.530201E-01
  9.597315E-01
  9.664430E-01
  9.731544E-01
  9.798658E-01
  9.865772E-01
  9.932886E-01
  1.000000E+00
  0.000000E+00
  0.000000E+00
  0.000000E+00
  0.000000E+00
  0.000000E+00
  0.000000E+00
  0.000000E+00
  0.000000E+00
  0.000000E+00
  0.000000E+00
  0.000000E+00
  0.000000E+00
  0.000000E+00
  0.000000E+00
  0.000000E+00
  0.000000E+00
  0.000000E+00
  0.000000E+00
  0.000000E+00
  0.000000E+00
  0.000000E+00
  0.000000E+00
  0.000000E+00
  0.000000E+00
  0.000000E+00
  0.000000E+00
  0.000000E+00
  0.000000E+00
  0.000000E+00
  0.000000E+00
  0.000000E+00
  0.000000E+00
  0.000000E+00
  0.000000E+00
  0.000000E+00
  0.000000E+00
  0.000000E+00
  0.000000E+00
  0.000000E+00
  0.000000E+00
  0.000000E+00
  0.000000E+00
  0.000000E+00
  0.000000E+00
  0.000000E+00
  0.000000E+00
  0.000000E+00
  0.000000E+00
  0.000000E+00
  0.000000E+00
  0.000000E+00
  0.000000E+00
  0.000000E+00
  0.000000E+00
  0.000000E+00
  0.000000E+00
  0.000000E+00
  0.000000E+00
  0.000000E+00
  0.000000E+00
  0.000000E+00
  0.000000E+00
  0.000000E+00
  0.000000E+00
  0.000000E+00
  0.000000E+00
  0.000000E+00
  0.000000E+00
  0.000000E+00
  0.000000E+00
  0.000000E+00
  0.000000E+00
  0.000000E+00
  0.000000E+00
  0.000000E+00
  0.000000E+00
  0.000000E+00
  0.000000E+00
  0.000000E+00
  0.000000E+00
  0.000000E+00
  0.000000E+00
  0.000000E+00
  0.000000E+00
  0.000000E+00
  0.000000E+00
  0.000000E+00
  0.000000E+00
  0.000000E+00
  0.000000E+00
  0.000000E+00
  0.000000E+00
  0.000000E+00
  0.000000E+00
  0.000000E+00
  0.000000E+00
  0.000000E+00
  0.000000E+00
  0.000000E+00
  0.000000E+00
  0.000000E+00
  0.000000E+00
  0.000000E+00
  0.000000E+00
  0.000000E+00
  0.000000E+00
  0.000000E+00
  0.000000E+00
  0.000000E+00
  0.000000E+00
  0.000000E+00
  0.000000E+00
  0.000000E+00
  0.000000E+00
  0.000000E+00
  0.000000E+00
  0.000000E+00
  0.000000E+00
  0.000000E+00
  0.000000E+00
  0.000000E+00
  0.000000E+00
  0.000000E+00
  0.000000E+00
  0.000000E+00
  0.000000E+00
  0.000000E+00
  0.000000E+00
  0.000000E+00
  0.000000E+00
  0.000000E+00
  0.000000E+00
  0.000000E+00
  0.000000E+00
  0.000000E+00
  0.000000E+00
  0.000000E+00
  0.000000E+00
  0.000000E+00
  0.000000E+00
  0.000000E+00
  0.000000E+00
  0.000000E+00
  0.000000E+00
  0.000000E+00
  0.000000E+00
  0.000000E+00
  0.000000E+00
  0.000000E+00
  0.000000E+00
  0.000000E+00
  0.000000E+00
  0.000000E+00
  0.000000E+00
  0.000000E+00
  0.000000E+00
  0.000000E+00
  0.000000E+00
  0.000000E+00
  0.000000E+00
  0.000000E+00
  0.000000E+00
  0.000000E+00
  0.000000E+00
  0.000000E+00
  0.000000E+00
  0.000000E+00
  0.000000E+00
  0.000000E+00
  0.000000E+00
  0.000000E+00
  0.000000E+00
  0.000000E+00
  0.000000E+00
  0.000000E+00
  0.000000E+00
  0.000000E+00
  0.000000E+00
  0.000000E+00
  0.000000E+00
  0.000000E+00
  0.000000E+00
  0.000000E+00
  0.000000E+00
  0.000000E+00
  0.000000E+00
  0.000000E+00
  0.000000E+00
  0.000000E+00
  0.000000E+00
  0.000000E+00
  0.000000E+00
  0.000000E+00
  0.000000E+00
  0.000000E+00
  0.000000E+00
  0.000000E+00
  0.000000E+00
  0.000000E+00
  0.000000E+00
  0.000000E+00
  0.000000E+00
  0.000000E+00
  0.000000E+00
  0.000000E+00
  0.000000E+00
  0.000000E+00
  0.000000E+00
  0.000000E+00
  0.000000E+00
  0.000000E+00
  0.000000E+00
  0.000000E+00
  0.000000E+00
  0.000000E+00
  0.000000E+00
  0.000000E+00
  0.000000E+00
  0.000000E+00
  0.000000E+00
  0.000000E+00
  0.000000E+00
  0.000000E+00
  0.000000E+00
  0.000000E+00
  0.000000E+00
  0.000000E+00
  0.000000E+00
  0.000000E+00
  0.000000E+00
  0.000000E+00
  0.000000E+00
  0.000000E+00
  0.000000E+00
  0.000000E+00
  0.000000E+00
  0.000000E+00
  0.000000E+00
  0.000000E+00
  0.000000E+00
  0.000000E+00
  0.000000E+00
  0.000000E+00
  0.000000E+00
  0.000000E+00
  0.000000E+00
  0.000000E+00
  0.000000E+00
  0.000000E+00
  0.000000E+00
  0.000000E+00
  0.000000E+00
  0.000000E+00
  0.000000E+00
  0.000000E+00
  0.000000E+00
  0.000000E+00
  0.000000E+00
  0.000000E+00
  0.000000E+00
  0.000000E+00
  0.000000E+00
  0.000000E+00
  0.000000E+00
  0.000000E+00
  0.000000E+00
  0.000000E+00
  0.000000E+00
  0.000000E+00
  0.000000E+00
  0.000000E+00
  0.000000E+00
  0.000000E+00
  0.000000E+00
  0.000000E+00
  0.000000E+00
  0.000000E+00
  0.000000E+00
  0.000000E+00
  0.000000E+00
  0.000000E+00
  0.000000E+00
  0.000000E+00
  0.000000E+00
  0.000000E+00
  0.000000E+00
  0.000000E+00
  0.000000E+00
  0.000000E+00
  0.000000E+00
  0.000000E+00
  0.000000E+00
  0.000000E+00
  0.000000E+00
  0.000000E+00
  0.000000E+00
  0.000000E+00
  0.000000E+00
  0.000000E+00
  0.000000E+00
  1.000000E-08
  1.690972E-02
  3.381945E-02
  5.072917E-02
  6.763890E-02
  8.454862E-02
  1.014583E-01
  1.183681E-01
  1.352778E-01
  1.521875E-01
  1.690972E-01
  1.860070E-01
  2.029167E-01
  2.198264E-01
  2.367361E-01
  2.536459E-01
  2.705556E-01
  2.874653E-01
  3.043750E-01
  3.212848E-01
  3.381945E-01
  3.551042E-01
  3.720139E-01
  3.889237E-01
  4.058334E-01
  4.227431E-01
  4.396528E-01
  4.565626E-01
  4.734723E-01
  4.903820E-01
  5.072917E-01
  5.242015E-01
  5.411112E-01
  5.580209E-01
  5.749306E-01
  5.918404E-01
  6.087501E-01
  6.256598E-01
  6.425695E-01
  6.594792E-01
  6.763890E-01
  6.932987E-01
  7.102084E-01
  7.271181E-01
  7.440279E-01
  7.609376E-01
  7.778473E-01
  7.947570E-01
  8.116668E-01
  8.285765E-01
  8.454862E-01
  8.623959E-01
  8.793057E-01
  8.962154E-01
  9.131251E-01
  9.300348E-01
  9.469446E-01
  9.638543E-01
  9.807640E-01
  9.976737E-01
  1.014583E+00
  1.031493E+00
  1.048403E+00
  1.065313E+00
  1.082222E+00
  1.099132E+00
  1.116042E+00
  1.132952E+00
  1.149861E+00
  1.166771E+00
  1.183681E+00
  1.200590E+00
  1.217500E+00
  1.234410E+00
  1.251320E+00
  1.268229E+00
  1.285139E+00
  1.302049E+00
  1.318958E+00
  1.335868E+00
  1.352778E+00
  1.369688E+00
  1.386597E+00
  1.403507E+00
  1.420417E+00
  1.437327E+00
  1.454236E+00
  1.471146E+00
  1.488056E+00
  1.504965E+00
  1.521875E+00
  1.538785E+00
  1.555695E+00
  1.572604E+00
  1.589514E+00
  1.606424E+00
  1.623334E+00
  1.640243E+00
  1.657153E+00
  1.674063E+00
  1.690972E+00
  1.707882E+00
  1.724792E+00
  1.741702E+00
  1.758611E+00
  1.775521E+00
  1.792431E+00
  1.809341E+00
  1.826250E+00
  1.843160E+00
  1.860070E+00
  1.876979E+00
  1.893889E+00
  1.910799E+00
  1.927709E+00
  1.944618E+00
  1.961528E+00
  1.978438E+00
  1.995347E+00
  2.012257E+00
  2.029167E+00
  2.046077E+00
  2.062986E+00
  2.079896E+00
  2.096806E+00
  2.113716E+00
  2.130625E+00
  2.147535E+00
  2.164445E+00
  2.181354E+00
  2.198264E+00
  2.215174E+00
  2.232084E+00
  2.248993E+00
  2.265903E+00
  2.282813E+00
  2.299723E+00
  2.316632E+00
  2.333542E+00
  2.350452E+00
  2.367361E+00
  2.384271E+00
  2.401181E+00
  2.418091E+00
  2.435000E+00
  2.451910E+00
  2.468820E+00
  2.485729E+00
  2.502639E+00
  2.519549E+00
  1.101804E+04
  1.101653E+04
  1.101502E+04
  1.101351E+04
  1.101200E+04
  1.101048E+04
  1.100897E+04
  1.100746E+04
  1.100595E+04
  1.100126E+04
  1.099642E+04
  1.099158E+04
  1.098674E+04
  1.098190E+04
  1.097706E+04
  1.097222E+04
  1.096640E+04
  1.095843E+04
  1.095047E+04
  1.094250E+04
  1.093454E+04
  1.092657E+04
  1.091860E+04
  1.091048E+04
  1.089973E+04
  1.088897E+04
  1.087821E+04
  1.086746E+04
  1.085670E+04
  1.084594E+04
  1.083471E+04
  1.082097E+04
  1.080723E+04
  1.079349E+04
  1.077975E+04
  1.076601E+04
  1.075226E+04
  1.073657E+04
  1.071961E+04
  1.070266E+04
  1.068570E+04
  1.066874E+04
  1.065179E+04
  1.063356E+04
  1.061330E+04
  1.059304E+04
  1.057277E+04
  1.055251E+04
  1.053225E+04
  1.051039E+04
  1.048674E+04
  1.046309E+04
  1.043944E+04
  1.041579E+04
  1.039214E+04
  1.036553E+04
  1.033840E+04
  1.031128E+04
  1.028416E+04
  1.025705E+04
  1.022812E+04
  1.019751E+04
  1.016691E+04
  1.013630E+04
  1.010570E+04
  1.007350E+04
  1.003933E+04
  1.000517E+04
  9.971001E+03
  9.936838E+03
  9.900325E+03
  9.862439E+03
  9.824554E+03
  9.786671E+03
  9.748577E+03
  9.706899E+03
  9.665222E+03
  9.623545E+03
  9.581869E+03
  9.537485E+03
  9.491992E+03
  9.446500E+03
  9.401009E+03
  9.353269E+03
  9.303903E+03
  9.254539E+03
  9.205177E+03
  9.153398E+03
  9.100362E+03
  9.047330E+03
  8.994302E+03
  8.938186E+03
  8.881849E+03
  8.825519E+03
  8.767884E+03
  8.708213E+03
  8.648558E+03
  8.588828E+03
  8.525860E+03
  8.462927E+03
  8.400026E+03
  8.335003E+03
  8.269597E+03
  8.204243E+03
  8.136973E+03
  8.069264E+03
  8.001618E+03
  7.930927E+03
  7.860007E+03
  7.788404E+03
  7.713310E+03
  7.638278E+03
  7.560554E+03
  7.480824E+03
  7.400640E+03
  7.315939E+03
  7.231279E+03
  7.142846E+03
  7.053181E+03
  6.961034E+03
  6.866589E+03
  6.770348E+03
  6.671399E+03
  6.570863E+03
  6.467794E+03
  6.363026E+03
  6.256363E+03
  6.147631E+03
  6.037818E+03
  5.925385E+03
  5.812031E+03
  5.696892E+03
  5.580100E+03
  5.462165E+03
  5.342623E+03
  5.221227E+03
  5.098293E+03
  4.973640E+03
  4.847152E+03
  4.719417E+03
  4.594649E+03
  4.481926E+03
  4.396403E+03
  4.364698E+03
  4.445462E+03
  4.604232E+03
  4.392756E+03
  4.569425E+03
  1.340015E+03
  2.317315E-03
  6.041117E+02
  6.041347E+02
  6.041577E+02
  6.041807E+02
  6.042037E+02
  6.042267E+02
  6.042498E+02
  6.042729E+02
  6.042960E+02
  6.043050E+02
  6.043135E+02
  6.043219E+02
  6.043304E+02
  6.043390E+02
  6.043475E+02
  6.043561E+02
  6.043568E+02
  6.043403E+02
  6.043239E+02
  6.043075E+02
  6.042912E+02
  6.042749E+02
  6.042586E+02
  6.042428E+02
  6.042351E+02
  6.042275E+02
  6.042199E+02
  6.042123E+02
  6.042048E+02
  6.041973E+02
  6.041828E+02
  6.041308E+02
  6.040789E+02
  6.040270E+02
  6.039752E+02
  6.039235E+02
  6.038718E+02
  6.037827E+02
  6.036694E+02
  6.035562E+02
  6.034430E+02
  6.033300E+02
  6.032170E+02
  6.030869E+02
  6.029290E+02
  6.027713E+02
  6.026137E+02
  6.024562E+02
  6.022988E+02
  6.021182E+02
  6.019116E+02
  6.017050E+02
  6.014987E+02
  6.012925E+02
  6.010866E+02
  6.008181E+02
  6.005391E+02
  6.002604E+02
  5.999820E+02
  5.997039E+02
  5.993852E+02
  5.990286E+02
  5.986723E+02
  5.983165E+02
  5.979610E+02
  5.975583E+02
  5.970970E+02
  5.966361E+02
  5.961757E+02
  5.957156E+02
  5.951587E+02
  5.945452E+02
  5.939320E+02
  5.933191E+02
  5.926974E+02
  5.919219E+02
  5.911467E+02
  5.903717E+02
  5.895969E+02
  5.886200E+02
  5.875605E+02
  5.865012E+02
  5.854420E+02
  5.840337E+02
  5.823726E+02
  5.807114E+02
  5.790503E+02
  5.768237E+02
  5.743026E+02
  5.717815E+02
  5.692603E+02
  5.658069E+02
  5.622856E+02
  5.587657E+02
  5.547372E+02
  5.499179E+02
  5.451041E+02
  5.402563E+02
  5.340310E+02
  5.278186E+02
  5.216190E+02
  5.147375E+02
  5.077352E+02
  5.007521E+02
  4.937750E+02
  4.868152E+02
  4.798755E+02
  4.734194E+02
  4.670243E+02
  4.607896E+02
  4.552509E+02
  4.497232E+02
  4.447888E+02
  4.402975E+02
  4.359192E+02
  4.325195E+02
  4.291214E+02
  4.265070E+02
  4.241525E+02
  4.222647E+02
  4.208092E+02
  4.196023E+02
  4.187698E+02
  4.180596E+02
  4.175438E+02
  4.170897E+02
  4.167058E+02
  4.163554E+02
  4.160296E+02
  4.157468E+02
  4.155088E+02
  4.153550E+02
  4.153755E+02
  4.155672E+02
  4.160608E+02
  4.170549E+02
  4.185669E+02
  4.207663E+02
  4.239075E+02
  4.287437E+02
  4.363070E+02
  4.487126E+02
  4.694652E+02
  5.045193E+02
  5.655141E+02
  6.516181E+02
  6.977086E+02
  8.076943E+02
  3.475598E+02
  5.053642E-04
  1.976713E+03
  1.976270E+03
  1.975827E+03
  1.975385E+03
  1.974942E+03
  1.974499E+03
  1.974056E+03
  1.973613E+03
  1.973170E+03
  1.971879E+03
  1.970548E+03
  1.969217E+03
  1.967887E+03
  1.966556E+03
  1.965225E+03
  1.963895E+03
  1.962354E+03
  1.960355E+03
  1.958357E+03
  1.956358E+03
  1.954360E+03
  1.952361E+03
  1.950363E+03
  1.948334E+03
  1.945784E+03
  1.943234E+03
  1.940685E+03
  1.938135E+03
  1.935585E+03
  1.933036E+03
  1.930379E+03
  1.927154E+03
  1.923929E+03
  1.920704E+03
  1.917479E+03
  1.914253E+03
  1.911028E+03
  1.907322E+03
  1.903305E+03
  1.899288E+03
  1.895271E+03
  1.891254E+03
  1.887237E+03
  1.882901E+03
  1.878050E+03
  1.873200E+03
  1.868349E+03
  1.863499E+03
  1.858648E+03
  1.853396E+03
  1.847691E+03
  1.841986E+03
  1.836281E+03
  1.830576E+03
  1.824872E+03
  1.818468E+03
  1.811943E+03
  1.805419E+03
  1.798895E+03
  1.792371E+03
  1.785490E+03
  1.778276E+03
  1.771062E+03
  1.763848E+03
  1.756635E+03
  1.749156E+03
  1.741350E+03
  1.733545E+03
  1.725740E+03
  1.717935E+03
  1.709837E+03
  1.701566E+03
  1.693297E+03
  1.685027E+03
  1.676752E+03
  1.668385E+03
  1.660017E+03
  1.651649E+03
  1.643282E+03
  1.635029E+03
  1.626824E+03
  1.618619E+03
  1.610414E+03
  1.602238E+03
  1.594082E+03
  1.585927E+03
  1.577772E+03
  1.569705E+03
  1.561685E+03
  1.553666E+03
  1.545648E+03
  1.538075E+03
  1.530536E+03
  1.523001E+03
  1.515563E+03
  1.508280E+03
  1.501004E+03
  1.493721E+03
  1.485986E+03
  1.478266E+03
  1.470560E+03
  1.462257E+03
  1.453855E+03
  1.445447E+03
  1.436352E+03
  1.427097E+03
  1.417873E+03
  1.407194E+03
  1.396406E+03
  1.385251E+03
  1.372244E+03
  1.359264E+03
  1.344860E+03
  1.329391E+03
  1.313692E+03
  1.295738E+03
  1.277797E+03
  1.258134E+03
  1.237903E+03
  1.216688E+03
  1.194559E+03
  1.171865E+03
  1.148319E+03
  1.124432E+03
  1.100001E+03
  1.075424E+03
  1.050684E+03
  1.026112E+03
  1.001633E+03
  9.778992E+02
  9.546109E+02
  9.322709E+02
  9.112561E+02
  8.912953E+02
  8.730107E+02
  8.568761E+02
  8.425593E+02
  8.303772E+02
  8.207605E+02
  8.153107E+02
  8.165935E+02
  8.305584E+02
  8.676327E+02
  9.441406E+02
  1.085502E+03
  1.277487E+03
  1.340691E+03
  1.402890E+03
 -8.013913E+01
  2.905042E-09
  1.236729E+00
  1.236560E+00
  1.236390E+00
  1.236220E+00
  1.236051E+00
  1.235881E+00
  1.235712E+00
  1.235542E+00
  1.235373E+00
  1.234846E+00
  1.234303E+00
  1.233759E+00
  1.233216E+00
  1.232673E+00
  1.232130E+00
  1.231587E+00
  1.230933E+00
  1.230039E+00
  1.229145E+00
  1.228251E+00
  1.227356E+00
  1.226462E+00
  1.225568E+00
  1.224656E+00
  1.223449E+00
  1.222242E+00
  1.221034E+00
  1.219827E+00
  1.218620E+00
  1.217412E+00
  1.216152E+00
  1.214609E+00
  1.213067E+00
  1.211524E+00
  1.209982E+00
  1.208440E+00
  1.206897E+00
  1.205136E+00
  1.203232E+00
  1.201329E+00
  1.199426E+00
  1.197522E+00
  1.195619E+00
  1.193574E+00
  1.191299E+00
  1.189025E+00
  1.186750E+00
  1.184476E+00
  1.182201E+00
  1.179748E+00
  1.177093E+00
  1.174439E+00
  1.171784E+00
  1.169129E+00
  1.166475E+00
  1.163487E+00
  1.160443E+00
  1.157399E+00
  1.154355E+00
  1.151311E+00
  1.148064E+00
  1.144629E+00
  1.141193E+00
  1.137758E+00
  1.134323E+00
  1.130709E+00
  1.126874E+00
  1.123038E+00
  1.119204E+00
  1.115369E+00
  1.111271E+00
  1.107018E+00
  1.102766E+00
  1.098513E+00
  1.094237E+00
  1.089559E+00
  1.084881E+00
  1.080203E+00
  1.075525E+00
  1.070543E+00
  1.065437E+00
  1.060331E+00
  1.055224E+00
  1.049866E+00
  1.044325E+00
  1.038784E+00
  1.033243E+00
  1.027431E+00
  1.021478E+00
  1.015525E+00
  1.009573E+00
  1.003274E+00
  9.969508E-01
  9.906280E-01
  9.841587E-01
  9.774609E-01
  9.707649E-01
  9.640604E-01
  9.569925E-01
  9.499285E-01
  9.428682E-01
  9.355696E-01
  9.282281E-01
  9.208923E-01
  9.133415E-01
  9.057414E-01
  8.981485E-01
  8.902137E-01
  8.822533E-01
  8.742161E-01
  8.657872E-01
  8.573651E-01
  8.486409E-01
  8.396915E-01
  8.306912E-01
  8.211838E-01
  8.116811E-01
  8.017549E-01
  7.916904E-01
  7.813472E-01
  7.707462E-01
  7.599436E-01
  7.488369E-01
  7.375522E-01
  7.259831E-01
  7.142233E-01
  7.022509E-01
  6.900462E-01
  6.777201E-01
  6.651000E-01
  6.523764E-01
  6.394525E-01
  6.263432E-01
  6.131054E-01
  5.996873E-01
  5.860611E-01
  5.722623E-01
  5.582705E-01
  5.440728E-01
  5.297351E-01
  5.157303E-01
  5.030776E-01
  4.934780E-01
  4.899193E-01
  4.989848E-01
  5.168059E-01
  4.930687E-01
  5.128991E-01
  1.504112E-01
  2.601090E-07
  1.102067E+00
  1.102109E+00
  1.102151E+00
  1.102193E+00
  1.102235E+00
  1.102277E+00
  1.102319E+00
  1.102361E+00
  1.102403E+00
  1.102419E+00
  1.102435E+00
  1.102450E+00
  1.102466E+00
  1.102481E+00
  1.102497E+00
  1.102513E+00
  1.102514E+00
  1.102484E+00
  1.102454E+00
  1.102424E+00
  1.102394E+00
  1.102364E+00
  1.102335E+00
  1.102306E+00
  1.102292E+00
  1.102278E+00
  1.102264E+00
  1.102250E+00
  1.102236E+00
  1.102223E+00
  1.102196E+00
  1.102102E+00
  1.102007E+00
  1.101912E+00
  1.101818E+00
  1.101723E+00
  1.101629E+00
  1.101466E+00
  1.101260E+00
  1.101053E+00
  1.100847E+00
  1.100641E+00
  1.100435E+00
  1.100197E+00
  1.099909E+00
  1.099621E+00
  1.099334E+00
  1.099047E+00
  1.098760E+00
  1.098430E+00
  1.098053E+00
  1.097676E+00
  1.097300E+00
  1.096924E+00
  1.096548E+00
  1.096058E+00
  1.095549E+00
  1.095041E+00
  1.094533E+00
  1.094026E+00
  1.093444E+00
  1.092794E+00
  1.092144E+00
  1.091495E+00
  1.090846E+00
  1.090111E+00
  1.089270E+00
  1.088429E+00
  1.087589E+00
  1.086750E+00
  1.085734E+00
  1.084615E+00
  1.083496E+00
  1.082378E+00
  1.081244E+00
  1.079829E+00
  1.078415E+00
  1.077001E+00
  1.075588E+00
  1.073806E+00
  1.071873E+00
  1.069940E+00
  1.068008E+00
  1.065439E+00
  1.062408E+00
  1.059378E+00
  1.056348E+00
  1.052286E+00
  1.047687E+00
  1.043087E+00
  1.038488E+00
  1.032188E+00
  1.025764E+00
  1.019343E+00
  1.011994E+00
  1.003202E+00
  9.944205E-01
  9.855768E-01
  9.742201E-01
  9.628870E-01
  9.515771E-01
  9.390235E-01
  9.262494E-01
  9.135102E-01
  9.007821E-01
  8.880854E-01
  8.754255E-01
  8.636478E-01
  8.519814E-01
  8.406076E-01
  8.305034E-01
  8.204194E-01
  8.114178E-01
  8.032242E-01
  7.952371E-01
  7.890351E-01
  7.828360E-01
  7.780667E-01
  7.737714E-01
  7.703276E-01
  7.676723E-01
  7.654706E-01
  7.639518E-01
  7.626562E-01
  7.617153E-01
  7.608870E-01
  7.601865E-01
  7.595472E-01
  7.589530E-01
  7.584370E-01
  7.580030E-01
  7.577224E-01
  7.577597E-01
  7.581094E-01
  7.590099E-01
  7.608234E-01
  7.635818E-01
  7.675940E-01
  7.733244E-01
  7.821470E-01
  7.959446E-01
  8.185757E-01
  8.564342E-01
  9.203826E-01
  1.031654E+00
  1.188732E+00
  1.272813E+00
  1.473458E+00
  6.340452E-01
  9.219240E-07
  1.255366E+00
  1.255084E+00
  1.254803E+00
  1.254522E+00
  1.254240E+00
  1.253959E+00
  1.253678E+00
  1.253397E+00
  1.253116E+00
  1.252295E+00
  1.251450E+00
  1.250605E+00
  1.249760E+00
  1.248915E+00
  1.248070E+00
  1.247225E+00
  1.246246E+00
  1.244977E+00
  1.243708E+00
  1.242438E+00
  1.241169E+00
  1.239900E+00
  1.238631E+00
  1.237342E+00
  1.235723E+00
  1.234104E+00
  1.232485E+00
  1.230865E+00
  1.229246E+00
  1.227627E+00
  1.225940E+00
  1.223891E+00
  1.221843E+00
  1.219795E+00
  1.217747E+00
  1.215699E+00
  1.213651E+00
  1.211297E+00
  1.208746E+00
  1.206195E+00
  1.203644E+00
  1.201092E+00
  1.198541E+00
  1.195787E+00
  1.192707E+00
  1.189626E+00
  1.186546E+00
  1.183466E+00
  1.180385E+00
  1.177050E+00
  1.173426E+00
  1.169803E+00
  1.166180E+00
  1.162557E+00
  1.158935E+00
  1.154867E+00
  1.150724E+00
  1.146580E+00
  1.142437E+00
  1.138294E+00
  1.133924E+00
  1.129342E+00
  1.124761E+00
  1.120180E+00
  1.115599E+00
  1.110849E+00
  1.105892E+00
  1.100935E+00
  1.095978E+00
  1.091021E+00
  1.085878E+00
  1.080626E+00
  1.075374E+00
  1.070122E+00
  1.064867E+00
  1.059553E+00
  1.054239E+00
  1.048925E+00
  1.043611E+00
  1.038370E+00
  1.033159E+00
  1.027948E+00
  1.022738E+00
  1.017545E+00
  1.012365E+00
  1.007186E+00
  1.002007E+00
  9.968840E-01
  9.917908E-01
  9.866981E-01
  9.816060E-01
  9.767961E-01
  9.720087E-01
  9.672230E-01
  9.624996E-01
  9.578744E-01
  9.532534E-01
  9.486283E-01
  9.437158E-01
  9.388128E-01
  9.339194E-01
  9.286462E-01
  9.233099E-01
  9.179705E-01
  9.121942E-01
  9.063171E-01
  9.004588E-01
  8.936770E-01
  8.868257E-01
  8.797415E-01
  8.714810E-01
  8.632376E-01
  8.540898E-01
  8.442662E-01
  8.342960E-01
  8.228935E-01
  8.114996E-01
  7.990120E-01
  7.861642E-01
  7.726906E-01
  7.586371E-01
  7.442245E-01
  7.292710E-01
  7.141009E-01
  6.985856E-01
  6.829771E-01
  6.672654E-01
  6.516606E-01
  6.361145E-01
  6.210415E-01
  6.062516E-01
  5.920640E-01
  5.787180E-01
  5.660414E-01
  5.544292E-01
  5.441825E-01
  5.350902E-01
  5.273536E-01
  5.212463E-01
  5.177852E-01
  5.186000E-01
  5.274687E-01
  5.510137E-01
  5.996022E-01
  6.893774E-01
  8.113029E-01
  8.514420E-01
  8.909433E-01
 -5.089454E-02
  1.844926E-12
  9.755449E-01
  9.754111E-01
  9.752773E-01
  9.751435E-01
  9.750097E-01
  9.748759E-01
  9.747421E-01
  9.746084E-01
  9.744746E-01
  9.740590E-01
  9.736305E-01
  9.732020E-01
  9.727735E-01
  9.723450E-01
  9.719165E-01
  9.714881E-01
  9.709724E-01
  9.702670E-01
  9.695616E-01
  9.688561E-01
  9.681507E-01
  9.674453E-01
  9.667399E-01
  9.660209E-01
  9.650684E-01
  9.641160E-01
  9.631635E-01
  9.622111E-01
  9.612587E-01
  9.603063E-01
  9.593119E-01
  9.580951E-01
  9.568782E-01
  9.556615E-01
  9.544447E-01
  9.532279E-01
  9.520111E-01
  9.506215E-01
  9.491200E-01
  9.476185E-01
  9.461171E-01
  9.446156E-01
  9.431142E-01
  9.415006E-01
  9.397063E-01
  9.379120E-01
  9.361177E-01
  9.343235E-01
  9.325293E-01
  9.305940E-01
  9.284996E-01
  9.264053E-01
  9.243111E-01
  9.222169E-01
  9.201229E-01
  9.177663E-01
  9.153647E-01
  9.129632E-01
  9.105618E-01
  9.081605E-01
  9.055995E-01
  9.028892E-01
  9.001790E-01
  8.974690E-01
  8.947592E-01
  8.919082E-01
  8.888826E-01
  8.858573E-01
  8.828321E-01
  8.798070E-01
  8.765739E-01
  8.732191E-01
  8.698644E-01
  8.665099E-01
  8.631367E-01
  8.594461E-01
  8.557555E-01
  8.520650E-01
  8.483745E-01
  8.444442E-01
  8.404157E-01
  8.363873E-01
  8.323589E-01
  8.281315E-01
  8.237603E-01
  8.193893E-01
  8.150184E-01
  8.104338E-01
  8.057381E-01
  8.010428E-01
  7.963478E-01
  7.913801E-01
  7.863928E-01
  7.814062E-01
  7.763042E-01
  7.710225E-01
  7.657420E-01
  7.604547E-01
  7.548814E-01
  7.493107E-01
  7.437426E-01
  7.379865E-01
  7.321961E-01
  7.264095E-01
  7.204524E-01
  7.144562E-01
  7.084650E-01
  7.022040E-01
  6.959225E-01
  6.895802E-01
  6.829291E-01
  6.762831E-01
  6.693993E-01
  6.623381E-01
  6.552368E-01
  6.477366E-01
  6.402401E-01
  6.324104E-01
  6.244721E-01
  6.163145E-01
  6.079539E-01
  5.994347E-01
  5.906759E-01
  5.817768E-01
  5.726533E-01
  5.633793E-01
  5.539374E-01
  5.443121E-01
  5.345907E-01
  5.246369E-01
  5.146012E-01
  5.044069E-01
  4.940656E-01
  4.836226E-01
  4.730370E-01
  4.622869E-01
  4.514004E-01
  4.403614E-01
  4.291596E-01
  4.178472E-01
  4.067973E-01
  3.968137E-01
  3.892381E-01
  3.864272E-01
  3.935733E-01
  4.076251E-01
  3.888978E-01
  4.045334E-01
  1.382029E-01
  4.111120E-02
  5.348847E-02
  5.349051E-02
  5.349254E-02
  5.349458E-02
  5.349662E-02
  5.349865E-02
  5.350069E-02
  5.350273E-02
  5.350478E-02
  5.350558E-02
  5.350632E-02
  5.350707E-02
  5.350782E-02
  5.350858E-02
  5.350933E-02
  5.351009E-02
  5.351015E-02
  5.350869E-02
  5.350723E-02
  5.350578E-02
  5.350433E-02
  5.350288E-02
  5.350143E-02
  5.350003E-02
  5.349935E-02
  5.349867E-02
  5.349799E-02
  5.349732E-02
  5.349665E-02
  5.349598E-02
  5.349469E-02
  5.349009E-02
  5.348549E-02
  5.348089E-02
  5.347630E-02
  5.347171E-02
  5.346713E-02
  5.345923E-02
  5.344919E-02
  5.343916E-02
  5.342914E-02
  5.341912E-02
  5.340911E-02
  5.339758E-02
  5.338360E-02
  5.336963E-02
  5.335566E-02
  5.334171E-02
  5.332776E-02
  5.331176E-02
  5.329345E-02
  5.327516E-02
  5.325688E-02
  5.323861E-02
  5.322036E-02
  5.319658E-02
  5.317187E-02
  5.314719E-02
  5.312252E-02
  5.309789E-02
  5.306965E-02
  5.303806E-02
  5.300651E-02
  5.297499E-02
  5.294351E-02
  5.290783E-02
  5.286698E-02
  5.282616E-02
  5.278537E-02
  5.274463E-02
  5.269529E-02
  5.264095E-02
  5.258664E-02
  5.253235E-02
  5.247728E-02
  5.240860E-02
  5.233993E-02
  5.227129E-02
  5.220266E-02
  5.211613E-02
  5.202228E-02
  5.192845E-02
  5.183464E-02
  5.170991E-02
  5.156281E-02
  5.141571E-02
  5.126861E-02
  5.107146E-02
  5.084825E-02
  5.062504E-02
  5.040182E-02
  5.009611E-02
  4.978439E-02
  4.947278E-02
  4.911616E-02
  4.868956E-02
  4.826343E-02
  4.783429E-02
  4.728321E-02
  4.673326E-02
  4.618441E-02
  4.557519E-02
  4.495524E-02
  4.433694E-02
  4.371914E-02
  4.310283E-02
  4.248828E-02
  4.191654E-02
  4.135018E-02
  4.079801E-02
  4.030747E-02
  3.981790E-02
  3.938089E-02
  3.898311E-02
  3.859535E-02
  3.829430E-02
  3.799338E-02
  3.776191E-02
  3.755346E-02
  3.738638E-02
  3.725760E-02
  3.715085E-02
  3.707726E-02
  3.701452E-02
  3.696900E-02
  3.692893E-02
  3.689507E-02
  3.686416E-02
  3.683542E-02
  3.681045E-02
  3.678944E-02
  3.677584E-02
  3.677761E-02
  3.679452E-02
  3.683812E-02
  3.692601E-02
  3.705971E-02
  3.725425E-02
  3.753213E-02
  3.796006E-02
  3.862940E-02
  3.972740E-02
  4.156438E-02
  4.466746E-02
  5.006707E-02
  5.768951E-02
  6.176927E-02
  7.150556E-02
  3.584568E-02
  8.965606E-03
  1.750196E-01
  1.749804E-01
  1.749411E-01
  1.749019E-01
  1.748627E-01
  1.748235E-01
  1.747843E-01
  1.747451E-01
  1.747059E-01
  1.745915E-01
  1.744736E-01
  1.743558E-01
  1.742380E-01
  1.741202E-01
  1.740024E-01
  1.738845E-01
  1.737481E-01
  1.735711E-01
  1.733942E-01
  1.732172E-01
  1.730403E-01
  1.728633E-01
  1.726863E-01
  1.725067E-01
  1.722809E-01
  1.720552E-01
  1.718294E-01
  1.716036E-01
  1.713779E-01
  1.711521E-01
  1.709169E-01
  1.706313E-01
  1.703457E-01
  1.700602E-01
  1.697746E-01
  1.694890E-01
  1.692035E-01
  1.688753E-01
  1.685196E-01
  1.681639E-01
  1.678082E-01
  1.674525E-01
  1.670968E-01
  1.667129E-01
  1.662834E-01
  1.658539E-01
  1.654244E-01
  1.649949E-01
  1.645654E-01
  1.641003E-01
  1.635952E-01
  1.630900E-01
  1.625849E-01
  1.620798E-01
  1.615746E-01
  1.610076E-01
  1.604298E-01
  1.598521E-01
  1.592745E-01
  1.586968E-01
  1.580876E-01
  1.574488E-01
  1.568100E-01
  1.561713E-01
  1.555326E-01
  1.548704E-01
  1.541792E-01
  1.534880E-01
  1.527969E-01
  1.521059E-01
  1.513888E-01
  1.506565E-01
  1.499242E-01
  1.491920E-01
  1.484592E-01
  1.477183E-01
  1.469773E-01
  1.462364E-01
  1.454954E-01
  1.447647E-01
  1.440381E-01
  1.433116E-01
  1.425850E-01
  1.418610E-01
  1.411388E-01
  1.404167E-01
  1.396946E-01
  1.389803E-01
  1.382703E-01
  1.375603E-01
  1.368504E-01
  1.361799E-01
  1.355126E-01
  1.348456E-01
  1.341872E-01
  1.335427E-01
  1.328987E-01
  1.322541E-01
  1.315695E-01
  1.308862E-01
  1.302042E-01
  1.294692E-01
  1.287253E-01
  1.279809E-01
  1.271754E-01
  1.263558E-01
  1.255388E-01
  1.245929E-01
  1.236373E-01
  1.226492E-01
  1.214972E-01
  1.203475E-01
  1.190717E-01
  1.177018E-01
  1.163115E-01
  1.147217E-01
  1.131331E-01
  1.113921E-01
  1.096011E-01
  1.077228E-01
  1.057638E-01
  1.037548E-01
  1.016705E-01
  9.955590E-02
  9.739322E-02
  9.521752E-02
  9.302739E-02
  9.085213E-02
  8.868498E-02
  8.658374E-02
  8.452190E-02
  8.254394E-02
  8.068319E-02
  7.891571E-02
  7.729656E-02
  7.586773E-02
  7.459979E-02
  7.352080E-02
  7.266890E-02
  7.218588E-02
  7.229889E-02
  7.353467E-02
  7.681637E-02
  8.358920E-02
  9.610351E-02
  1.130994E-01
  1.186935E-01
  1.241985E-01
 -8.265173E-03
  5.153800E-08
  9.757334E-01
  9.755996E-01
  9.754659E-01
  9.753321E-01
  9.751984E-01
  9.750647E-01
  9.749309E-01
  9.747972E-01
  9.746635E-01
  9.742480E-01
  9.738196E-01
  9.733912E-01
  9.729629E-01
  9.725345E-01
  9.721062E-01
  9.716779E-01
  9.711624E-01
  9.704572E-01
  9.697520E-01
  9.690468E-01
  9.683416E-01
  9.676364E-01
  9.669312E-01
  9.662124E-01
  9.652603E-01