 Title= "ADflow Lift Distribution Data"
Variables = "eta" "CoordinateX" "CoordinateY" "CoordinateZ" "Lift" "Drag" "Moment" "Normalized Lift" "Normalized Drag" "Normalized Moment" "CL" "CD" "CM" "CLp" "CDp" "CMp" "CLv" "CDv" "CMv" "Elliptical" "thickness" "twist" "chord" "fx" "fy" "fz" 
Zone T= "LiftDist_01 allWalls: : z normal"
 I=          150
 DATAPACKING=BLOCK
  0.000000E+00
  6.711405E-03
  1.342281E-02
  2.013422E-02
  2.684563E-02
  3.355704E-02
  4.026845E-02
  4.697986E-02
  5.369127E-02
  6.040268E-02
  6.711409E-02
  7.382550E-02
  8.053691E-02
  8.724832E-02
  9.395973E-02
  1.006711E-01
  1.073825E-01
  1.140940E-01
  1.208054E-01
  1.275168E-01
  1.342282E-01
  1.409396E-01
  1.476510E-01
  1.543624E-01
  1.610738E-01
  1.677852E-01
  1.744966E-01
  1.812081E-01
  1.879195E-01
  1.946309E-01
  2.013423E-01
  2.080537E-01
  2.147651E-01
  2.214765E-01
  2.281879E-01
  2.348993E-01
  2.416107E-01
  2.483221E-01
  2.550336E-01
  2.617450E-01
  2.684564E-01
  2.751678E-01
  2.818792E-01
  2.885906E-01
  2.953020E-01
  3.020134E-01
  3.087248E-01
  3.154362E-01
  3.221476E-01
  3.288591E-01
  3.355705E-01
  3.422819E-01
  3.489933E-01
  3.557047E-01
  3.624161E-01
  3.691275E-01
  3.758389E-01
  3.825503E-01
  3.892617E-01
  3.959732E-01
  4.026846E-01
  4.093960E-01
  4.161074E-01
  4.228188E-01
  4.295302E-01
  4.362416E-01
  4.429530E-01
  4.496644E-01
  4.563758E-01
  4.630872E-01
  4.697987E-01
  4.765101E-01
  4.832215E-01
  4.899329E-01
  4.966443E-01
  5.033557E-01
  5.100671E-01
  5.167785E-01
  5.234899E-01
  5.302013E-01
  5.369128E-01
  5.436242E-01
  5.503356E-01
  5.570470E-01
  5.637584E-01
  5.704698E-01
  5.771812E-01
  5.838926E-01
  5.906040E-01
  5.973154E-01
  6.040268E-01
  6.107383E-01
  6.174497E-01
  6.241611E-01
  6.308725E-01
  6.375839E-01
  6.442953E-01
  6.510067E-01
  6.577181E-01
  6.644295E-01
  6.711409E-01
  6.778524E-01
  6.845638E-01
  6.912752E-01
  6.979866E-01
  7.046980E-01
  7.114094E-01
  7.181208E-01
  7.248322E-01
  7.315436E-01
  7.382550E-01
  7.449664E-01
  7.516779E-01
  7.583893E-01
  7.651007E-01
  7.718121E-01
  7.785235E-01
  7.852349E-01
  7.919463E-01
  7.986577E-01
  8.053691E-01
  8.120805E-01
  8.187919E-01
  8.255034E-01
  8.322148E-01
  8.389262E-01
  8.456376E-01
  8.523490E-01
  8.590604E-01
  8.657718E-01
  8.724832E-01
  8.791946E-01
  8.859060E-01
  8.926175E-01
  8.993289E-01
  9.060403E-01
  9.127517E-01
  9.194631E-01
  9.261745E-01
  9.328859E-01
  9.395973E-01
  9.463087E-01
  9.530201E-01
  9.597315E-01
  9.664430E-01
  9.731544E-01
  9.798658E-01
  9.865772E-01
  9.932886E-01
  1.000000E+00
  0.000000E+00
  0.000000E+00
  0.000000E+00
  0.000000E+00
  0.000000E+00
  0.000000E+00
  0.000000E+00
  0.000000E+00
  0.000000E+00
  0.000000E+00
  0.000000E+00
  0.000000E+00
  0.000000E+00
  0.000000E+00
  0.000000E+00
  0.000000E+00
  0.000000E+00
  0.000000E+00
  0.000000E+00
  0.000000E+00
  0.000000E+00
  0.000000E+00
  0.000000E+00
  0.000000E+00
  0.000000E+00
  0.000000E+00
  0.000000E+00
  0.000000E+00
  0.000000E+00
  0.000000E+00
  0.000000E+00
  0.000000E+00
  0.000000E+00
  0.000000E+00
  0.000000E+00
  0.000000E+00
  0.000000E+00
  0.000000E+00
  0.000000E+00
  0.000000E+00
  0.000000E+00
  0.000000E+00
  0.000000E+00
  0.000000E+00
  0.000000E+00
  0.000000E+00
  0.000000E+00
  0.000000E+00
  0.000000E+00
  0.000000E+00
  0.000000E+00
  0.000000E+00
  0.000000E+00
  0.000000E+00
  0.000000E+00
  0.000000E+00
  0.000000E+00
  0.000000E+00
  0.000000E+00
  0.000000E+00
  0.000000E+00
  0.000000E+00
  0.000000E+00
  0.000000E+00
  0.000000E+00
  0.000000E+00
  0.000000E+00
  0.000000E+00
  0.000000E+00
  0.000000E+00
  0.000000E+00
  0.000000E+00
  0.000000E+00
  0.000000E+00
  0.000000E+00
  0.000000E+00
  0.000000E+00
  0.000000E+00
  0.000000E+00
  0.000000E+00
  0.000000E+00
  0.000000E+00
  0.000000E+00
  0.000000E+00
  0.000000E+00
  0.000000E+00
  0.000000E+00
  0.000000E+00
  0.000000E+00
  0.000000E+00
  0.000000E+00
  0.000000E+00
  0.000000E+00
  0.000000E+00
  0.000000E+00
  0.000000E+00
  0.000000E+00
  0.000000E+00
  0.000000E+00
  0.000000E+00
  0.000000E+00
  0.000000E+00
  0.000000E+00
  0.000000E+00
  0.000000E+00
  0.000000E+00
  0.000000E+00
  0.000000E+00
  0.000000E+00
  0.000000E+00
  0.000000E+00
  0.000000E+00
  0.000000E+00
  0.000000E+00
  0.000000E+00
  0.000000E+00
  0.000000E+00
  0.000000E+00
  0.000000E+00
  0.000000E+00
  0.000000E+00
  0.000000E+00
  0.000000E+00
  0.000000E+00
  0.000000E+00
  0.000000E+00
  0.000000E+00
  0.000000E+00
  0.000000E+00
  0.000000E+00
  0.000000E+00
  0.000000E+00
  0.000000E+00
  0.000000E+00
  0.000000E+00
  0.000000E+00
  0.000000E+00
  0.000000E+00
  0.000000E+00
  0.000000E+00
  0.000000E+00
  0.000000E+00
  0.000000E+00
  0.000000E+00
  0.000000E+00
  0.000000E+00
  0.000000E+00
  0.000000E+00
  0.000000E+00
  0.000000E+00
  0.000000E+00
  0.000000E+00
  0.000000E+00
  0.000000E+00
  0.000000E+00
  0.000000E+00
  0.000000E+00
  0.000000E+00
  0.000000E+00
  0.000000E+00
  0.000000E+00
  0.000000E+00
  0.000000E+00
  0.000000E+00
  0.000000E+00
  0.000000E+00
  0.000000E+00
  0.000000E+00
  0.000000E+00
  0.000000E+00
  0.000000E+00
  0.000000E+00
  0.000000E+00
  0.000000E+00
  0.000000E+00
  0.000000E+00
  0.000000E+00
  0.000000E+00
  0.000000E+00
  0.000000E+00
  0.000000E+00
  0.000000E+00
  0.000000E+00
  0.000000E+00
  0.000000E+00
  0.000000E+00
  0.000000E+00
  0.000000E+00
  0.000000E+00
  0.000000E+00
  0.000000E+00
  0.000000E+00
  0.000000E+00
  0.000000E+00
  0.000000E+00
  0.000000E+00
  0.000000E+00
  0.000000E+00
  0.000000E+00
  0.000000E+00
  0.000000E+00
  0.000000E+00
  0.000000E+00
  0.000000E+00
  0.000000E+00
  0.000000E+00
  0.000000E+00
  0.000000E+00
  0.000000E+00
  0.000000E+00
  0.000000E+00
  0.000000E+00
  0.000000E+00
  0.000000E+00
  0.000000E+00
  0.000000E+00
  0.000000E+00
  0.000000E+00
  0.000000E+00
  0.000000E+00
  0.000000E+00
  0.000000E+00
  0.000000E+00
  0.000000E+00
  0.000000E+00
  0.000000E+00
  0.000000E+00
  0.000000E+00
  0.000000E+00
  0.000000E+00
  0.000000E+00
  0.000000E+00
  0.000000E+00
  0.000000E+00
  0.000000E+00
  0.000000E+00
  0.000000E+00
  0.000000E+00
  0.000000E+00
  0.000000E+00
  0.000000E+00
  0.000000E+00
  0.000000E+00
  0.000000E+00
  0.000000E+00
  0.000000E+00
  0.000000E+00
  0.000000E+00
  0.000000E+00
  0.000000E+00
  0.000000E+00
  0.000000E+00
  0.000000E+00
  0.000000E+00
  0.000000E+00
  0.000000E+00
  0.000000E+00
  0.000000E+00
  0.000000E+00
  0.000000E+00
  0.000000E+00
  0.000000E+00
  0.000000E+00
  0.000000E+00
  0.000000E+00
  0.000000E+00
  0.000000E+00
  0.000000E+00
  0.000000E+00
  0.000000E+00
  0.000000E+00
  0.000000E+00
  0.000000E+00
  0.000000E+00
  0.000000E+00
  0.000000E+00
  0.000000E+00
  0.000000E+00
  0.000000E+00
  0.000000E+00
  0.000000E+00
  0.000000E+00
  0.000000E+00
  0.000000E+00
  0.000000E+00
  0.000000E+00
  0.000000E+00
  0.000000E+00
  0.000000E+00
  0.000000E+00
  0.000000E+00
  0.000000E+00
  0.000000E+00
  0.000000E+00
  0.000000E+00
  0.000000E+00
  0.000000E+00
  0.000000E+00
  0.000000E+00
  0.000000E+00
  1.000000E-08
  1.690972E-02
  3.381945E-02
  5.072917E-02
  6.763890E-02
  8.454862E-02
  1.014583E-01
  1.183681E-01
  1.352778E-01
  1.521875E-01
  1.690972E-01
  1.860070E-01
  2.029167E-01
  2.198264E-01
  2.367361E-01
  2.536459E-01
  2.705556E-01
  2.874653E-01
  3.043750E-01
  3.212848E-01
  3.381945E-01
  3.551042E-01
  3.720139E-01
  3.889237E-01
  4.058334E-01
  4.227431E-01
  4.396528E-01
  4.565626E-01
  4.734723E-01
  4.903820E-01
  5.072917E-01
  5.242015E-01
  5.411112E-01
  5.580209E-01
  5.749306E-01
  5.918404E-01
  6.087501E-01
  6.256598E-01
  6.425695E-01
  6.594792E-01
  6.763890E-01
  6.932987E-01
  7.102084E-01
  7.271181E-01
  7.440279E-01
  7.609376E-01
  7.778473E-01
  7.947570E-01
  8.116668E-01
  8.285765E-01
  8.454862E-01
  8.623959E-01
  8.793057E-01
  8.962154E-01
  9.131251E-01
  9.300348E-01
  9.469446E-01
  9.638543E-01
  9.807640E-01
  9.976737E-01
  1.014583E+00
  1.031493E+00
  1.048403E+00
  1.065313E+00
  1.082222E+00
  1.099132E+00
  1.116042E+00
  1.132952E+00
  1.149861E+00
  1.166771E+00
  1.183681E+00
  1.200590E+00
  1.217500E+00
  1.234410E+00
  1.251320E+00
  1.268229E+00
  1.285139E+00
  1.302049E+00
  1.318958E+00
  1.335868E+00
  1.352778E+00
  1.369688E+00
  1.386597E+00
  1.403507E+00
  1.420417E+00
  1.437327E+00
  1.454236E+00
  1.471146E+00
  1.488056E+00
  1.504965E+00
  1.521875E+00
  1.538785E+00
  1.555695E+00
  1.572604E+00
  1.589514E+00
  1.606424E+00
  1.623334E+00
  1.640243E+00
  1.657153E+00
  1.674063E+00
  1.690972E+00
  1.707882E+00
  1.724792E+00
  1.741702E+00
  1.758611E+00
  1.775521E+00
  1.792431E+00
  1.809341E+00
  1.826250E+00
  1.843160E+00
  1.860070E+00
  1.876979E+00
  1.893889E+00
  1.910799E+00
  1.927709E+00
  1.944618E+00
  1.961528E+00
  1.978438E+00
  1.995347E+00
  2.012257E+00
  2.029167E+00
  2.046077E+00
  2.062986E+00
  2.079896E+00
  2.096806E+00
  2.113716E+00
  2.130625E+00
  2.147535E+00
  2.164445E+00
  2.181354E+00
  2.198264E+00
  2.215174E+00
  2.232084E+00
  2.248993E+00
  2.265903E+00
  2.282813E+00
  2.299723E+00
  2.316632E+00
  2.333542E+00
  2.350452E+00
  2.367361E+00
  2.384271E+00
  2.401181E+00
  2.418091E+00
  2.435000E+00
  2.451910E+00
  2.468820E+00
  2.485729E+00
  2.502639E+00
  2.519549E+00
  1.102085E+04
  1.101932E+04
  1.101780E+04
  1.101627E+04
  1.101474E+04
  1.101321E+04
  1.101168E+04
  1.101015E+04
  1.100862E+04
  1.100394E+04
  1.099912E+04
  1.099430E+04
  1.098948E+04
  1.098466E+04
  1.097984E+04
  1.097502E+04
  1.096923E+04
  1.096134E+04
  1.095345E+04
  1.094556E+04
  1.093768E+04
  1.092979E+04
  1.092190E+04
  1.091386E+04
  1.090316E+04
  1.089246E+04
  1.088176E+04
  1.087106E+04
  1.086037E+04
  1.084967E+04
  1.083849E+04
  1.082477E+04
  1.081104E+04
  1.079732E+04
  1.078360E+04
  1.076987E+04
  1.075615E+04
  1.074044E+04
  1.072346E+04
  1.070647E+04
  1.068948E+04
  1.067249E+04
  1.065550E+04
  1.063722E+04
  1.061686E+04
  1.059649E+04
  1.057613E+04
  1.055576E+04
  1.053540E+04
  1.051340E+04
  1.048957E+04
  1.046574E+04
  1.044191E+04
  1.041809E+04
  1.039426E+04
  1.036741E+04
  1.034004E+04
  1.031267E+04
  1.028530E+04
  1.025793E+04
  1.022874E+04
  1.019784E+04
  1.016694E+04
  1.013604E+04
  1.010515E+04
  1.007267E+04
  1.003822E+04
  1.000378E+04
  9.969337E+03
  9.934899E+03
  9.898164E+03
  9.860088E+03
  9.822015E+03
  9.783942E+03
  9.745666E+03
  9.703920E+03
  9.662175E+03
  9.620431E+03
  9.578688E+03
  9.534329E+03
  9.488899E+03
  9.443471E+03
  9.398043E+03
  9.350443E+03
  9.301274E+03
  9.252106E+03
  9.202941E+03
  9.151416E+03
  9.098664E+03
  9.045917E+03
  8.993174E+03
  8.937347E+03
  8.881301E+03
  8.825262E+03
  8.767893E+03
  8.708453E+03
  8.649030E+03
  8.589528E+03
  8.526699E+03
  8.463905E+03
  8.401144E+03
  8.336175E+03
  8.270806E+03
  8.205490E+03
  8.138177E+03
  8.070406E+03
  8.002698E+03
  7.931865E+03
  7.860798E+03
  7.789033E+03
  7.713721E+03
  7.638469E+03
  7.560493E+03
  7.480486E+03
  7.400020E+03
  7.314991E+03
  7.230004E+03
  7.141215E+03
  7.051185E+03
  6.958664E+03
  6.863837E+03
  6.767219E+03
  6.667895E+03
  6.566997E+03
  6.463584E+03
  6.358496E+03
  6.251539E+03
  6.142554E+03
  6.032509E+03
  5.919901E+03
  5.806393E+03
  5.691142E+03
  5.574278E+03
  5.456296E+03
  5.336744E+03
  5.215374E+03
  5.092495E+03
  4.967930E+03
  4.841571E+03
  4.714033E+03
  4.589551E+03
  4.477237E+03
  4.392292E+03
  4.361395E+03
  4.443259E+03
  4.603348E+03
  4.392470E+03
  4.567988E+03
  1.345283E+03
  2.328039E-03
  6.045573E+02
  6.045621E+02
  6.045670E+02
  6.045719E+02
  6.045767E+02
  6.045816E+02
  6.045865E+02
  6.045914E+02
  6.045963E+02
  6.045763E+02
  6.045551E+02
  6.045340E+02
  6.045129E+02
  6.044918E+02
  6.044707E+02
  6.044497E+02
  6.044237E+02
  6.043869E+02
  6.043502E+02
  6.043135E+02
  6.042768E+02
  6.042401E+02
  6.042035E+02
  6.041673E+02
  6.041377E+02
  6.041081E+02
  6.040786E+02
  6.040491E+02
  6.040197E+02
  6.039903E+02
  6.039534E+02
  6.038772E+02
  6.038011E+02
  6.037249E+02
  6.036489E+02
  6.035729E+02
  6.034969E+02
  6.033843E+02
  6.032482E+02
  6.031121E+02
  6.029761E+02
  6.028402E+02
  6.027044E+02
  6.025545E+02
  6.023818E+02
  6.022092E+02
  6.020368E+02
  6.018645E+02
  6.016924E+02
  6.015058E+02
  6.013030E+02
  6.011003E+02
  6.008979E+02
  6.006957E+02
  6.004937E+02
  6.002518E+02
  6.000032E+02
  5.997550E+02
  5.995071E+02
  5.992595E+02
  5.989836E+02
  5.986812E+02
  5.983793E+02
  5.980779E+02
  5.977769E+02
  5.974341E+02
  5.970395E+02
  5.966455E+02
  5.962519E+02
  5.958588E+02
  5.953647E+02
  5.948117E+02
  5.942590E+02
  5.937068E+02
  5.931441E+02
  5.923990E+02
  5.916542E+02
  5.909096E+02
  5.901653E+02
  5.891882E+02
  5.881160E+02
  5.870439E+02
  5.859721E+02
  5.845322E+02
  5.828259E+02
  5.811195E+02
  5.794132E+02
  5.771321E+02
  5.745518E+02
  5.719714E+02
  5.693911E+02
  5.658754E+02
  5.622918E+02
  5.587096E+02
  5.546197E+02
  5.497407E+02
  5.448671E+02
  5.399600E+02
  5.336839E+02
  5.274207E+02
  5.211705E+02
  5.142528E+02
  5.072172E+02
  5.002007E+02
  4.932082E+02
  4.862374E+02
  4.792867E+02
  4.728417E+02
  4.664596E+02
  4.602420E+02
  4.547402E+02
  4.492492E+02
  4.443639E+02
  4.399307E+02
  4.356122E+02
  4.322880E+02
  4.289653E+02
  4.264357E+02
  4.241691E+02
  4.223725E+02
  4.210113E+02
  4.198969E+02
  4.191541E+02
  4.185273E+02
  4.180844E+02
  4.176924E+02
  4.173585E+02
  4.170423E+02
  4.167429E+02
  4.164649E+02
  4.162246E+02
  4.160536E+02
  4.160436E+02
  4.161961E+02
  4.166391E+02
  4.175723E+02
  4.190172E+02
  4.211444E+02
  4.242110E+02
  4.289754E+02
  4.364759E+02
  4.488348E+02
  4.695658E+02
  5.046406E+02
  5.657409E+02
  6.520393E+02
  6.980973E+02
  8.078907E+02
  3.485088E+02
  5.072472E-04
  1.990972E+03
  1.990545E+03
  1.990117E+03
  1.989690E+03
  1.989263E+03
  1.988836E+03
  1.988408E+03
  1.987981E+03
  1.987554E+03
  1.986316E+03
  1.985041E+03
  1.983766E+03
  1.982491E+03
  1.981216E+03
  1.979942E+03
  1.978667E+03
  1.977186E+03
  1.975255E+03
  1.973325E+03
  1.971394E+03
  1.969464E+03
  1.967533E+03
  1.965603E+03
  1.963640E+03
  1.961124E+03
  1.958608E+03
  1.956092E+03
  1.953577E+03
  1.951061E+03
  1.948545E+03
  1.945914E+03
  1.942669E+03
  1.939424E+03
  1.936179E+03
  1.932934E+03
  1.929690E+03
  1.926445E+03
  1.922675E+03
  1.918566E+03
  1.914457E+03
  1.910348E+03
  1.906239E+03
  1.902129E+03
  1.897663E+03
  1.892622E+03
  1.887581E+03
  1.882540E+03
  1.877498E+03
  1.872457E+03
  1.866959E+03
  1.860947E+03
  1.854935E+03
  1.848923E+03
  1.842911E+03
  1.836899E+03
  1.830093E+03
  1.823151E+03
  1.816209E+03
  1.809268E+03
  1.802327E+03
  1.794992E+03
  1.787290E+03
  1.779588E+03
  1.771886E+03
  1.764185E+03
  1.756221E+03
  1.747930E+03
  1.739639E+03
  1.731349E+03
  1.723060E+03
  1.714533E+03
  1.705868E+03
  1.697204E+03
  1.688539E+03
  1.679878E+03
  1.671272E+03
  1.662665E+03
  1.654059E+03
  1.645452E+03
  1.637086E+03
  1.628818E+03
  1.620551E+03
  1.612283E+03
  1.604130E+03
  1.596060E+03
  1.587990E+03
  1.579921E+03
  1.571995E+03
  1.564144E+03
  1.556294E+03
  1.548445E+03
  1.541048E+03
  1.533686E+03
  1.526327E+03
  1.519044E+03
  1.511879E+03
  1.504720E+03
  1.497552E+03
  1.489830E+03
  1.482122E+03
  1.474429E+03
  1.466036E+03
  1.457523E+03
  1.449004E+03
  1.439703E+03
  1.430218E+03
  1.420764E+03
  1.409759E+03
  1.398636E+03
  1.387132E+03
  1.373705E+03
  1.360305E+03
  1.345444E+03
  1.329491E+03
  1.313302E+03
  1.294818E+03
  1.276348E+03
  1.256139E+03
  1.235357E+03
  1.213591E+03
  1.190913E+03
  1.167678E+03
  1.143606E+03
  1.119209E+03
  1.094294E+03
  1.069259E+03
  1.044093E+03
  1.019141E+03
  9.943048E+02
  9.702813E+02
  9.467299E+02
  9.241784E+02
  9.030044E+02
  8.829202E+02
  8.645620E+02
  8.484068E+02
  8.341098E+02
  8.219925E+02
  8.124910E+02
  8.072262E+02
  8.087716E+02
  8.230927E+02
  8.606389E+02
  9.377542E+02
  1.079842E+03
  1.272568E+03
  1.336157E+03
  1.397507E+03
 -7.979039E+01
  2.918601E-09
  1.237038E+00
  1.236867E+00
  1.236695E+00
  1.236523E+00
  1.236352E+00
  1.236180E+00
  1.236008E+00
  1.235837E+00
  1.235665E+00
  1.235140E+00
  1.234599E+00
  1.234058E+00
  1.233517E+00
  1.232975E+00
  1.232434E+00
  1.231893E+00
  1.231244E+00
  1.230358E+00
  1.229473E+00
  1.228587E+00
  1.227702E+00
  1.226817E+00
  1.225931E+00
  1.225028E+00
  1.223827E+00
  1.222627E+00
  1.221426E+00
  1.220225E+00
  1.219024E+00
  1.217824E+00
  1.216569E+00
  1.215029E+00
  1.213488E+00
  1.211948E+00
  1.210407E+00
  1.208867E+00
  1.207327E+00
  1.205564E+00
  1.203657E+00
  1.201750E+00
  1.199843E+00
  1.197936E+00
  1.196029E+00
  1.193977E+00
  1.191691E+00
  1.189406E+00
  1.187120E+00
  1.184834E+00
  1.182548E+00
  1.180079E+00
  1.177405E+00
  1.174730E+00
  1.172055E+00
  1.169380E+00
  1.166706E+00
  1.163692E+00
  1.160620E+00
  1.157548E+00
  1.154476E+00
  1.151404E+00
  1.148127E+00
  1.144659E+00
  1.141191E+00
  1.137723E+00
  1.134255E+00
  1.130609E+00
  1.126743E+00
  1.122876E+00
  1.119011E+00
  1.115145E+00
  1.111022E+00
  1.106748E+00
  1.102474E+00
  1.098201E+00
  1.093905E+00
  1.089219E+00
  1.084533E+00
  1.079848E+00
  1.075162E+00
  1.070183E+00
  1.065084E+00
  1.059985E+00
  1.054886E+00
  1.049543E+00
  1.044024E+00
  1.038505E+00
  1.032986E+00
  1.027203E+00
  1.021282E+00
  1.015361E+00
  1.009441E+00
  1.003175E+00
  9.968836E-01
  9.905935E-01
  9.841542E-01
  9.774823E-01
  9.708123E-01
  9.641335E-01
  9.570813E-01
  9.500330E-01
  9.429884E-01
  9.356959E-01
  9.283586E-01
  9.210271E-01
  9.134716E-01
  9.058646E-01
  8.982647E-01
  8.903141E-01
  8.823371E-01
  8.742818E-01
  8.658284E-01
  8.573817E-01
  8.486293E-01
  8.396488E-01
  8.306169E-01
  8.210729E-01
  8.115335E-01
  8.015674E-01
  7.914619E-01
  7.810768E-01
  7.704330E-01
  7.595880E-01
  7.484394E-01
  7.371141E-01
  7.255065E-01
  7.137108E-01
  7.017055E-01
  6.894725E-01
  6.771204E-01
  6.644806E-01
  6.517399E-01
  6.388035E-01
  6.256861E-01
  6.124432E-01
  5.990241E-01
  5.854008E-01
  5.716083E-01
  5.576265E-01
  5.434433E-01
  5.291277E-01
  5.151552E-01
  5.025485E-01
  4.930138E-01
  4.895458E-01
  4.987347E-01
  5.167039E-01
  4.930339E-01
  5.127348E-01
  1.510016E-01
  2.613113E-07
  1.102881E+00
  1.102890E+00
  1.102899E+00
  1.102908E+00
  1.102916E+00
  1.102925E+00
  1.102934E+00
  1.102943E+00
  1.102952E+00
  1.102916E+00
  1.102877E+00
  1.102839E+00
  1.102800E+00
  1.102762E+00
  1.102723E+00
  1.102685E+00
  1.102637E+00
  1.102570E+00
  1.102503E+00
  1.102436E+00
  1.102369E+00
  1.102302E+00
  1.102236E+00
  1.102170E+00
  1.102116E+00
  1.102062E+00
  1.102008E+00
  1.101954E+00
  1.101900E+00
  1.101847E+00
  1.101779E+00
  1.101640E+00
  1.101501E+00
  1.101363E+00
  1.101224E+00
  1.101085E+00
  1.100947E+00
  1.100741E+00
  1.100493E+00
  1.100245E+00
  1.099997E+00
  1.099749E+00
  1.099501E+00
  1.099227E+00
  1.098912E+00
  1.098598E+00
  1.098283E+00
  1.097969E+00
  1.097655E+00
  1.097314E+00
  1.096944E+00
  1.096575E+00
  1.096205E+00
  1.095836E+00
  1.095468E+00
  1.095027E+00
  1.094573E+00
  1.094120E+00
  1.093668E+00
  1.093216E+00
  1.092713E+00
  1.092161E+00
  1.091611E+00
  1.091061E+00
  1.090512E+00
  1.089886E+00
  1.089167E+00
  1.088448E+00
  1.087730E+00
  1.087013E+00
  1.086111E+00
  1.085102E+00
  1.084094E+00
  1.083087E+00
  1.082060E+00
  1.080701E+00
  1.079342E+00
  1.077984E+00
  1.076626E+00
  1.074844E+00
  1.072888E+00
  1.070932E+00
  1.068977E+00
  1.066350E+00
  1.063237E+00
  1.060124E+00
  1.057011E+00
  1.052850E+00
  1.048143E+00
  1.043435E+00
  1.038728E+00
  1.032315E+00
  1.025777E+00
  1.019242E+00
  1.011781E+00
  1.002880E+00
  9.939896E-01
  9.850376E-01
  9.735882E-01
  9.621625E-01
  9.507603E-01
  9.381404E-01
  9.253055E-01
  9.125056E-01
  8.997493E-01
  8.870326E-01
  8.743525E-01
  8.625950E-01
  8.509523E-01
  8.396096E-01
  8.295728E-01
  8.195557E-01
  8.106435E-01
  8.025562E-01
  7.946780E-01
  7.886138E-01
  7.825523E-01
  7.779375E-01
  7.738027E-01
  7.705251E-01
  7.680419E-01
  7.660090E-01
  7.646539E-01
  7.635104E-01
  7.627025E-01
  7.619874E-01
  7.613782E-01
  7.608014E-01
  7.602552E-01
  7.597481E-01
  7.593097E-01
  7.589977E-01
  7.589795E-01
  7.592578E-01
  7.600658E-01
  7.617682E-01
  7.644041E-01
  7.682849E-01
  7.738792E-01
  7.825707E-01
  7.962537E-01
  8.187998E-01
  8.566190E-01
  9.206052E-01
  1.032069E+00
  1.189501E+00
  1.273524E+00
  1.473818E+00
  6.357773E-01
  9.253603E-07
  1.259871E+00
  1.259601E+00
  1.259330E+00
  1.259060E+00
  1.258790E+00
  1.258519E+00
  1.258249E+00
  1.257979E+00
  1.257708E+00
  1.256925E+00
  1.256118E+00
  1.255311E+00
  1.254505E+00
  1.253698E+00
  1.252891E+00
  1.252084E+00
  1.251147E+00
  1.249926E+00
  1.248704E+00
  1.247482E+00
  1.246261E+00
  1.245039E+00
  1.243818E+00
  1.242575E+00
  1.240984E+00
  1.239392E+00
  1.237800E+00
  1.236208E+00
  1.234616E+00
  1.233024E+00
  1.231359E+00
  1.229305E+00
  1.227252E+00
  1.225199E+00
  1.223145E+00
  1.221092E+00
  1.219039E+00
  1.216653E+00
  1.214053E+00
  1.211453E+00
  1.208853E+00
  1.206253E+00
  1.203652E+00
  1.200826E+00
  1.197636E+00
  1.194446E+00
  1.191256E+00
  1.188066E+00
  1.184876E+00
  1.181397E+00
  1.177592E+00
  1.173788E+00
  1.169983E+00
  1.166179E+00
  1.162375E+00
  1.158068E+00
  1.153675E+00
  1.149283E+00
  1.144890E+00
  1.140498E+00
  1.135857E+00
  1.130983E+00
  1.126109E+00
  1.121236E+00
  1.116362E+00
  1.111322E+00
  1.106076E+00
  1.100830E+00
  1.095584E+00
  1.090338E+00
  1.084943E+00
  1.079460E+00
  1.073977E+00
  1.068494E+00
  1.063013E+00
  1.057567E+00
  1.052121E+00
  1.046675E+00
  1.041229E+00
  1.035935E+00
  1.030703E+00
  1.025472E+00
  1.020240E+00
  1.015081E+00
  1.009974E+00
  1.004868E+00
  9.997613E-01
  9.947457E-01
  9.897778E-01
  9.848105E-01
  9.798438E-01
  9.751627E-01
  9.705044E-01
  9.658478E-01
  9.612387E-01
  9.567046E-01
  9.521749E-01
  9.476392E-01
  9.427522E-01
  9.378749E-01
  9.330071E-01
  9.276959E-01
  9.223086E-01
  9.169183E-01
  9.110324E-01
  9.050307E-01
  8.990478E-01
  8.920844E-01
  8.850460E-01
  8.777661E-01
  8.692698E-01
  8.607903E-01
  8.513862E-01
  8.412912E-01
  8.310471E-01
  8.193506E-01
  8.076626E-01
  7.948745E-01
  7.817240E-01
  7.679506E-01
  7.536001E-01
  7.388975E-01
  7.236648E-01
  7.082264E-01
  6.924602E-01
  6.766188E-01
  6.606940E-01
  6.449043E-01
  6.291881E-01
  6.139863E-01
  5.990831E-01
  5.848127E-01
  5.714140E-01
  5.587048E-01
  5.470879E-01
  5.368650E-01
  5.278180E-01
  5.201502E-01
  5.141378E-01
  5.108063E-01
  5.117842E-01
  5.208465E-01
  5.446054E-01
  5.934033E-01
  6.833151E-01
  8.052708E-01
  8.455095E-01
  8.843310E-01
 -5.049072E-02
  1.846867E-12
  9.757944E-01
  9.756590E-01
  9.755236E-01
  9.753882E-01
  9.752528E-01
  9.751174E-01
  9.749820E-01
  9.748466E-01
  9.747112E-01
  9.742970E-01
  9.738701E-01
  9.734432E-01
  9.730163E-01
  9.725894E-01
  9.721625E-01
  9.717356E-01
  9.712233E-01
  9.705248E-01
  9.698263E-01
  9.691278E-01
  9.684294E-01
  9.677309E-01
  9.670324E-01
  9.663202E-01
  9.653730E-01
  9.644257E-01
  9.634785E-01
  9.625313E-01
  9.615841E-01
  9.606369E-01
  9.596471E-01
  9.584319E-01
  9.572168E-01
  9.560016E-01
  9.547865E-01
  9.535713E-01
  9.523562E-01
  9.509655E-01
  9.494612E-01
  9.479569E-01
  9.464526E-01
  9.449484E-01
  9.434442E-01
  9.418254E-01
  9.400221E-01
  9.382188E-01
  9.364156E-01
  9.346124E-01
  9.328093E-01
  9.308617E-01
  9.287515E-01
  9.266414E-01
  9.245314E-01
  9.224214E-01
  9.203116E-01
  9.179339E-01
  9.155103E-01
  9.130868E-01
  9.106635E-01
  9.082403E-01
  9.056553E-01
  9.029190E-01
  9.001829E-01
  8.974470E-01
  8.947113E-01
  8.918350E-01
  8.887849E-01
  8.857350E-01
  8.826853E-01
  8.796357E-01
  8.763828E-01
  8.730112E-01
  8.696398E-01
  8.662684E-01
  8.628790E-01
  8.591823E-01
  8.554857E-01
  8.517891E-01
  8.480927E-01
  8.441646E-01
  8.401417E-01
  8.361188E-01
  8.320961E-01
  8.278812E-01
  8.235273E-01
  8.191737E-01
  8.148202E-01
  8.102582E-01
  8.055877E-01
  8.009176E-01
  7.962479E-01
  7.913059E-01
  7.863444E-01
  7.813835E-01
  7.763052E-01
  7.710439E-01
  7.657839E-01
  7.605169E-01
  7.549558E-01
  7.493974E-01
  7.438417E-01
  7.380904E-01
  7.323032E-01
  7.265198E-01
  7.205590E-01
  7.145572E-01
  7.085605E-01
  7.022870E-01
  6.959923E-01
  6.896358E-01
  6.829653E-01
  6.763000E-01
  6.693939E-01
  6.623083E-01
  6.551822E-01
  6.476531E-01
  6.401278E-01
  6.322667E-01
  6.242961E-01
  6.161055E-01
  6.077112E-01
  5.991586E-01
  5.903668E-01
  5.814355E-01
  5.722816E-01
  5.629792E-01
  5.535112E-01
  5.438633E-01
  5.341211E-01
  5.241517E-01
  5.141022E-01
  5.038976E-01
  4.935497E-01
  4.831024E-01
  4.725157E-01
  4.617678E-01
  4.508859E-01
  4.398545E-01
  4.286641E-01
  4.173690E-01
  4.063444E-01
  3.963970E-01
  3.888726E-01
  3.861332E-01
  3.933767E-01
  4.075452E-01
  3.888710E-01
  4.044046E-01
  1.387455E-01
  4.130135E-02
  5.352795E-02
  5.352837E-02
  5.352880E-02
  5.352923E-02
  5.352966E-02
  5.353009E-02
  5.353052E-02
  5.353096E-02
  5.353139E-02
  5.352962E-02
  5.352774E-02
  5.352587E-02
  5.352400E-02
  5.352213E-02
  5.352027E-02
  5.351840E-02
  5.351610E-02
  5.351284E-02
  5.350959E-02
  5.350634E-02
  5.350309E-02
  5.349984E-02
  5.349659E-02
  5.349338E-02
  5.349076E-02
  5.348814E-02
  5.348553E-02
  5.348291E-02
  5.348030E-02
  5.347770E-02
  5.347443E-02
  5.346768E-02
  5.346093E-02
  5.345419E-02
  5.344745E-02
  5.344072E-02
  5.343399E-02
  5.342402E-02
  5.341196E-02
  5.339990E-02
  5.338786E-02
  5.337582E-02
  5.336378E-02
  5.335050E-02
  5.333521E-02
  5.331992E-02
  5.330465E-02
  5.328939E-02
  5.327413E-02
  5.325760E-02
  5.323963E-02
  5.322168E-02
  5.320375E-02
  5.318584E-02
  5.316794E-02
  5.314650E-02
  5.312448E-02
  5.310249E-02
  5.308053E-02
  5.305860E-02
  5.303415E-02
  5.300737E-02
  5.298062E-02
  5.295391E-02
  5.292725E-02
  5.289688E-02
  5.286193E-02
  5.282702E-02
  5.279215E-02
  5.275732E-02
  5.271355E-02
  5.266456E-02
  5.261561E-02
  5.256669E-02
  5.251684E-02
  5.245084E-02
  5.238486E-02
  5.231890E-02
  5.225297E-02
  5.216642E-02
  5.207145E-02
  5.197649E-02
  5.188156E-02
  5.175404E-02
  5.160294E-02
  5.145183E-02
  5.130073E-02
  5.109876E-02
  5.087031E-02
  5.064185E-02
  5.041340E-02
  5.010218E-02
  4.978494E-02
  4.946782E-02
  4.910578E-02
  4.867388E-02
  4.824247E-02
  4.780807E-02
  4.725249E-02
  4.669804E-02
  4.614471E-02
  4.553228E-02
  4.490938E-02
  4.428812E-02
  4.366895E-02
  4.305167E-02
  4.243614E-02
  4.186538E-02
  4.130017E-02
  4.074951E-02
  4.026225E-02
  3.977593E-02
  3.934326E-02
  3.895065E-02
  3.856818E-02
  3.827382E-02
  3.797959E-02
  3.775563E-02
  3.755498E-02
  3.739597E-02
  3.727555E-02
  3.717699E-02
  3.711136E-02
  3.705600E-02
  3.701693E-02
  3.698236E-02
  3.695291E-02
  3.692503E-02
  3.689861E-02
  3.687406E-02
  3.685282E-02
  3.683767E-02
  3.683673E-02
  3.685016E-02
  3.688926E-02
  3.697174E-02
  3.709949E-02
  3.728762E-02
  3.755889E-02
  3.798044E-02
  3.864420E-02
  3.973807E-02
  4.157312E-02
  4.467802E-02
  5.008695E-02
  5.772656E-02
  6.180344E-02
  7.152268E-02
  3.594338E-02
  8.998987E-03
  1.762821E-01
  1.762443E-01
  1.762064E-01
  1.761686E-01
  1.761308E-01
  1.760929E-01
  1.760551E-01
  1.760173E-01
  1.759795E-01
  1.758698E-01
  1.757570E-01
  1.756441E-01
  1.755312E-01
  1.754183E-01
  1.753054E-01
  1.751926E-01
  1.750614E-01
  1.748905E-01
  1.747195E-01
  1.745486E-01
  1.743777E-01
  1.742067E-01
  1.740358E-01
  1.738620E-01
  1.736392E-01
  1.734165E-01
  1.731937E-01
  1.729710E-01
  1.727482E-01
  1.725255E-01
  1.722925E-01
  1.720052E-01
  1.717179E-01
  1.714305E-01
  1.711432E-01
  1.708559E-01
  1.705686E-01
  1.702348E-01
  1.698710E-01
  1.695071E-01
  1.691433E-01
  1.687795E-01
  1.684156E-01
  1.680201E-01
  1.675738E-01
  1.671274E-01
  1.666810E-01
  1.662346E-01
  1.657883E-01
  1.653015E-01
  1.647691E-01
  1.642367E-01
  1.637044E-01
  1.631720E-01
  1.626397E-01
  1.620371E-01
  1.614224E-01
  1.608077E-01
  1.601931E-01
  1.595785E-01
  1.589290E-01
  1.582470E-01
  1.575650E-01
  1.568831E-01
  1.562012E-01
  1.554960E-01
  1.547618E-01
  1.540277E-01
  1.532937E-01
  1.525597E-01
  1.518047E-01
  1.510374E-01
  1.502702E-01
  1.495029E-01
  1.487360E-01
  1.479739E-01
  1.472118E-01
  1.464497E-01
  1.456876E-01
  1.449467E-01
  1.442146E-01
  1.434825E-01
  1.427504E-01
  1.420285E-01
  1.413139E-01
  1.405993E-01
  1.398848E-01
  1.391830E-01
  1.384879E-01
  1.377929E-01
  1.370980E-01
  1.364432E-01
  1.357916E-01
  1.351401E-01
  1.344954E-01
  1.338613E-01
  1.332277E-01
  1.325933E-01
  1.319098E-01
  1.312277E-01
  1.305468E-01
  1.298038E-01
  1.290501E-01
  1.282958E-01
  1.274721E-01
  1.266321E-01
  1.257947E-01
  1.248200E-01
  1.238348E-01
  1.228157E-01
  1.216265E-01
  1.204396E-01
  1.191235E-01
  1.177107E-01
  1.162770E-01
  1.146403E-01
  1.130049E-01
  1.112156E-01
  1.093757E-01
  1.074488E-01
  1.054412E-01
  1.033844E-01
  1.012534E-01
  9.909366E-02
  9.688806E-02
  9.467189E-02
  9.244402E-02
  9.023501E-02
  8.803621E-02
  8.590931E-02
  8.382415E-02
  8.182740E-02
  7.995252E-02
  7.817407E-02
  7.654839E-02
  7.511771E-02
  7.385150E-02
  7.277822E-02
  7.193651E-02
  7.146985E-02
  7.160610E-02
  7.287340E-02
  7.619687E-02
  8.302344E-02
  9.560200E-02
  1.126634E-01
  1.182917E-01
  1.237215E-01
 -8.229165E-03
  5.177841E-08
  9.759817E-01
  9.758463E-01
  9.757110E-01
  9.755756E-01
  9.754402E-01
  9.753048E-01
  9.751695E-01
  9.750341E-01
  9.748988E-01
  9.744847E-01
  9.740579E-01
  9.736312E-01
  9.732044E-01
  9.727776E-01
  9.723508E-01
  9.719241E-01
  9.714119E-01
  9.707136E-01
  9.700153E-01
  9.693170E-01
  9.686188E-01
  9.679205E-01
  9.672223E-01
  9.665103E-01
  9.655633E-01