 Title= "ADflow Lift Distribution Data"
Variables = "eta" "CoordinateX" "CoordinateY" "CoordinateZ" "Lift" "Drag" "Moment" "Normalized Lift" "Normalized Drag" "Normalized Moment" "CL" "CD" "CM" "CLp" "CDp" "CMp" "CLv" "CDv" "CMv" "Elliptical" "thickness" "twist" "chord" "fx" "fy" "fz" 
Zone T= "LiftDist_01 allWalls: : z normal"
 I=          150
 DATAPACKING=BLOCK
  0.000000E+00
  6.711405E-03
  1.342281E-02
  2.013422E-02
  2.684563E-02
  3.355704E-02
  4.026845E-02
  4.697986E-02
  5.369127E-02
  6.040268E-02
  6.711409E-02
  7.382550E-02
  8.053691E-02
  8.724832E-02
  9.395973E-02
  1.006711E-01
  1.073825E-01
  1.140940E-01
  1.208054E-01
  1.275168E-01
  1.342282E-01
  1.409396E-01
  1.476510E-01
  1.543624E-01
  1.610738E-01
  1.677852E-01
  1.744966E-01
  1.812081E-01
  1.879195E-01
  1.946309E-01
  2.013423E-01
  2.080537E-01
  2.147651E-01
  2.214765E-01
  2.281879E-01
  2.348993E-01
  2.416107E-01
  2.483221E-01
  2.550336E-01
  2.617450E-01
  2.684564E-01
  2.751678E-01
  2.818792E-01
  2.885906E-01
  2.953020E-01
  3.020134E-01
  3.087248E-01
  3.154362E-01
  3.221476E-01
  3.288591E-01
  3.355705E-01
  3.422819E-01
  3.489933E-01
  3.557047E-01
  3.624161E-01
  3.691275E-01
  3.758389E-01
  3.825503E-01
  3.892617E-01
  3.959732E-01
  4.026846E-01
  4.093960E-01
  4.161074E-01
  4.228188E-01
  4.295302E-01
  4.362416E-01
  4.429530E-01
  4.496644E-01
  4.563758E-01
  4.630872E-01
  4.697987E-01
  4.765101E-01
  4.832215E-01
  4.899329E-01
  4.966443E-01
  5.033557E-01
  5.100671E-01
  5.167785E-01
  5.234899E-01
  5.302013E-01
  5.369128E-01
  5.436242E-01
  5.503356E-01
  5.570470E-01
  5.637584E-01
  5.704698E-01
  5.771812E-01
  5.838926E-01
  5.906040E-01
  5.973154E-01
  6.040268E-01
  6.107383E-01
  6.174497E-01
  6.241611E-01
  6.308725E-01
  6.375839E-01
  6.442953E-01
  6.510067E-01
  6.577181E-01
  6.644295E-01
  6.711409E-01
  6.778524E-01
  6.845638E-01
  6.912752E-01
  6.979866E-01
  7.046980E-01
  7.114094E-01
  7.181208E-01
  7.248322E-01
  7.315436E-01
  7.382550E-01
  7.449664E-01
  7.516779E-01
  7.583893E-01
  7.651007E-01
  7.718121E-01
  7.785235E-01
  7.852349E-01
  7.919463E-01
  7.986577E-01
  8.053691E-01
  8.120805E-01
  8.187919E-01
  8.255034E-01
  8.322148E-01
  8.389262E-01
  8.456376E-01
  8.523490E-01
  8.590604E-01
  8.657718E-01
  8.724832E-01
  8.791946E-01
  8.859060E-01
  8.926175E-01
  8.993289E-01
  9.060403E-01
  9.127517E-01
  9.194631E-01
  9.261745E-01
  9.328859E-01
  9.395973E-01
  9.463087E-01
  9.530201E-01
  9.597315E-01
  9.664430E-01
  9.731544E-01
  9.798658E-01
  9.865772E-01
  9.932886E-01
  1.000000E+00
  0.000000E+00
  0.000000E+00
  0.000000E+00
  0.000000E+00
  0.000000E+00
  0.000000E+00
  0.000000E+00
  0.000000E+00
  0.000000E+00
  0.000000E+00
  0.000000E+00
  0.000000E+00
  0.000000E+00
  0.000000E+00
  0.000000E+00
  0.000000E+00
  0.000000E+00
  0.000000E+00
  0.000000E+00
  0.000000E+00
  0.000000E+00
  0.000000E+00
  0.000000E+00
  0.000000E+00
  0.000000E+00
  0.000000E+00
  0.000000E+00
  0.000000E+00
  0.000000E+00
  0.000000E+00
  0.000000E+00
  0.000000E+00
  0.000000E+00
  0.000000E+00
  0.000000E+00
  0.000000E+00
  0.000000E+00
  0.000000E+00
  0.000000E+00
  0.000000E+00
  0.000000E+00
  0.000000E+00
  0.000000E+00
  0.000000E+00
  0.000000E+00
  0.000000E+00
  0.000000E+00
  0.000000E+00
  0.000000E+00
  0.000000E+00
  0.000000E+00
  0.000000E+00
  0.000000E+00
  0.000000E+00
  0.000000E+00
  0.000000E+00
  0.000000E+00
  0.000000E+00
  0.000000E+00
  0.000000E+00
  0.000000E+00
  0.000000E+00
  0.000000E+00
  0.000000E+00
  0.000000E+00
  0.000000E+00
  0.000000E+00
  0.000000E+00
  0.000000E+00
  0.000000E+00
  0.000000E+00
  0.000000E+00
  0.000000E+00
  0.000000E+00
  0.000000E+00
  0.000000E+00
  0.000000E+00
  0.000000E+00
  0.000000E+00
  0.000000E+00
  0.000000E+00
  0.000000E+00
  0.000000E+00
  0.000000E+00
  0.000000E+00
  0.000000E+00
  0.000000E+00
  0.000000E+00
  0.000000E+00
  0.000000E+00
  0.000000E+00
  0.000000E+00
  0.000000E+00
  0.000000E+00
  0.000000E+00
  0.000000E+00
  0.000000E+00
  0.000000E+00
  0.000000E+00
  0.000000E+00
  0.000000E+00
  0.000000E+00
  0.000000E+00
  0.000000E+00
  0.000000E+00
  0.000000E+00
  0.000000E+00
  0.000000E+00
  0.000000E+00
  0.000000E+00
  0.000000E+00
  0.000000E+00
  0.000000E+00
  0.000000E+00
  0.000000E+00
  0.000000E+00
  0.000000E+00
  0.000000E+00
  0.000000E+00
  0.000000E+00
  0.000000E+00
  0.000000E+00
  0.000000E+00
  0.000000E+00
  0.000000E+00
  0.000000E+00
  0.000000E+00
  0.000000E+00
  0.000000E+00
  0.000000E+00
  0.000000E+00
  0.000000E+00
  0.000000E+00
  0.000000E+00
  0.000000E+00
  0.000000E+00
  0.000000E+00
  0.000000E+00
  0.000000E+00
  0.000000E+00
  0.000000E+00
  0.000000E+00
  0.000000E+00
  0.000000E+00
  0.000000E+00
  0.000000E+00
  0.000000E+00
  0.000000E+00
  0.000000E+00
  0.000000E+00
  0.000000E+00
  0.000000E+00
  0.000000E+00
  0.000000E+00
  0.000000E+00
  0.000000E+00
  0.000000E+00
  0.000000E+00
  0.000000E+00
  0.000000E+00
  0.000000E+00
  0.000000E+00
  0.000000E+00
  0.000000E+00
  0.000000E+00
  0.000000E+00
  0.000000E+00
  0.000000E+00
  0.000000E+00
  0.000000E+00
  0.000000E+00
  0.000000E+00
  0.000000E+00
  0.000000E+00
  0.000000E+00
  0.000000E+00
  0.000000E+00
  0.000000E+00
  0.000000E+00
  0.000000E+00
  0.000000E+00
  0.000000E+00
  0.000000E+00
  0.000000E+00
  0.000000E+00
  0.000000E+00
  0.000000E+00
  0.000000E+00
  0.000000E+00
  0.000000E+00
  0.000000E+00
  0.000000E+00
  0.000000E+00
  0.000000E+00
  0.000000E+00
  0.000000E+00
  0.000000E+00
  0.000000E+00
  0.000000E+00
  0.000000E+00
  0.000000E+00
  0.000000E+00
  0.000000E+00
  0.000000E+00
  0.000000E+00
  0.000000E+00
  0.000000E+00
  0.000000E+00
  0.000000E+00
  0.000000E+00
  0.000000E+00
  0.000000E+00
  0.000000E+00
  0.000000E+00
  0.000000E+00
  0.000000E+00
  0.000000E+00
  0.000000E+00
  0.000000E+00
  0.000000E+00
  0.000000E+00
  0.000000E+00
  0.000000E+00
  0.000000E+00
  0.000000E+00
  0.000000E+00
  0.000000E+00
  0.000000E+00
  0.000000E+00
  0.000000E+00
  0.000000E+00
  0.000000E+00
  0.000000E+00
  0.000000E+00
  0.000000E+00
  0.000000E+00
  0.000000E+00
  0.000000E+00
  0.000000E+00
  0.000000E+00
  0.000000E+00
  0.000000E+00
  0.000000E+00
  0.000000E+00
  0.000000E+00
  0.000000E+00
  0.000000E+00
  0.000000E+00
  0.000000E+00
  0.000000E+00
  0.000000E+00
  0.000000E+00
  0.000000E+00
  0.000000E+00
  0.000000E+00
  0.000000E+00
  0.000000E+00
  0.000000E+00
  0.000000E+00
  0.000000E+00
  0.000000E+00
  0.000000E+00
  0.000000E+00
  0.000000E+00
  0.000000E+00
  0.000000E+00
  0.000000E+00
  0.000000E+00
  0.000000E+00
  0.000000E+00
  0.000000E+00
  0.000000E+00
  0.000000E+00
  0.000000E+00
  0.000000E+00
  0.000000E+00
  0.000000E+00
  0.000000E+00
  0.000000E+00
  0.000000E+00
  0.000000E+00
  0.000000E+00
  0.000000E+00
  0.000000E+00
  0.000000E+00
  0.000000E+00
  0.000000E+00
  0.000000E+00
  0.000000E+00
  0.000000E+00
  0.000000E+00
  0.000000E+00
  0.000000E+00
  0.000000E+00
  0.000000E+00
  0.000000E+00
  0.000000E+00
  0.000000E+00
  0.000000E+00
  0.000000E+00
  1.000000E-08
  1.690972E-02
  3.381945E-02
  5.072917E-02
  6.763890E-02
  8.454862E-02
  1.014583E-01
  1.183681E-01
  1.352778E-01
  1.521875E-01
  1.690972E-01
  1.860070E-01
  2.029167E-01
  2.198264E-01
  2.367361E-01
  2.536459E-01
  2.705556E-01
  2.874653E-01
  3.043750E-01
  3.212848E-01
  3.381945E-01
  3.551042E-01
  3.720139E-01
  3.889237E-01
  4.058334E-01
  4.227431E-01
  4.396528E-01
  4.565626E-01
  4.734723E-01
  4.903820E-01
  5.072917E-01
  5.242015E-01
  5.411112E-01
  5.580209E-01
  5.749306E-01
  5.918404E-01
  6.087501E-01
  6.256598E-01
  6.425695E-01
  6.594792E-01
  6.763890E-01
  6.932987E-01
  7.102084E-01
  7.271181E-01
  7.440279E-01
  7.609376E-01
  7.778473E-01
  7.947570E-01
  8.116668E-01
  8.285765E-01
  8.454862E-01
  8.623959E-01
  8.793057E-01
  8.962154E-01
  9.131251E-01
  9.300348E-01
  9.469446E-01
  9.638543E-01
  9.807640E-01
  9.976737E-01
  1.014583E+00
  1.031493E+00
  1.048403E+00
  1.065313E+00
  1.082222E+00
  1.099132E+00
  1.116042E+00
  1.132952E+00
  1.149861E+00
  1.166771E+00
  1.183681E+00
  1.200590E+00
  1.217500E+00
  1.234410E+00
  1.251320E+00
  1.268229E+00
  1.285139E+00
  1.302049E+00
  1.318958E+00
  1.335868E+00
  1.352778E+00
  1.369688E+00
  1.386597E+00
  1.403507E+00
  1.420417E+00
  1.437327E+00
  1.454236E+00
  1.471146E+00
  1.488056E+00
  1.504965E+00
  1.521875E+00
  1.538785E+00
  1.555695E+00
  1.572604E+00
  1.589514E+00
  1.606424E+00
  1.623334E+00
  1.640243E+00
  1.657153E+00
  1.674063E+00
  1.690972E+00
  1.707882E+00
  1.724792E+00
  1.741702E+00
  1.758611E+00
  1.775521E+00
  1.792431E+00
  1.809341E+00
  1.826250E+00
  1.843160E+00
  1.860070E+00
  1.876979E+00
  1.893889E+00
  1.910799E+00
  1.927709E+00
  1.944618E+00
  1.961528E+00
  1.978438E+00
  1.995347E+00
  2.012257E+00
  2.029167E+00
  2.046077E+00
  2.062986E+00
  2.079896E+00
  2.096806E+00
  2.113716E+00
  2.130625E+00
  2.147535E+00
  2.164445E+00
  2.181354E+00
  2.198264E+00
  2.215174E+00
  2.232084E+00
  2.248993E+00
  2.265903E+00
  2.282813E+00
  2.299723E+00
  2.316632E+00
  2.333542E+00
  2.350452E+00
  2.367361E+00
  2.384271E+00
  2.401181E+00
  2.418091E+00
  2.435000E+00
  2.451910E+00
  2.468820E+00
  2.485729E+00
  2.502639E+00
  2.519549E+00
  1.095055E+04
  1.094910E+04
  1.094766E+04
  1.094621E+04
  1.094477E+04
  1.094332E+04
  1.094188E+04
  1.094044E+04
  1.093899E+04
  1.093415E+04
  1.092915E+04
  1.092415E+04
  1.091916E+04
  1.091416E+04
  1.090916E+04
  1.090417E+04
  1.089806E+04
  1.088952E+04
  1.088099E+04
  1.087245E+04
  1.086392E+04
  1.085538E+04
  1.084685E+04
  1.083816E+04
  1.082671E+04
  1.081526E+04
  1.080382E+04
  1.079237E+04
  1.078093E+04
  1.076948E+04
  1.075755E+04
  1.074299E+04
  1.072844E+04
  1.071388E+04
  1.069933E+04
  1.068478E+04
  1.067022E+04
  1.065360E+04
  1.063565E+04
  1.061769E+04
  1.059974E+04
  1.058178E+04
  1.056383E+04
  1.054456E+04
  1.052318E+04
  1.050180E+04
  1.048042E+04
  1.045904E+04
  1.043766E+04
  1.041472E+04
  1.039002E+04
  1.036531E+04
  1.034061E+04
  1.031591E+04
  1.029122E+04
  1.026384E+04
  1.023601E+04
  1.020818E+04
  1.018036E+04
  1.015253E+04
  1.012330E+04
  1.009275E+04
  1.006221E+04
  1.003167E+04
  1.000113E+04
  9.969584E+03
  9.936798E+03
  9.904014E+03
  9.871233E+03
  9.838453E+03
  9.804435E+03
  9.769692E+03
  9.734950E+03
  9.700210E+03
  9.665359E+03
  9.628621E+03
  9.591884E+03
  9.555147E+03
  9.518410E+03
  9.480069E+03
  9.441071E+03
  9.402074E+03
  9.363078E+03
  9.322540E+03
  9.280888E+03
  9.239239E+03
  9.197594E+03
  9.153826E+03
  9.108957E+03
  9.064095E+03
  9.019238E+03
  8.970733E+03
  8.921968E+03
  8.873213E+03
  8.822676E+03
  8.769358E+03
  8.716057E+03
  8.662637E+03
  8.604395E+03
  8.546182E+03
  8.487999E+03
  8.425748E+03
  8.362713E+03
  8.299721E+03
  8.232874E+03
  8.165084E+03
  8.097344E+03
  8.025119E+03
  7.952515E+03
  7.879105E+03
  7.801683E+03
  7.724309E+03
  7.644265E+03
  7.562231E+03
  7.479788E+03
  7.393319E+03
  7.306884E+03
  7.217272E+03
  7.126624E+03
  7.033886E+03
  6.939216E+03
  6.842977E+03
  6.744370E+03
  6.644241E+03
  6.541680E+03
  6.437283E+03
  6.330840E+03
  6.221983E+03
  6.111867E+03
  5.998603E+03
  5.884224E+03
  5.767675E+03
  5.649101E+03
  5.529123E+03
  5.407168E+03
  5.282918E+03
  5.156742E+03
  5.028372E+03
  4.897575E+03
  4.764659E+03
  4.633775E+03
  4.513898E+03
  4.420049E+03
  4.379014E+03
  4.450582E+03
  4.600372E+03
  4.385796E+03
  4.605221E+03
  1.243621E+03
  2.310031E-03
  5.893690E+02
  5.894493E+02
  5.895297E+02
  5.896101E+02
  5.896906E+02
  5.897711E+02
  5.898517E+02
  5.899323E+02
  5.900130E+02
  5.900962E+02
  5.901797E+02
  5.902633E+02
  5.903469E+02
  5.904306E+02
  5.905144E+02
  5.905983E+02
  5.906542E+02
  5.906489E+02
  5.906437E+02
  5.906387E+02
  5.906337E+02
  5.906289E+02
  5.906242E+02
  5.906191E+02
  5.906074E+02
  5.905958E+02
  5.905844E+02
  5.905732E+02
  5.905621E+02
  5.905512E+02
  5.905339E+02
  5.904827E+02
  5.904317E+02
  5.903810E+02
  5.903305E+02
  5.902802E+02
  5.902302E+02
  5.901573E+02
  5.900698E+02
  5.899826E+02
  5.898958E+02
  5.898093E+02
  5.897231E+02
  5.896424E+02
  5.895703E+02
  5.894987E+02
  5.894276E+02
  5.893569E+02
  5.892867E+02
  5.892327E+02
  5.891972E+02
  5.891622E+02
  5.891278E+02
  5.890939E+02
  5.890607E+02
  5.890296E+02
  5.889994E+02
  5.889698E+02
  5.889409E+02
  5.889127E+02
  5.888656E+02
  5.888009E+02
  5.887368E+02
  5.886734E+02
  5.886106E+02
  5.884907E+02
  5.882998E+02
  5.881095E+02
  5.879196E+02
  5.877303E+02
  5.873564E+02
  5.868747E+02
  5.863931E+02
  5.859118E+02
  5.854064E+02
  5.844912E+02
  5.835760E+02
  5.826608E+02
  5.817456E+02
  5.804717E+02
  5.790511E+02
  5.776305E+02
  5.762101E+02
  5.745063E+02
  5.725977E+02
  5.706894E+02
  5.687816E+02
  5.666212E+02
  5.643296E+02
  5.620387E+02
  5.597484E+02
  5.571854E+02
  5.546033E+02
  5.520222E+02
  5.493023E+02
  5.463662E+02
  5.434322E+02
  5.404881E+02
  5.371192E+02
  5.337544E+02
  5.303936E+02
  5.267590E+02
  5.230744E+02
  5.193956E+02
  5.155598E+02
  5.116893E+02
  5.078251E+02
  5.038417E+02
  4.998526E+02
  4.958604E+02
  4.918308E+02
  4.878062E+02
  4.838189E+02
  4.798597E+02
  4.759195E+02
  4.721218E+02
  4.683260E+02
  4.647015E+02
  4.611339E+02
  4.577105E+02
  4.544195E+02
  4.512382E+02
  4.482213E+02
  4.452915E+02
  4.425008E+02
  4.398025E+02
  4.372074E+02
  4.347493E+02
  4.323623E+02
  4.302218E+02
  4.282030E+02
  4.264392E+02
  4.250258E+02
  4.238975E+02
  4.232344E+02
  4.232203E+02
  4.238027E+02
  4.251294E+02
  4.274131E+02
  4.313259E+02
  4.378120E+02
  4.488834E+02
  4.678892E+02
  5.005299E+02
  5.578620E+02
  6.384349E+02
  6.817962E+02
  7.939802E+02
  3.286006E+02
  5.320177E-04
  2.011181E+03
  2.010543E+03
  2.009905E+03
  2.009267E+03
  2.008629E+03
  2.007991E+03
  2.007353E+03
  2.006715E+03
  2.006077E+03
  2.004140E+03
  2.002143E+03
  2.000146E+03
  1.998150E+03
  1.996208E+03
  1.994212E+03
  1.992215E+03
  1.989879E+03
  1.986803E+03
  1.983727E+03
  1.980651E+03
  1.977575E+03
  1.974499E+03
  1.971424E+03
  1.968302E+03
  1.964400E+03
  1.960498E+03
  1.956595E+03
  1.952693E+03
  1.948791E+03
  1.944889E+03
  1.940835E+03
  1.935975E+03
  1.931115E+03
  1.926255E+03
  1.921395E+03
  1.916536E+03
  1.911676E+03
  1.906155E+03
  1.900205E+03
  1.894256E+03
  1.888307E+03
  1.882358E+03
  1.876409E+03
  1.870056E+03
  1.863054E+03
  1.856051E+03
  1.849049E+03
  1.842047E+03
  1.835045E+03
  1.827624E+03
  1.819733E+03
  1.811841E+03
  1.803950E+03
  1.796060E+03
  1.788170E+03
  1.779810E+03
  1.771369E+03
  1.762929E+03
  1.754490E+03
  1.746051E+03
  1.737621E+03
  1.729199E+03
  1.720778E+03
  1.712357E+03
  1.703937E+03
  1.695796E+03
  1.687999E+03
  1.680202E+03
  1.672406E+03
  1.664610E+03
  1.657551E+03
  1.650921E+03
  1.644292E+03
  1.637662E+03
  1.631124E+03
  1.626121E+03
  1.621118E+03
  1.616115E+03
  1.611112E+03
  1.607226E+03
  1.603798E+03
  1.600370E+03
  1.596943E+03
  1.593984E+03
  1.591366E+03
  1.588749E+03
  1.586133E+03
  1.583478E+03
  1.580804E+03
  1.578132E+03
  1.575462E+03
  1.572134E+03
  1.568760E+03
  1.565389E+03
  1.561436E+03
  1.556575E+03
  1.551719E+03
  1.546806E+03
  1.539704E+03
  1.532610E+03
  1.525525E+03
  1.516484E+03
  1.507061E+03
  1.497650E+03
  1.486569E+03
  1.475053E+03
  1.463575E+03
  1.450239E+03
  1.436742E+03
  1.422911E+03
  1.407433E+03
  1.391971E+03
  1.375478E+03
  1.358215E+03
  1.340808E+03
  1.321991E+03
  1.303184E+03
  1.283366E+03
  1.263218E+03
  1.242497E+03
  1.221245E+03
  1.199684E+03
  1.177657E+03
  1.155453E+03
  1.132965E+03
  1.110394E+03
  1.087730E+03
  1.065174E+03
  1.042676E+03
  1.020714E+03
  9.990866E+02
  9.781775E+02
  9.583133E+02
  9.392809E+02
  9.215816E+02
  9.055852E+02
  8.910100E+02
  8.780956E+02
  8.671770E+02
  8.596456E+02
  8.580764E+02
  8.684075E+02
  9.010916E+02
  9.726824E+02
  1.109410E+03
  1.298446E+03
  1.364736E+03
  1.448006E+03
 -1.043008E+02
  2.905390E-09
  1.232033E+00
  1.231870E+00
  1.231708E+00
  1.231545E+00
  1.231383E+00
  1.231220E+00
  1.231058E+00
  1.230895E+00
  1.230733E+00
  1.230188E+00
  1.229626E+00
  1.229063E+00
  1.228501E+00
  1.227939E+00
  1.227377E+00
  1.226815E+00
  1.226127E+00
  1.225167E+00
  1.224207E+00
  1.223246E+00
  1.222286E+00
  1.221326E+00
  1.220366E+00
  1.219388E+00
  1.218100E+00
  1.216812E+00
  1.215525E+00
  1.214237E+00
  1.212949E+00
  1.211662E+00
  1.210319E+00
  1.208681E+00
  1.207043E+00
  1.205406E+00
  1.203769E+00
  1.202131E+00
  1.200494E+00
  1.198624E+00
  1.196604E+00
  1.194584E+00
  1.192564E+00
  1.190544E+00
  1.188524E+00
  1.186356E+00
  1.183950E+00
  1.181545E+00
  1.179139E+00
  1.176734E+00
  1.174329E+00
  1.171748E+00
  1.168968E+00
  1.166189E+00
  1.163410E+00
  1.160631E+00
  1.157852E+00
  1.154773E+00
  1.151641E+00
  1.148510E+00
  1.145379E+00
  1.142249E+00
  1.138960E+00
  1.135523E+00
  1.132087E+00
  1.128651E+00
  1.125215E+00
  1.121666E+00
  1.117977E+00
  1.114289E+00
  1.110600E+00
  1.106913E+00
  1.103085E+00
  1.099176E+00
  1.095268E+00
  1.091359E+00
  1.087438E+00
  1.083305E+00
  1.079171E+00
  1.075038E+00
  1.070905E+00
  1.066591E+00
  1.062204E+00
  1.057816E+00
  1.053429E+00
  1.048868E+00
  1.044182E+00
  1.039496E+00
  1.034810E+00
  1.029886E+00
  1.024838E+00
  1.019790E+00
  1.014744E+00
  1.009286E+00
  1.003800E+00
  9.983146E-01
  9.926286E-01
  9.866299E-01
  9.806331E-01
  9.746228E-01
  9.680701E-01
  9.615207E-01
  9.549746E-01
  9.479708E-01
  9.408788E-01
  9.337916E-01
  9.262707E-01
  9.186438E-01
  9.110224E-01
  9.028964E-01
  8.947279E-01
  8.864686E-01
  8.777580E-01
  8.690527E-01
  8.600470E-01
  8.508175E-01
  8.415420E-01
  8.318134E-01
  8.220887E-01
  8.120066E-01
  8.018079E-01
  7.913741E-01
  7.807229E-01
  7.698952E-01
  7.588010E-01
  7.475355E-01
  7.359965E-01
  7.242509E-01
  7.122752E-01
  7.000279E-01
  6.876389E-01
  6.748956E-01
  6.620270E-01
  6.489141E-01
  6.355735E-01
  6.220750E-01
  6.083540E-01
  5.943747E-01
  5.801788E-01
  5.657361E-01
  5.510203E-01
  5.360660E-01
  5.213405E-01
  5.078532E-01
  4.972944E-01
  4.926776E-01
  5.007297E-01
  5.175823E-01
  4.934407E-01
  5.181279E-01
  1.399183E-01
  2.598988E-07
  1.078491E+00
  1.078638E+00
  1.078785E+00
  1.078932E+00
  1.079079E+00
  1.079227E+00
  1.079374E+00
  1.079522E+00
  1.079669E+00
  1.079822E+00
  1.079974E+00
  1.080127E+00
  1.080280E+00
  1.080433E+00
  1.080587E+00
  1.080740E+00
  1.080843E+00
  1.080833E+00
  1.080823E+00
  1.080814E+00
  1.080805E+00
  1.080796E+00
  1.080788E+00
  1.080778E+00
  1.080757E+00
  1.080736E+00
  1.080715E+00
  1.080694E+00
  1.080674E+00
  1.080654E+00
  1.080623E+00
  1.080529E+00
  1.080436E+00
  1.080343E+00
  1.080250E+00
  1.080158E+00
  1.080067E+00
  1.079933E+00
  1.079773E+00
  1.079614E+00
  1.079455E+00
  1.079296E+00
  1.079139E+00
  1.078991E+00
  1.078859E+00
  1.078728E+00
  1.078598E+00
  1.078469E+00
  1.078340E+00
  1.078241E+00
  1.078176E+00
  1.078112E+00
  1.078049E+00
  1.077988E+00
  1.077927E+00
  1.077870E+00
  1.077814E+00
  1.077760E+00
  1.077707E+00
  1.077656E+00
  1.077570E+00
  1.077451E+00
  1.077334E+00
  1.077218E+00
  1.077103E+00
  1.076884E+00
  1.076534E+00
  1.076186E+00
  1.075839E+00
  1.075492E+00
  1.074808E+00
  1.073926E+00
  1.073045E+00
  1.072165E+00
  1.071240E+00
  1.069565E+00
  1.067890E+00
  1.066216E+00
  1.064541E+00
  1.062210E+00
  1.059610E+00
  1.057011E+00
  1.054411E+00
  1.051293E+00
  1.047801E+00
  1.044309E+00
  1.040818E+00
  1.036864E+00
  1.032671E+00
  1.028479E+00
  1.024288E+00
  1.019598E+00
  1.014873E+00
  1.010150E+00
  1.005172E+00
  9.997996E-01
  9.944306E-01
  9.890433E-01
  9.828785E-01
  9.767212E-01
  9.705712E-01
  9.639203E-01
  9.571779E-01
  9.504459E-01
  9.434268E-01
  9.363441E-01
  9.292730E-01
  9.219838E-01
  9.146841E-01
  9.073788E-01
  9.000050E-01
  8.926403E-01
  8.853438E-01
  8.780990E-01
  8.708887E-01
  8.639392E-01
  8.569934E-01
  8.503609E-01
  8.438325E-01
  8.375680E-01
  8.315456E-01
  8.257242E-01
  8.202036E-01
  8.148424E-01
  8.097355E-01
  8.047979E-01
  8.000492E-01
  7.955511E-01
  7.911830E-01
  7.872662E-01
  7.835719E-01
  7.803443E-01
  7.777579E-01
  7.756933E-01
  7.744799E-01
  7.744540E-01
  7.755198E-01
  7.779476E-01
  7.821266E-01
  7.892866E-01
  8.011555E-01
  8.214152E-01
  8.561940E-01
  9.159234E-01
  1.020836E+00
  1.168277E+00
  1.247624E+00
  1.452910E+00
  6.013087E-01
  9.735433E-07
  1.268646E+00
  1.268243E+00
  1.267841E+00
  1.267438E+00
  1.267036E+00
  1.266633E+00
  1.266231E+00
  1.265828E+00
  1.265426E+00
  1.264204E+00
  1.262945E+00
  1.261685E+00
  1.260426E+00
  1.259201E+00
  1.257941E+00
  1.256682E+00
  1.255208E+00
  1.253268E+00
  1.251328E+00
  1.249387E+00
  1.247447E+00
  1.245507E+00
  1.243567E+00
  1.241598E+00
  1.239136E+00
  1.236675E+00
  1.234213E+00
  1.231752E+00
  1.229290E+00
  1.226829E+00
  1.224272E+00
  1.221206E+00
  1.218140E+00
  1.215075E+00
  1.212009E+00
  1.208944E+00
  1.205879E+00
  1.202396E+00
  1.198643E+00
  1.194890E+00
  1.191137E+00
  1.187385E+00
  1.183632E+00
  1.179625E+00
  1.175207E+00
  1.170790E+00
  1.166373E+00
  1.161956E+00
  1.157540E+00
  1.152859E+00
  1.147881E+00
  1.142903E+00
  1.137925E+00
  1.132948E+00
  1.127971E+00
  1.122697E+00
  1.117373E+00
  1.112049E+00
  1.106726E+00
  1.101403E+00
  1.096085E+00
  1.090773E+00
  1.085460E+00
  1.080149E+00
  1.074837E+00
  1.069702E+00
  1.064783E+00
  1.059865E+00
  1.054948E+00
  1.050030E+00
  1.045577E+00
  1.041395E+00
  1.037213E+00
  1.033031E+00
  1.028907E+00
  1.025751E+00
  1.022595E+00
  1.019440E+00
  1.016284E+00
  1.013832E+00
  1.011670E+00
  1.009508E+00
  1.007346E+00
  1.005480E+00
  1.003828E+00
  1.002177E+00
  1.000527E+00
  9.988522E-01
  9.971655E-01
  9.954799E-01
  9.937955E-01
  9.916964E-01
  9.895682E-01
  9.874417E-01
  9.849480E-01
  9.818820E-01
  9.788189E-01
  9.757195E-01
  9.712395E-01
  9.667649E-01
  9.622955E-01
  9.565926E-01
  9.506485E-01
  9.447124E-01
  9.377222E-01
  9.304583E-01
  9.232179E-01
  9.148053E-01
  9.062915E-01
  8.975670E-01
  8.878037E-01
  8.780504E-01
  8.676466E-01
  8.567571E-01
  8.457770E-01
  8.339070E-01
  8.220439E-01
  8.095428E-01
  7.968333E-01
  7.837624E-01
  7.703568E-01
  7.567566E-01
  7.428616E-01
  7.288553E-01
  7.146702E-01
  7.004325E-01
  6.861360E-01
  6.719077E-01
  6.577160E-01
  6.438624E-01
  6.302202E-01
  6.170308E-01
  6.045006E-01
  5.924950E-01
  5.813303E-01
  5.712399E-01
  5.620459E-01
  5.538996E-01
  5.470121E-01
  5.422613E-01
  5.412715E-01
  5.477883E-01
  5.684053E-01
  6.135645E-01
  6.998118E-01
  8.190552E-01
  8.608704E-01
  9.133973E-01
 -6.579260E-02
  1.832709E-12
  9.695691E-01
  9.694412E-01
  9.693133E-01
  9.691854E-01
  9.690576E-01
  9.689298E-01
  9.688019E-01
  9.686741E-01
  9.685463E-01
  9.681176E-01
  9.676751E-01
  9.672326E-01
  9.667902E-01
  9.663477E-01
  9.659053E-01
  9.654628E-01
  9.649218E-01
  9.641660E-01
  9.634103E-01
  9.626546E-01
  9.618989E-01
  9.611432E-01
  9.603876E-01
  9.596177E-01
  9.586042E-01
  9.575906E-01
  9.565772E-01
  9.555637E-01
  9.545503E-01
  9.535369E-01
  9.524798E-01
  9.511909E-01
  9.499020E-01
  9.486132E-01
  9.473245E-01
  9.460358E-01
  9.447471E-01
  9.432753E-01
  9.416852E-01
  9.400951E-01
  9.385050E-01
  9.369151E-01
  9.353252E-01
  9.336189E-01
  9.317253E-01
  9.298319E-01
  9.279385E-01
  9.260452E-01
  9.241521E-01
  9.221202E-01
  9.199323E-01
  9.177445E-01
  9.155569E-01
  9.133695E-01
  9.111822E-01
  9.087580E-01
  9.062932E-01
  9.038286E-01
  9.013642E-01
  8.989001E-01
  8.963113E-01
  8.936061E-01
  8.909011E-01
  8.881964E-01
  8.854920E-01
  8.826986E-01
  8.797952E-01
  8.768921E-01
  8.739892E-01
  8.710865E-01
  8.680742E-01
  8.649978E-01
  8.619216E-01
  8.588454E-01
  8.557595E-01
  8.525069E-01
  8.492542E-01
  8.460016E-01
  8.427490E-01
  8.393545E-01
  8.359021E-01
  8.324496E-01
  8.289973E-01
  8.254086E-01
  8.217214E-01
  8.180344E-01
  8.143478E-01
  8.104733E-01
  8.065015E-01
  8.025302E-01
  7.985593E-01
  7.942657E-01
  7.899489E-01
  7.856331E-01
  7.811593E-01
  7.764395E-01
  7.717211E-01
  7.669921E-01
  7.618362E-01
  7.566828E-01
  7.515319E-01
  7.460207E-01
  7.404401E-01
  7.348630E-01
  7.289446E-01
  7.229425E-01
  7.169445E-01
  7.105493E-01
  7.041206E-01
  6.976204E-01
  6.907650E-01
  6.839138E-01
  6.768262E-01
  6.695625E-01
  6.622626E-01
  6.546063E-01
  6.469531E-01
  6.390187E-01
  6.309926E-01
  6.227816E-01
  6.143996E-01
  6.058788E-01
  5.971483E-01
  5.882832E-01
  5.792028E-01
  5.699599E-01
  5.605358E-01
  5.508980E-01
  5.411487E-01
  5.311205E-01
  5.209935E-01
  5.106740E-01
  5.001750E-01
  4.895516E-01
  4.787529E-01
  4.677507E-01
  4.565779E-01
  4.452106E-01
  4.336281E-01
  4.218577E-01
  4.102672E-01
  3.996509E-01
  3.913389E-01
  3.877025E-01
  3.940353E-01
  4.072928E-01
  3.882910E-01
  4.077124E-01
  1.282655E-01
  4.097358E-02
  5.218313E-02
  5.219025E-02
  5.219737E-02
  5.220449E-02
  5.221162E-02
  5.221875E-02
  5.222589E-02
  5.223303E-02
  5.224017E-02
  5.224755E-02
  5.225494E-02
  5.226234E-02
  5.226975E-02
  5.227716E-02
  5.228458E-02
  5.229201E-02
  5.229695E-02
  5.229648E-02
  5.229602E-02
  5.229557E-02
  5.229513E-02
  5.229470E-02
  5.229427E-02
  5.229382E-02
  5.229278E-02
  5.229175E-02
  5.229074E-02
  5.228973E-02
  5.228874E-02
  5.228777E-02
  5.228624E-02
  5.228169E-02
  5.227717E-02
  5.227267E-02
  5.226819E-02
  5.226372E-02
  5.225928E-02
  5.225282E-02
  5.224505E-02
  5.223732E-02
  5.222961E-02
  5.222194E-02
  5.221429E-02
  5.220713E-02
  5.220072E-02
  5.219436E-02
  5.218804E-02
  5.218175E-02
  5.217551E-02
  5.217071E-02
  5.216753E-02
  5.216440E-02
  5.216132E-02
  5.215830E-02
  5.215532E-02
  5.215253E-02
  5.214982E-02
  5.214717E-02
  5.214457E-02
  5.214204E-02
  5.213783E-02
  5.213207E-02
  5.212636E-02
  5.212071E-02
  5.211512E-02
  5.210447E-02
  5.208754E-02
  5.207066E-02
  5.205382E-02
  5.203703E-02
  5.200391E-02
  5.196124E-02
  5.191859E-02
  5.187596E-02
  5.183120E-02
  5.175017E-02
  5.166914E-02
  5.158811E-02
  5.150708E-02
  5.139431E-02
  5.126854E-02
  5.114279E-02
  5.101705E-02
  5.086622E-02
  5.069727E-02
  5.052836E-02
  5.035948E-02
  5.016824E-02
  4.996540E-02
  4.976261E-02
  4.955988E-02
  4.933301E-02
  4.910444E-02
  4.887597E-02
  4.863520E-02
  4.837530E-02
  4.811557E-02
  4.785495E-02
  4.755672E-02
  4.725885E-02
  4.696132E-02
  4.663955E-02
  4.631335E-02
  4.598764E-02
  4.564804E-02
  4.530534E-02
  4.496319E-02
  4.461048E-02
  4.425726E-02
  4.390376E-02
  4.354695E-02
  4.319058E-02
  4.283751E-02
  4.248694E-02
  4.213805E-02
  4.180178E-02
  4.146569E-02
  4.114477E-02
  4.082888E-02
  4.052578E-02
  4.023439E-02
  3.995273E-02
  3.968564E-02
  3.942625E-02
  3.917918E-02
  3.894031E-02
  3.871057E-02
  3.849296E-02
  3.828163E-02
  3.809214E-02
  3.791341E-02
  3.775722E-02
  3.763206E-02
  3.753212E-02
  3.747335E-02
  3.747202E-02
  3.752349E-02
  3.764083E-02
  3.784288E-02
  3.818913E-02
  3.876319E-02
  3.974318E-02
  4.142561E-02
  4.431516E-02
  4.939068E-02
  5.652368E-02
  6.036197E-02
  7.029316E-02
  3.389144E-02
  9.436528E-03
  1.780714E-01
  1.780149E-01
  1.779584E-01
  1.779019E-01
  1.778454E-01
  1.777889E-01
  1.777324E-01
  1.776760E-01
  1.776195E-01
  1.774480E-01
  1.772712E-01
  1.770944E-01
  1.769176E-01
  1.767457E-01
  1.765689E-01
  1.763922E-01
  1.761853E-01
  1.759130E-01
  1.756406E-01
  1.753682E-01
  1.750959E-01
  1.748236E-01
  1.745512E-01
  1.742748E-01
  1.739293E-01
  1.735838E-01
  1.732382E-01
  1.728927E-01
  1.725472E-01
  1.722017E-01
  1.718427E-01
  1.714124E-01
  1.709820E-01
  1.705517E-01
  1.701214E-01
  1.696911E-01
  1.692608E-01
  1.687719E-01
  1.682451E-01
  1.677183E-01
  1.671915E-01
  1.666647E-01
  1.661379E-01
  1.655754E-01
  1.649553E-01
  1.643352E-01
  1.637151E-01
  1.630951E-01
  1.624751E-01
  1.618180E-01
  1.611192E-01
  1.604204E-01
  1.597216E-01
  1.590229E-01
  1.583242E-01
  1.575839E-01
  1.568365E-01
  1.560891E-01
  1.553418E-01
  1.545945E-01
  1.538480E-01
  1.531022E-01
  1.523565E-01
  1.516108E-01
  1.508652E-01
  1.501443E-01
  1.494539E-01
  1.487635E-01
  1.480732E-01
  1.473829E-01
  1.467578E-01
  1.461707E-01
  1.455837E-01
  1.449967E-01
  1.444178E-01
  1.439749E-01
  1.435319E-01
  1.430889E-01
  1.426460E-01
  1.423020E-01
  1.419985E-01
  1.416950E-01
  1.413917E-01
  1.411298E-01
  1.408981E-01
  1.406665E-01
  1.404350E-01
  1.402000E-01
  1.399634E-01
  1.397270E-01
  1.394907E-01
  1.391962E-01
  1.388976E-01
  1.385993E-01
  1.382495E-01
  1.378193E-01
  1.373895E-01
  1.369546E-01
  1.363259E-01
  1.356980E-01
  1.350708E-01
  1.342704E-01
  1.334361E-01
  1.326030E-01
  1.316219E-01
  1.306023E-01
  1.295860E-01
  1.284051E-01
  1.272100E-01
  1.259853E-01
  1.246148E-01
  1.232458E-01
  1.217854E-01
  1.202568E-01
  1.187155E-01
  1.170494E-01
  1.153842E-01
  1.136295E-01
  1.118455E-01
  1.100109E-01
  1.081293E-01
  1.062203E-01
  1.042700E-01
  1.023041E-01
  1.003131E-01
  9.831477E-02
  9.630815E-02
  9.431110E-02
  9.231917E-02
  9.037469E-02
  8.845986E-02
  8.660853E-02
  8.484968E-02
  8.316445E-02
  8.159721E-02
  8.018072E-02
  7.889002E-02
  7.774632E-02
  7.677928E-02
  7.611209E-02
  7.597274E-02
  7.688695E-02
  7.978014E-02
  8.611788E-02
  9.822235E-02
  1.149576E-01
  1.208252E-01
  1.281958E-01
 -1.075745E-02
  5.153360E-08
  9.697452E-01
  9.696174E-01
  9.694896E-01
  9.693618E-01
  9.692340E-01
  9.691063E-01
  9.689785E-01
  9.688508E-01
  9.687231E-01
  9.682946E-01
  9.678523E-01
  9.674100E-01
  9.669678E-01
  9.665256E-01
  9.660834E-01
  9.656412E-01
  9.651004E-01
  9.643449E-01
  9.635895E-01
  9.628341E-01
  9.620788E-01
  9.613234E-01
  9.605681E-01
  9.597986E-01
  9.587854E-01