 Title= "ADflow Lift Distribution Data"
Variables = "eta" "CoordinateX" "CoordinateY" "CoordinateZ" "Lift" "Drag" "Moment" "Normalized Lift" "Normalized Drag" "Normalized Moment" "CL" "CD" "CM" "CLp" "CDp" "CMp" "CLv" "CDv" "CMv" "Elliptical" "thickness" "twist" "chord" "fx" "fy" "fz" 
Zone T= "LiftDist_01 allWalls: : z normal"
 I=          150
 DATAPACKING=BLOCK
  0.000000E+00
  6.711405E-03
  1.342281E-02
  2.013422E-02
  2.684563E-02
  3.355704E-02
  4.026845E-02
  4.697986E-02
  5.369127E-02
  6.040268E-02
  6.711409E-02
  7.382550E-02
  8.053691E-02
  8.724832E-02
  9.395973E-02
  1.006711E-01
  1.073825E-01
  1.140940E-01
  1.208054E-01
  1.275168E-01
  1.342282E-01
  1.409396E-01
  1.476510E-01
  1.543624E-01
  1.610738E-01
  1.677852E-01
  1.744966E-01
  1.812081E-01
  1.879195E-01
  1.946309E-01
  2.013423E-01
  2.080537E-01
  2.147651E-01
  2.214765E-01
  2.281879E-01
  2.348993E-01
  2.416107E-01
  2.483221E-01
  2.550336E-01
  2.617450E-01
  2.684564E-01
  2.751678E-01
  2.818792E-01
  2.885906E-01
  2.953020E-01
  3.020134E-01
  3.087248E-01
  3.154362E-01
  3.221476E-01
  3.288591E-01
  3.355705E-01
  3.422819E-01
  3.489933E-01
  3.557047E-01
  3.624161E-01
  3.691275E-01
  3.758389E-01
  3.825503E-01
  3.892617E-01
  3.959732E-01
  4.026846E-01
  4.093960E-01
  4.161074E-01
  4.228188E-01
  4.295302E-01
  4.362416E-01
  4.429530E-01
  4.496644E-01
  4.563758E-01
  4.630872E-01
  4.697987E-01
  4.765101E-01
  4.832215E-01
  4.899329E-01
  4.966443E-01
  5.033557E-01
  5.100671E-01
  5.167785E-01
  5.234899E-01
  5.302013E-01
  5.369128E-01
  5.436242E-01
  5.503356E-01
  5.570470E-01
  5.637584E-01
  5.704698E-01
  5.771812E-01
  5.838926E-01
  5.906040E-01
  5.973154E-01
  6.040268E-01
  6.107383E-01
  6.174497E-01
  6.241611E-01
  6.308725E-01
  6.375839E-01
  6.442953E-01
  6.510067E-01
  6.577181E-01
  6.644295E-01
  6.711409E-01
  6.778524E-01
  6.845638E-01
  6.912752E-01
  6.979866E-01
  7.046980E-01
  7.114094E-01
  7.181208E-01
  7.248322E-01
  7.315436E-01
  7.382550E-01
  7.449664E-01
  7.516779E-01
  7.583893E-01
  7.651007E-01
  7.718121E-01
  7.785235E-01
  7.852349E-01
  7.919463E-01
  7.986577E-01
  8.053691E-01
  8.120805E-01
  8.187919E-01
  8.255034E-01
  8.322148E-01
  8.389262E-01
  8.456376E-01
  8.523490E-01
  8.590604E-01
  8.657718E-01
  8.724832E-01
  8.791946E-01
  8.859060E-01
  8.926175E-01
  8.993289E-01
  9.060403E-01
  9.127517E-01
  9.194631E-01
  9.261745E-01
  9.328859E-01
  9.395973E-01
  9.463087E-01
  9.530201E-01
  9.597315E-01
  9.664430E-01
  9.731544E-01
  9.798658E-01
  9.865772E-01
  9.932886E-01
  1.000000E+00
  0.000000E+00
  0.000000E+00
  0.000000E+00
  0.000000E+00
  0.000000E+00
  0.000000E+00
  0.000000E+00
  0.000000E+00
  0.000000E+00
  0.000000E+00
  0.000000E+00
  0.000000E+00
  0.000000E+00
  0.000000E+00
  0.000000E+00
  0.000000E+00
  0.000000E+00
  0.000000E+00
  0.000000E+00
  0.000000E+00
  0.000000E+00
  0.000000E+00
  0.000000E+00
  0.000000E+00
  0.000000E+00
  0.000000E+00
  0.000000E+00
  0.000000E+00
  0.000000E+00
  0.000000E+00
  0.000000E+00
  0.000000E+00
  0.000000E+00
  0.000000E+00
  0.000000E+00
  0.000000E+00
  0.000000E+00
  0.000000E+00
  0.000000E+00
  0.000000E+00
  0.000000E+00
  0.000000E+00
  0.000000E+00
  0.000000E+00
  0.000000E+00
  0.000000E+00
  0.000000E+00
  0.000000E+00
  0.000000E+00
  0.000000E+00
  0.000000E+00
  0.000000E+00
  0.000000E+00
  0.000000E+00
  0.000000E+00
  0.000000E+00
  0.000000E+00
  0.000000E+00
  0.000000E+00
  0.000000E+00
  0.000000E+00
  0.000000E+00
  0.000000E+00
  0.000000E+00
  0.000000E+00
  0.000000E+00
  0.000000E+00
  0.000000E+00
  0.000000E+00
  0.000000E+00
  0.000000E+00
  0.000000E+00
  0.000000E+00
  0.000000E+00
  0.000000E+00
  0.000000E+00
  0.000000E+00
  0.000000E+00
  0.000000E+00
  0.000000E+00
  0.000000E+00
  0.000000E+00
  0.000000E+00
  0.000000E+00
  0.000000E+00
  0.000000E+00
  0.000000E+00
  0.000000E+00
  0.000000E+00
  0.000000E+00
  0.000000E+00
  0.000000E+00
  0.000000E+00
  0.000000E+00
  0.000000E+00
  0.000000E+00
  0.000000E+00
  0.000000E+00
  0.000000E+00
  0.000000E+00
  0.000000E+00
  0.000000E+00
  0.000000E+00
  0.000000E+00
  0.000000E+00
  0.000000E+00
  0.000000E+00
  0.000000E+00
  0.000000E+00
  0.000000E+00
  0.000000E+00
  0.000000E+00
  0.000000E+00
  0.000000E+00
  0.000000E+00
  0.000000E+00
  0.000000E+00
  0.000000E+00
  0.000000E+00
  0.000000E+00
  0.000000E+00
  0.000000E+00
  0.000000E+00
  0.000000E+00
  0.000000E+00
  0.000000E+00
  0.000000E+00
  0.000000E+00
  0.000000E+00
  0.000000E+00
  0.000000E+00
  0.000000E+00
  0.000000E+00
  0.000000E+00
  0.000000E+00
  0.000000E+00
  0.000000E+00
  0.000000E+00
  0.000000E+00
  0.000000E+00
  0.000000E+00
  0.000000E+00
  0.000000E+00
  0.000000E+00
  0.000000E+00
  0.000000E+00
  0.000000E+00
  0.000000E+00
  0.000000E+00
  0.000000E+00
  0.000000E+00
  0.000000E+00
  0.000000E+00
  0.000000E+00
  0.000000E+00
  0.000000E+00
  0.000000E+00
  0.000000E+00
  0.000000E+00
  0.000000E+00
  0.000000E+00
  0.000000E+00
  0.000000E+00
  0.000000E+00
  0.000000E+00
  0.000000E+00
  0.000000E+00
  0.000000E+00
  0.000000E+00
  0.000000E+00
  0.000000E+00
  0.000000E+00
  0.000000E+00
  0.000000E+00
  0.000000E+00
  0.000000E+00
  0.000000E+00
  0.000000E+00
  0.000000E+00
  0.000000E+00
  0.000000E+00
  0.000000E+00
  0.000000E+00
  0.000000E+00
  0.000000E+00
  0.000000E+00
  0.000000E+00
  0.000000E+00
  0.000000E+00
  0.000000E+00
  0.000000E+00
  0.000000E+00
  0.000000E+00
  0.000000E+00
  0.000000E+00
  0.000000E+00
  0.000000E+00
  0.000000E+00
  0.000000E+00
  0.000000E+00
  0.000000E+00
  0.000000E+00
  0.000000E+00
  0.000000E+00
  0.000000E+00
  0.000000E+00
  0.000000E+00
  0.000000E+00
  0.000000E+00
  0.000000E+00
  0.000000E+00
  0.000000E+00
  0.000000E+00
  0.000000E+00
  0.000000E+00
  0.000000E+00
  0.000000E+00
  0.000000E+00
  0.000000E+00
  0.000000E+00
  0.000000E+00
  0.000000E+00
  0.000000E+00
  0.000000E+00
  0.000000E+00
  0.000000E+00
  0.000000E+00
  0.000000E+00
  0.000000E+00
  0.000000E+00
  0.000000E+00
  0.000000E+00
  0.000000E+00
  0.000000E+00
  0.000000E+00
  0.000000E+00
  0.000000E+00
  0.000000E+00
  0.000000E+00
  0.000000E+00
  0.000000E+00
  0.000000E+00
  0.000000E+00
  0.000000E+00
  0.000000E+00
  0.000000E+00
  0.000000E+00
  0.000000E+00
  0.000000E+00
  0.000000E+00
  0.000000E+00
  0.000000E+00
  0.000000E+00
  0.000000E+00
  0.000000E+00
  0.000000E+00
  0.000000E+00
  0.000000E+00
  0.000000E+00
  0.000000E+00
  0.000000E+00
  0.000000E+00
  0.000000E+00
  0.000000E+00
  0.000000E+00
  0.000000E+00
  0.000000E+00
  0.000000E+00
  0.000000E+00
  0.000000E+00
  0.000000E+00
  0.000000E+00
  0.000000E+00
  0.000000E+00
  0.000000E+00
  0.000000E+00
  0.000000E+00
  0.000000E+00
  0.000000E+00
  0.000000E+00
  0.000000E+00
  0.000000E+00
  0.000000E+00
  0.000000E+00
  0.000000E+00
  0.000000E+00
  0.000000E+00
  0.000000E+00
  0.000000E+00
  0.000000E+00
  0.000000E+00
  0.000000E+00
  0.000000E+00
  0.000000E+00
  0.000000E+00
  0.000000E+00
  0.000000E+00
  0.000000E+00
  0.000000E+00
  0.000000E+00
  1.000000E-08
  1.690972E-02
  3.381945E-02
  5.072917E-02
  6.763890E-02
  8.454862E-02
  1.014583E-01
  1.183681E-01
  1.352778E-01
  1.521875E-01
  1.690972E-01
  1.860070E-01
  2.029167E-01
  2.198264E-01
  2.367361E-01
  2.536459E-01
  2.705556E-01
  2.874653E-01
  3.043750E-01
  3.212848E-01
  3.381945E-01
  3.551042E-01
  3.720139E-01
  3.889237E-01
  4.058334E-01
  4.227431E-01
  4.396528E-01
  4.565626E-01
  4.734723E-01
  4.903820E-01
  5.072917E-01
  5.242015E-01
  5.411112E-01
  5.580209E-01
  5.749306E-01
  5.918404E-01
  6.087501E-01
  6.256598E-01
  6.425695E-01
  6.594792E-01
  6.763890E-01
  6.932987E-01
  7.102084E-01
  7.271181E-01
  7.440279E-01
  7.609376E-01
  7.778473E-01
  7.947570E-01
  8.116668E-01
  8.285765E-01
  8.454862E-01
  8.623959E-01
  8.793057E-01
  8.962154E-01
  9.131251E-01
  9.300348E-01
  9.469446E-01
  9.638543E-01
  9.807640E-01
  9.976737E-01
  1.014583E+00
  1.031493E+00
  1.048403E+00
  1.065313E+00
  1.082222E+00
  1.099132E+00
  1.116042E+00
  1.132952E+00
  1.149861E+00
  1.166771E+00
  1.183681E+00
  1.200590E+00
  1.217500E+00
  1.234410E+00
  1.251320E+00
  1.268229E+00
  1.285139E+00
  1.302049E+00
  1.318958E+00
  1.335868E+00
  1.352778E+00
  1.369688E+00
  1.386597E+00
  1.403507E+00
  1.420417E+00
  1.437327E+00
  1.454236E+00
  1.471146E+00
  1.488056E+00
  1.504965E+00
  1.521875E+00
  1.538785E+00
  1.555695E+00
  1.572604E+00
  1.589514E+00
  1.606424E+00
  1.623334E+00
  1.640243E+00
  1.657153E+00
  1.674063E+00
  1.690972E+00
  1.707882E+00
  1.724792E+00
  1.741702E+00
  1.758611E+00
  1.775521E+00
  1.792431E+00
  1.809341E+00
  1.826250E+00
  1.843160E+00
  1.860070E+00
  1.876979E+00
  1.893889E+00
  1.910799E+00
  1.927709E+00
  1.944618E+00
  1.961528E+00
  1.978438E+00
  1.995347E+00
  2.012257E+00
  2.029167E+00
  2.046077E+00
  2.062986E+00
  2.079896E+00
  2.096806E+00
  2.113716E+00
  2.130625E+00
  2.147535E+00
  2.164445E+00
  2.181354E+00
  2.198264E+00
  2.215174E+00
  2.232084E+00
  2.248993E+00
  2.265903E+00
  2.282813E+00
  2.299723E+00
  2.316632E+00
  2.333542E+00
  2.350452E+00
  2.367361E+00
  2.384271E+00
  2.401181E+00
  2.418091E+00
  2.435000E+00
  2.451910E+00
  2.468820E+00
  2.485729E+00
  2.502639E+00
  2.519549E+00
  1.110556E+04
  1.110391E+04
  1.110226E+04
  1.110061E+04
  1.109896E+04
  1.109731E+04
  1.109566E+04
  1.109400E+04
  1.109235E+04
  1.108759E+04
  1.108268E+04
  1.107777E+04
  1.107286E+04
  1.106796E+04
  1.106305E+04
  1.105814E+04
  1.105229E+04
  1.104439E+04
  1.103650E+04
  1.102860E+04
  1.102070E+04
  1.101281E+04
  1.100491E+04
  1.099684E+04
  1.098583E+04
  1.097482E+04
  1.096381E+04
  1.095280E+04
  1.094179E+04
  1.093077E+04
  1.091922E+04
  1.090477E+04
  1.089032E+04
  1.087587E+04
  1.086142E+04
  1.084697E+04
  1.083252E+04
  1.081582E+04
  1.079767E+04
  1.077951E+04
  1.076136E+04
  1.074321E+04
  1.072505E+04
  1.070540E+04
  1.068335E+04
  1.066129E+04
  1.063924E+04
  1.061719E+04
  1.059514E+04
  1.057116E+04
  1.054502E+04
  1.051887E+04
  1.049273E+04
  1.046659E+04
  1.044046E+04
  1.041069E+04
  1.038030E+04
  1.034991E+04
  1.031953E+04
  1.028915E+04
  1.025656E+04
  1.022189E+04
  1.018723E+04
  1.015257E+04
  1.011792E+04
  1.008137E+04
  1.004246E+04
  1.000356E+04
  9.964658E+03
  9.925765E+03
  9.884227E+03
  9.841146E+03
  9.798069E+03
  9.754998E+03
  9.711710E+03
  9.664678E+03
  9.617650E+03
  9.570627E+03
  9.523609E+03
  9.473987E+03
  9.423301E+03
  9.372622E+03
  9.321948E+03
  9.269319E+03
  9.215279E+03
  9.161246E+03
  9.107220E+03
  9.051359E+03
  8.994545E+03
  8.937740E+03
  8.880942E+03
  8.822236E+03
  8.763398E+03
  8.704569E+03
  8.645070E+03
  8.584524E+03
  8.523994E+03
  8.463432E+03
  8.401256E+03
  8.339110E+03
  8.276995E+03
  8.213782E+03
  8.150389E+03
  8.087045E+03
  8.022405E+03
  7.957482E+03
  7.892618E+03
  7.825201E+03
  7.757598E+03
  7.689374E+03
  7.617977E+03
  7.546636E+03
  7.472764E+03
  7.397003E+03
  7.320806E+03
  7.240293E+03
  7.159814E+03
  7.075687E+03
  6.990365E+03
  6.902588E+03
  6.812541E+03
  6.720664E+03
  6.626031E+03
  6.529720E+03
  6.430732E+03
  6.329869E+03
  6.226917E+03
  6.121611E+03
  6.015074E+03
  5.905511E+03
  5.794878E+03
  5.682170E+03
  5.567539E+03
  5.451583E+03
  5.333776E+03
  5.213877E+03
  5.092275E+03
  4.968783E+03
  4.843283E+03
  4.716307E+03
  4.591997E+03
  4.479249E+03
  4.392845E+03
  4.358770E+03
  4.434988E+03
  4.587582E+03
  4.374173E+03
  4.557359E+03
  1.310774E+03
  2.222702E-03
  6.207848E+02
  6.207273E+02
  6.206697E+02
  6.206121E+02
  6.205546E+02
  6.204970E+02
  6.204394E+02
  6.203819E+02
  6.203243E+02
  6.202087E+02
  6.200903E+02
  6.199720E+02
  6.198537E+02
  6.197354E+02
  6.196171E+02
  6.194988E+02
  6.193845E+02
  6.192787E+02
  6.191730E+02
  6.190672E+02
  6.189615E+02
  6.188558E+02
  6.187501E+02
  6.186429E+02
  6.185116E+02
  6.183803E+02
  6.182490E+02
  6.181177E+02
  6.179865E+02
  6.178552E+02
  6.177088E+02
  6.174820E+02
  6.172554E+02
  6.170287E+02
  6.168021E+02
  6.165755E+02
  6.163489E+02
  6.160552E+02
  6.157180E+02
  6.153810E+02
  6.150440E+02
  6.147070E+02
  6.143702E+02
  6.139976E+02
  6.135676E+02
  6.131378E+02
  6.127081E+02
  6.122785E+02
  6.118491E+02
  6.113765E+02
  6.108553E+02
  6.103344E+02
  6.098138E+02
  6.092936E+02
  6.087737E+02
  6.081556E+02
  6.075212E+02
  6.068875E+02
  6.062544E+02
  6.056220E+02
  6.049148E+02
  6.041379E+02
  6.033619E+02
  6.025868E+02
  6.018127E+02
  6.009410E+02
  5.999484E+02
  5.989568E+02
  5.979663E+02
  5.969768E+02
  5.957774E+02
  5.944556E+02
  5.931346E+02
  5.918145E+02
  5.904721E+02
  5.887393E+02
  5.870071E+02
  5.852756E+02
  5.835448E+02
  5.814597E+02
  5.792301E+02
  5.770014E+02
  5.747734E+02
  5.721816E+02
  5.693271E+02
  5.664738E+02
  5.636216E+02
  5.603273E+02
  5.568037E+02
  5.532816E+02
  5.497611E+02
  5.456410E+02
  5.414790E+02
  5.373199E+02
  5.328658E+02
  5.279523E+02
  5.230445E+02
  5.181199E+02
  5.124060E+02
  5.067030E+02
  5.010109E+02
  4.949689E+02
  4.888693E+02
  4.827849E+02
  4.768028E+02
  4.708586E+02
  4.649299E+02
  4.594281E+02
  4.539780E+02
  4.486553E+02
  4.438887E+02
  4.391298E+02
  4.348379E+02
  4.308943E+02
  4.270394E+02
  4.239600E+02
  4.208809E+02
  4.184272E+02
  4.161799E+02
  4.143178E+02
  4.128118E+02
  4.115281E+02
  4.105795E+02
  4.097598E+02
  4.091462E+02
  4.086255E+02
  4.082099E+02
  4.078904E+02
  4.076265E+02
  4.075067E+02
  4.074677E+02
  4.075869E+02
  4.079500E+02
  4.085313E+02
  4.094795E+02
  4.109922E+02
  4.130670E+02
  4.158723E+02
  4.196578E+02
  4.251656E+02
  4.334026E+02
  4.464569E+02
  4.677973E+02
  5.033021E+02
  5.644424E+02
  6.504379E+02
  6.973153E+02
  8.084903E+02
  3.448404E+02
  4.894776E-04
  2.021681E+03
  2.021347E+03
  2.021014E+03
  2.020681E+03
  2.020348E+03
  2.020014E+03
  2.019681E+03
  2.019348E+03
  2.019015E+03
  2.018075E+03
  2.017108E+03
  2.016141E+03
  2.015174E+03
  2.014207E+03
  2.013240E+03
  2.012273E+03
  2.011118E+03
  2.009557E+03
  2.007995E+03
  2.006434E+03
  2.004872E+03
  2.003311E+03
  2.001749E+03
  2.000147E+03
  1.997843E+03
  1.995539E+03
  1.993236E+03
  1.990932E+03
  1.988628E+03
  1.986324E+03
  1.983868E+03
  1.980602E+03
  1.977337E+03
  1.974072E+03
  1.970806E+03
  1.967541E+03
  1.964276E+03
  1.960314E+03
  1.955902E+03
  1.951490E+03
  1.947078E+03
  1.942722E+03
  1.938309E+03
  1.933396E+03
  1.927678E+03
  1.921959E+03
  1.916241E+03
  1.910522E+03
  1.904804E+03
  1.898406E+03
  1.891242E+03
  1.884079E+03
  1.876916E+03
  1.869753E+03
  1.862591E+03
  1.854177E+03
  1.845549E+03
  1.836922E+03
  1.828295E+03
  1.819669E+03
  1.810365E+03
  1.800427E+03
  1.790491E+03
  1.780555E+03
  1.770621E+03
  1.760186E+03
  1.749133E+03
  1.738081E+03
  1.727030E+03
  1.715981E+03
  1.704398E+03
  1.692504E+03
  1.680610E+03
  1.668718E+03
  1.656811E+03
  1.644618E+03
  1.632427E+03
  1.620237E+03
  1.608049E+03
  1.596012E+03
  1.584037E+03
  1.572065E+03
  1.560094E+03
  1.548375E+03
  1.536839E+03
  1.525304E+03
  1.513773E+03
  1.502771E+03
  1.492046E+03
  1.481325E+03
  1.470606E+03
  1.461156E+03
  1.451804E+03
  1.442456E+03
  1.433647E+03
  1.425680E+03
  1.417719E+03
  1.409789E+03
  1.402668E+03
  1.395562E+03
  1.388469E+03
  1.381768E+03
  1.375128E+03
  1.368545E+03
  1.361977E+03
  1.355434E+03
  1.348916E+03
  1.341573E+03
  1.334176E+03
  1.326495E+03
  1.317365E+03
  1.308257E+03
  1.297893E+03
  1.286588E+03
  1.275061E+03
  1.261381E+03
  1.247711E+03
  1.232267E+03
  1.216238E+03
  1.199110E+03
  1.180965E+03
  1.162143E+03
  1.142302E+03
  1.121994E+03
  1.100943E+03
  1.079563E+03
  1.057818E+03
  1.035965E+03
  1.014057E+03
  9.924950E+02
  9.712261E+02
  9.506040E+02
  9.310179E+02
  9.122840E+02
  8.949458E+02
  8.794684E+02
  8.656009E+02
  8.536514E+02
  8.440461E+02
  8.383413E+02
  8.390926E+02
  8.521689E+02
  8.878328E+02
  9.621851E+02
  1.100650E+03
  1.289910E+03
  1.352916E+03
  1.421057E+03
 -7.608678E+01
  2.785653E-09
  1.246895E+00
  1.246709E+00
  1.246524E+00
  1.246339E+00
  1.246154E+00
  1.245968E+00
  1.245783E+00
  1.245598E+00
  1.245412E+00
  1.244877E+00
  1.244326E+00
  1.243775E+00
  1.243224E+00
  1.242673E+00
  1.242122E+00
  1.241571E+00
  1.240914E+00
  1.240027E+00
  1.239141E+00
  1.238254E+00
  1.237368E+00
  1.236481E+00
  1.235594E+00
  1.234688E+00
  1.233452E+00
  1.232216E+00
  1.230980E+00
  1.229743E+00
  1.228507E+00
  1.227271E+00
  1.225973E+00
  1.224351E+00
  1.222729E+00
  1.221106E+00
  1.219484E+00
  1.217862E+00
  1.216240E+00
  1.214365E+00
  1.212326E+00
  1.210288E+00
  1.208249E+00
  1.206211E+00
  1.204173E+00
  1.201967E+00
  1.199490E+00
  1.197014E+00
  1.194538E+00
  1.192062E+00
  1.189586E+00
  1.186894E+00
  1.183959E+00
  1.181024E+00
  1.178089E+00
  1.175154E+00
  1.172219E+00
  1.168877E+00
  1.165465E+00
  1.162054E+00
  1.158642E+00
  1.155231E+00
  1.151572E+00
  1.147680E+00
  1.143788E+00
  1.139897E+00
  1.136006E+00
  1.131902E+00
  1.127534E+00
  1.123166E+00
  1.118798E+00
  1.114432E+00
  1.109768E+00
  1.104931E+00
  1.100094E+00
  1.095258E+00
  1.090398E+00
  1.085118E+00
  1.079837E+00
  1.074558E+00
  1.069279E+00
  1.063707E+00
  1.058017E+00
  1.052327E+00
  1.046637E+00
  1.040728E+00
  1.034661E+00
  1.028594E+00
  1.022528E+00
  1.016256E+00
  1.009877E+00
  1.003499E+00
  9.971224E-01
  9.905311E-01
  9.839249E-01
  9.773198E-01
  9.706394E-01
  9.638416E-01
  9.570454E-01
  9.502458E-01
  9.432648E-01
  9.362873E-01
  9.293132E-01
  9.222159E-01
  9.150983E-01
  9.079862E-01
  9.007287E-01
  8.934394E-01
  8.861567E-01
  8.785873E-01
  8.709971E-01
  8.633372E-01
  8.553209E-01
  8.473110E-01
  8.390168E-01
  8.305107E-01
  8.219556E-01
  8.129158E-01
  8.038799E-01
  7.944344E-01
  7.848547E-01
  7.749995E-01
  7.648892E-01
  7.545736E-01
  7.439485E-01
  7.331350E-01
  7.220210E-01
  7.106965E-01
  6.991374E-01
  6.873140E-01
  6.753524E-01
  6.630510E-01
  6.506295E-01
  6.379750E-01
  6.251046E-01
  6.120855E-01
  5.988585E-01
  5.853966E-01
  5.717436E-01
  5.578783E-01
  5.437875E-01
  5.295311E-01
  5.155741E-01
  5.029150E-01
  4.932139E-01
  4.893880E-01
  4.979455E-01
  5.150783E-01
  4.911175E-01
  5.116850E-01
  1.471693E-01
  2.495575E-07
  1.132472E+00
  1.132367E+00
  1.132262E+00
  1.132157E+00
  1.132052E+00
  1.131947E+00
  1.131842E+00
  1.131737E+00
  1.131632E+00
  1.131421E+00
  1.131205E+00
  1.130989E+00
  1.130773E+00
  1.130558E+00
  1.130342E+00
  1.130126E+00
  1.129917E+00
  1.129724E+00
  1.129532E+00
  1.129339E+00
  1.129146E+00
  1.128953E+00
  1.128760E+00
  1.128565E+00
  1.128325E+00
  1.128085E+00
  1.127846E+00
  1.127606E+00
  1.127367E+00
  1.127128E+00
  1.126860E+00
  1.126447E+00
  1.126033E+00
  1.125620E+00
  1.125206E+00
  1.124793E+00
  1.124380E+00
  1.123844E+00
  1.123229E+00
  1.122614E+00
  1.121999E+00
  1.121384E+00
  1.120770E+00
  1.120090E+00
  1.119306E+00
  1.118522E+00
  1.117738E+00
  1.116954E+00
  1.116171E+00
  1.115309E+00
  1.114358E+00
  1.113408E+00
  1.112458E+00
  1.111509E+00
  1.110560E+00
  1.109433E+00
  1.108276E+00
  1.107120E+00
  1.105965E+00
  1.104811E+00
  1.103521E+00
  1.102104E+00
  1.100688E+00
  1.099274E+00
  1.097862E+00
  1.096272E+00
  1.094461E+00
  1.092652E+00
  1.090845E+00
  1.089040E+00
  1.086852E+00
  1.084441E+00
  1.082031E+00
  1.079623E+00
  1.077174E+00
  1.074013E+00
  1.070853E+00
  1.067694E+00
  1.064536E+00
  1.060733E+00
  1.056665E+00
  1.052600E+00
  1.048535E+00
  1.043807E+00
  1.038600E+00
  1.033395E+00
  1.028191E+00
  1.022182E+00
  1.015754E+00
  1.009329E+00
  1.002906E+00
  9.953901E-01
  9.877977E-01
  9.802103E-01
  9.720849E-01
  9.631214E-01
  9.541683E-01
  9.451846E-01
  9.347609E-01
  9.243572E-01
  9.139733E-01
  9.029511E-01
  8.918240E-01
  8.807245E-01
  8.698115E-01
  8.589678E-01
  8.481523E-01
  8.381155E-01
  8.281731E-01
  8.184632E-01
  8.097676E-01
  8.010863E-01
  7.932567E-01
  7.860625E-01
  7.790302E-01
  7.734127E-01
  7.677954E-01
  7.633193E-01
  7.592197E-01
  7.558227E-01
  7.530754E-01
  7.507337E-01
  7.490032E-01
  7.475078E-01
  7.463884E-01
  7.454385E-01
  7.446803E-01
  7.440974E-01
  7.436161E-01
  7.433975E-01
  7.433264E-01
  7.435438E-01
  7.442061E-01
  7.452666E-01
  7.469965E-01
  7.497559E-01
  7.535409E-01
  7.586586E-01
  7.655642E-01
  7.756120E-01
  7.906383E-01
  8.144528E-01
  8.533831E-01
  9.181530E-01
  1.029689E+00
  1.186567E+00
  1.272083E+00
  1.474895E+00
  6.290780E-01
  8.929336E-07
  1.280572E+00
  1.280361E+00
  1.280150E+00
  1.279939E+00
  1.279728E+00
  1.279517E+00
  1.279306E+00
  1.279095E+00
  1.278884E+00
  1.278289E+00
  1.277676E+00
  1.277064E+00
  1.276451E+00
  1.275838E+00
  1.275226E+00
  1.274613E+00
  1.273882E+00
  1.272893E+00
  1.271904E+00
  1.270915E+00
  1.269926E+00
  1.268937E+00
  1.267948E+00
  1.266933E+00
  1.265473E+00
  1.264014E+00
  1.262555E+00
  1.261096E+00
  1.259636E+00
  1.258177E+00
  1.256621E+00
  1.254553E+00
  1.252484E+00
  1.250416E+00
  1.248348E+00
  1.246279E+00
  1.244211E+00
  1.241702E+00
  1.238907E+00
  1.236112E+00
  1.233317E+00
  1.230558E+00
  1.227764E+00
  1.224652E+00
  1.221029E+00
  1.217407E+00
  1.213785E+00
  1.210163E+00
  1.206541E+00
  1.202488E+00
  1.197950E+00
  1.193413E+00
  1.188876E+00
  1.184339E+00
  1.179802E+00
  1.174473E+00
  1.169007E+00
  1.163543E+00
  1.158078E+00
  1.152615E+00
  1.146721E+00
  1.140426E+00
  1.134132E+00
  1.127839E+00
  1.121546E+00
  1.114936E+00
  1.107935E+00
  1.100935E+00
  1.093935E+00
  1.086936E+00
  1.079599E+00
  1.072065E+00
  1.064532E+00
  1.056999E+00
  1.049457E+00
  1.041734E+00
  1.034012E+00
  1.026290E+00
  1.018570E+00
  1.010945E+00
  1.003361E+00
  9.957771E-01
  9.881947E-01
  9.807714E-01
  9.734639E-01
  9.661580E-01
  9.588535E-01
  9.518846E-01
  9.450915E-01
  9.383002E-01
  9.315109E-01
  9.255250E-01
  9.196012E-01
  9.136801E-01
  9.081006E-01
  9.030538E-01
  8.980114E-01
  8.929879E-01
  8.884779E-01
  8.839765E-01
  8.794837E-01
  8.752391E-01
  8.710334E-01
  8.668634E-01
  8.627033E-01
  8.585586E-01
  8.544302E-01
  8.497791E-01
  8.450938E-01
  8.402281E-01
  8.344447E-01
  8.286759E-01
  8.221108E-01
  8.149504E-01
  8.076491E-01
  7.989835E-01
  7.903251E-01
  7.805425E-01
  7.703889E-01
  7.595399E-01
  7.480468E-01
  7.361244E-01
  7.235566E-01
  7.106931E-01
  6.973591E-01
  6.838168E-01
  6.700431E-01
  6.562005E-01
  6.423239E-01
  6.286660E-01
  6.151938E-01
  6.021313E-01
  5.897251E-01
  5.778587E-01
  5.668763E-01
  5.570727E-01
  5.482887E-01
  5.407197E-01
  5.346355E-01
  5.310220E-01
  5.314978E-01
  5.397806E-01
  5.623709E-01
  6.094671E-01
  6.971733E-01
  8.170547E-01
  8.569640E-01
  9.001256E-01
 -4.819487E-02
  1.764488E-12
  9.832936E-01
  9.831475E-01
  9.830013E-01
  9.828552E-01
  9.827091E-01
  9.825630E-01
  9.824169E-01
  9.822708E-01
  9.821246E-01
  9.817027E-01
  9.812681E-01
  9.808335E-01
  9.803990E-01
  9.799644E-01
  9.795298E-01
  9.790953E-01
  9.785774E-01
  9.778782E-01
  9.771791E-01
  9.764799E-01
  9.757808E-01
  9.750816E-01
  9.743825E-01
  9.736680E-01
  9.726931E-01
  9.717182E-01
  9.707433E-01
  9.697684E-01
  9.687935E-01
  9.678186E-01
  9.667953E-01
  9.655160E-01
  9.642367E-01
  9.629574E-01
  9.616781E-01
  9.603989E-01
  9.591196E-01
  9.576410E-01
  9.560336E-01
  9.544261E-01
  9.528187E-01
  9.512113E-01
  9.496039E-01
  9.478642E-01
  9.459114E-01
  9.439587E-01
  9.420061E-01
  9.400535E-01
  9.381009E-01
  9.359780E-01
  9.336631E-01
  9.313484E-01
  9.290338E-01
  9.267193E-01
  9.244050E-01
  9.217693E-01
  9.190785E-01
  9.163879E-01
  9.136977E-01
  9.110076E-01
  9.081215E-01
  9.050521E-01
  9.019831E-01
  8.989145E-01
  8.958463E-01
  8.926095E-01
  8.891642E-01
  8.857195E-01
  8.822752E-01
  8.788314E-01
  8.751534E-01
  8.713386E-01
  8.675243E-01
  8.637105E-01
  8.598774E-01
  8.557128E-01
  8.515485E-01
  8.473847E-01
  8.432212E-01
  8.388272E-01
  8.343391E-01
  8.298514E-01
  8.253643E-01
  8.207041E-01
  8.159191E-01
  8.111346E-01
  8.063508E-01
  8.014047E-01
  7.963746E-01
  7.913451E-01
  7.863162E-01
  7.811190E-01
  7.759100E-01
  7.707019E-01
  7.654345E-01
  7.600749E-01
  7.547165E-01
  7.493552E-01
  7.438513E-01
  7.383498E-01
  7.328507E-01
  7.272543E-01
  7.216410E-01
  7.160316E-01
  7.103071E-01
  7.045571E-01
  6.988119E-01
  6.928404E-01
  6.868522E-01
  6.808088E-01
  6.744846E-01
  6.681652E-01
  6.616220E-01
  6.549119E-01
  6.481633E-01
  6.410334E-01
  6.339066E-01
  6.264577E-01
  6.189034E-01
  6.111324E-01
  6.031609E-01
  5.950277E-01
  5.866510E-01
  5.781259E-01
  5.693641E-01
  5.604363E-01
  5.513235E-01
  5.420021E-01
  5.325716E-01
  5.228729E-01
  5.130792E-01
  5.031014E-01
  4.929530E-01
  4.826869E-01
  4.722564E-01
  4.616399E-01
  4.508722E-01
  4.399369E-01
  4.288233E-01
  4.175788E-01
  4.065700E-01
  3.965845E-01
  3.889313E-01
  3.859107E-01
  3.926547E-01
  4.061600E-01
  3.872610E-01
  4.034735E-01
  1.351903E-01
  3.943301E-02
  5.496471E-02
  5.495962E-02
  5.495452E-02
  5.494942E-02
  5.494433E-02
  5.493923E-02
  5.493413E-02
  5.492904E-02
  5.492394E-02
  5.491370E-02
  5.490322E-02
  5.489275E-02
  5.488227E-02
  5.487180E-02
  5.486133E-02
  5.485085E-02
  5.484073E-02
  5.483137E-02
  5.482200E-02
  5.481264E-02
  5.480328E-02
  5.479392E-02
  5.478456E-02
  5.477508E-02
  5.476345E-02
  5.475183E-02
  5.474020E-02
  5.472858E-02
  5.471696E-02
  5.470534E-02
  5.469237E-02
  5.467230E-02
  5.465223E-02
  5.463216E-02
  5.461210E-02
  5.459204E-02
  5.457198E-02
  5.454597E-02
  5.451612E-02
  5.448628E-02
  5.445645E-02
  5.442661E-02
  5.439679E-02
  5.436380E-02
  5.432572E-02
  5.428766E-02
  5.424961E-02
  5.421158E-02
  5.417356E-02
  5.413171E-02
  5.408555E-02
  5.403942E-02
  5.399333E-02
  5.394726E-02
  5.390123E-02
  5.384650E-02
  5.379032E-02
  5.373421E-02
  5.367815E-02
  5.362214E-02
  5.355951E-02
  5.349072E-02
  5.342200E-02
  5.335337E-02
  5.328482E-02
  5.320762E-02
  5.311973E-02
  5.303192E-02
  5.294421E-02
  5.285658E-02
  5.275036E-02
  5.263331E-02
  5.251634E-02
  5.239944E-02
  5.228056E-02
  5.212711E-02
  5.197372E-02
  5.182039E-02
  5.166711E-02
  5.148247E-02
  5.128503E-02
  5.108767E-02
  5.089037E-02
  5.066087E-02
  5.040812E-02
  5.015546E-02
  4.990290E-02
  4.961122E-02
  4.929924E-02
  4.898740E-02
  4.867570E-02
  4.831094E-02
  4.794248E-02
  4.757426E-02
  4.717994E-02
  4.674496E-02
  4.631049E-02
  4.587452E-02
  4.536867E-02
  4.486379E-02
  4.435984E-02
  4.382491E-02
  4.328482E-02
  4.274606E-02
  4.221632E-02
  4.168992E-02
  4.116486E-02
  4.067759E-02
  4.019489E-02
  3.972345E-02
  3.930126E-02
  3.887974E-02
  3.849959E-02
  3.815029E-02
  3.780885E-02
  3.753613E-02
  3.726342E-02
  3.704615E-02
  3.684717E-02
  3.668233E-02
  3.654906E-02
  3.643548E-02
  3.635161E-02
  3.627917E-02
  3.622498E-02
  3.617903E-02
  3.614239E-02
  3.611426E-02
  3.609104E-02
  3.608057E-02
  3.607724E-02
  3.608789E-02
  3.612012E-02
  3.617164E-02
  3.625561E-02
  3.638950E-02
  3.657313E-02
  3.682141E-02
  3.715642E-02
  3.764389E-02
  3.837295E-02
  3.952848E-02
  4.141758E-02
  4.456066E-02
  4.997329E-02
  5.758630E-02
  6.173579E-02
  7.157751E-02
  3.556605E-02
  8.683834E-03
  1.790010E-01
  1.789715E-01
  1.789420E-01
  1.789125E-01
  1.788830E-01
  1.788535E-01
  1.788240E-01
  1.787945E-01
  1.787649E-01
  1.786818E-01
  1.785961E-01
  1.785105E-01
  1.784249E-01
  1.783393E-01
  1.782536E-01
  1.781680E-01
  1.780658E-01
  1.779276E-01
  1.777893E-01
  1.776511E-01
  1.775128E-01
  1.773745E-01
  1.772363E-01
  1.770944E-01
  1.768904E-01
  1.766865E-01
  1.764825E-01
  1.762785E-01
  1.760745E-01
  1.758706E-01
  1.756530E-01
  1.753639E-01
  1.750748E-01
  1.747857E-01
  1.744966E-01
  1.742075E-01
  1.739184E-01
  1.735676E-01
  1.731770E-01
  1.727863E-01
  1.723957E-01
  1.720100E-01
  1.716193E-01
  1.711843E-01
  1.706780E-01
  1.701717E-01
  1.696653E-01
  1.691590E-01
  1.686527E-01
  1.680862E-01
  1.674519E-01
  1.668176E-01
  1.661834E-01
  1.655492E-01
  1.649150E-01
  1.641701E-01
  1.634061E-01
  1.626422E-01
  1.618784E-01
  1.611146E-01
  1.602908E-01
  1.594109E-01
  1.585310E-01
  1.576513E-01
  1.567717E-01
  1.558477E-01
  1.548691E-01
  1.538905E-01
  1.529120E-01
  1.519337E-01
  1.509081E-01
  1.498549E-01
  1.488018E-01
  1.477488E-01
  1.466945E-01
  1.456149E-01
  1.445354E-01
  1.434561E-01
  1.423768E-01
  1.413109E-01
  1.402507E-01
  1.391906E-01
  1.381306E-01
  1.370929E-01
  1.360714E-01
  1.350501E-01
  1.340290E-01
  1.330549E-01
  1.321053E-01
  1.311561E-01
  1.302071E-01
  1.293704E-01
  1.285425E-01
  1.277149E-01
  1.269352E-01
  1.262299E-01
  1.255252E-01
  1.248232E-01
  1.241929E-01
  1.235639E-01
  1.229360E-01
  1.223427E-01
  1.217548E-01
  1.211718E-01
  1.205900E-01
  1.200104E-01
  1.194330E-01
  1.187824E-01
  1.181270E-01
  1.174464E-01
  1.166375E-01
  1.158307E-01
  1.149125E-01
  1.139113E-01
  1.128903E-01
  1.116788E-01
  1.104683E-01
  1.091008E-01
  1.076816E-01
  1.061652E-01
  1.045589E-01
  1.028927E-01
  1.011364E-01
  9.933868E-02
  9.747529E-02
  9.558278E-02
  9.365792E-02
  9.172340E-02
  8.978411E-02
  8.787533E-02
  8.599247E-02
  8.416682E-02
  8.243284E-02
  8.077425E-02
  7.923915E-02
  7.786868E-02
  7.664068E-02
  7.558243E-02
  7.473168E-02
  7.422620E-02
  7.429226E-02
  7.544948E-02
  7.860645E-02
  8.518862E-02
  9.744678E-02
  1.142018E-01
  1.197785E-01
  1.258095E-01
 -7.847418E-03
  4.942034E-08
  9.834882E-01
  9.833421E-01
  9.831960E-01
  9.830499E-01
  9.829038E-01
  9.827577E-01
  9.826116E-01
  9.824655E-01
  9.823194E-01
  9.818975E-01
  9.814630E-01
  9.810284E-01
  9.805939E-01
  9.801594E-01
  9.797249E-01
  9.792904E-01
  9.787726E-01
  9.780736E-01
  9.773746E-01
  9.766756E-01
  9.759766E-01
  9.752776E-01
  9.745786E-01
  9.738643E-01
  9.728896E-01