 Title= "ADflow Lift Distribution Data"
Variables = "eta" "CoordinateX" "CoordinateY" "CoordinateZ" "Lift" "Drag" "Moment" "Normalized Lift" "Normalized Drag" "Normalized Moment" "CL" "CD" "CM" "CLp" "CDp" "CMp" "CLv" "CDv" "CMv" "Elliptical" "thickness" "twist" "chord" "fx" "fy" "fz" 
Zone T= "LiftDist_01 allWalls: : z normal"
 I=          150
 DATAPACKING=BLOCK
  0.000000E+00
  6.711405E-03
  1.342281E-02
  2.013422E-02
  2.684563E-02
  3.355704E-02
  4.026845E-02
  4.697986E-02
  5.369127E-02
  6.040268E-02
  6.711409E-02
  7.382550E-02
  8.053691E-02
  8.724832E-02
  9.395973E-02
  1.006711E-01
  1.073825E-01
  1.140940E-01
  1.208054E-01
  1.275168E-01
  1.342282E-01
  1.409396E-01
  1.476510E-01
  1.543624E-01
  1.610738E-01
  1.677852E-01
  1.744966E-01
  1.812081E-01
  1.879195E-01
  1.946309E-01
  2.013423E-01
  2.080537E-01
  2.147651E-01
  2.214765E-01
  2.281879E-01
  2.348993E-01
  2.416107E-01
  2.483221E-01
  2.550336E-01
  2.617450E-01
  2.684564E-01
  2.751678E-01
  2.818792E-01
  2.885906E-01
  2.953020E-01
  3.020134E-01
  3.087248E-01
  3.154362E-01
  3.221476E-01
  3.288591E-01
  3.355705E-01
  3.422819E-01
  3.489933E-01
  3.557047E-01
  3.624161E-01
  3.691275E-01
  3.758389E-01
  3.825503E-01
  3.892617E-01
  3.959732E-01
  4.026846E-01
  4.093960E-01
  4.161074E-01
  4.228188E-01
  4.295302E-01
  4.362416E-01
  4.429530E-01
  4.496644E-01
  4.563758E-01
  4.630872E-01
  4.697987E-01
  4.765101E-01
  4.832215E-01
  4.899329E-01
  4.966443E-01
  5.033557E-01
  5.100671E-01
  5.167785E-01
  5.234899E-01
  5.302013E-01
  5.369128E-01
  5.436242E-01
  5.503356E-01
  5.570470E-01
  5.637584E-01
  5.704698E-01
  5.771812E-01
  5.838926E-01
  5.906040E-01
  5.973154E-01
  6.040268E-01
  6.107383E-01
  6.174497E-01
  6.241611E-01
  6.308725E-01
  6.375839E-01
  6.442953E-01
  6.510067E-01
  6.577181E-01
  6.644295E-01
  6.711409E-01
  6.778524E-01
  6.845638E-01
  6.912752E-01
  6.979866E-01
  7.046980E-01
  7.114094E-01
  7.181208E-01
  7.248322E-01
  7.315436E-01
  7.382550E-01
  7.449664E-01
  7.516779E-01
  7.583893E-01
  7.651007E-01
  7.718121E-01
  7.785235E-01
  7.852349E-01
  7.919463E-01
  7.986577E-01
  8.053691E-01
  8.120805E-01
  8.187919E-01
  8.255034E-01
  8.322148E-01
  8.389262E-01
  8.456376E-01
  8.523490E-01
  8.590604E-01
  8.657718E-01
  8.724832E-01
  8.791946E-01
  8.859060E-01
  8.926175E-01
  8.993289E-01
  9.060403E-01
  9.127517E-01
  9.194631E-01
  9.261745E-01
  9.328859E-01
  9.395973E-01
  9.463087E-01
  9.530201E-01
  9.597315E-01
  9.664430E-01
  9.731544E-01
  9.798658E-01
  9.865772E-01
  9.932886E-01
  1.000000E+00
  0.000000E+00
  0.000000E+00
  0.000000E+00
  0.000000E+00
  0.000000E+00
  0.000000E+00
  0.000000E+00
  0.000000E+00
  0.000000E+00
  0.000000E+00
  0.000000E+00
  0.000000E+00
  0.000000E+00
  0.000000E+00
  0.000000E+00
  0.000000E+00
  0.000000E+00
  0.000000E+00
  0.000000E+00
  0.000000E+00
  0.000000E+00
  0.000000E+00
  0.000000E+00
  0.000000E+00
  0.000000E+00
  0.000000E+00
  0.000000E+00
  0.000000E+00
  0.000000E+00
  0.000000E+00
  0.000000E+00
  0.000000E+00
  0.000000E+00
  0.000000E+00
  0.000000E+00
  0.000000E+00
  0.000000E+00
  0.000000E+00
  0.000000E+00
  0.000000E+00
  0.000000E+00
  0.000000E+00
  0.000000E+00
  0.000000E+00
  0.000000E+00
  0.000000E+00
  0.000000E+00
  0.000000E+00
  0.000000E+00
  0.000000E+00
  0.000000E+00
  0.000000E+00
  0.000000E+00
  0.000000E+00
  0.000000E+00
  0.000000E+00
  0.000000E+00
  0.000000E+00
  0.000000E+00
  0.000000E+00
  0.000000E+00
  0.000000E+00
  0.000000E+00
  0.000000E+00
  0.000000E+00
  0.000000E+00
  0.000000E+00
  0.000000E+00
  0.000000E+00
  0.000000E+00
  0.000000E+00
  0.000000E+00
  0.000000E+00
  0.000000E+00
  0.000000E+00
  0.000000E+00
  0.000000E+00
  0.000000E+00
  0.000000E+00
  0.000000E+00
  0.000000E+00
  0.000000E+00
  0.000000E+00
  0.000000E+00
  0.000000E+00
  0.000000E+00
  0.000000E+00
  0.000000E+00
  0.000000E+00
  0.000000E+00
  0.000000E+00
  0.000000E+00
  0.000000E+00
  0.000000E+00
  0.000000E+00
  0.000000E+00
  0.000000E+00
  0.000000E+00
  0.000000E+00
  0.000000E+00
  0.000000E+00
  0.000000E+00
  0.000000E+00
  0.000000E+00
  0.000000E+00
  0.000000E+00
  0.000000E+00
  0.000000E+00
  0.000000E+00
  0.000000E+00
  0.000000E+00
  0.000000E+00
  0.000000E+00
  0.000000E+00
  0.000000E+00
  0.000000E+00
  0.000000E+00
  0.000000E+00
  0.000000E+00
  0.000000E+00
  0.000000E+00
  0.000000E+00
  0.000000E+00
  0.000000E+00
  0.000000E+00
  0.000000E+00
  0.000000E+00
  0.000000E+00
  0.000000E+00
  0.000000E+00
  0.000000E+00
  0.000000E+00
  0.000000E+00
  0.000000E+00
  0.000000E+00
  0.000000E+00
  0.000000E+00
  0.000000E+00
  0.000000E+00
  0.000000E+00
  0.000000E+00
  0.000000E+00
  0.000000E+00
  0.000000E+00
  0.000000E+00
  0.000000E+00
  0.000000E+00
  0.000000E+00
  0.000000E+00
  0.000000E+00
  0.000000E+00
  0.000000E+00
  0.000000E+00
  0.000000E+00
  0.000000E+00
  0.000000E+00
  0.000000E+00
  0.000000E+00
  0.000000E+00
  0.000000E+00
  0.000000E+00
  0.000000E+00
  0.000000E+00
  0.000000E+00
  0.000000E+00
  0.000000E+00
  0.000000E+00
  0.000000E+00
  0.000000E+00
  0.000000E+00
  0.000000E+00
  0.000000E+00
  0.000000E+00
  0.000000E+00
  0.000000E+00
  0.000000E+00
  0.000000E+00
  0.000000E+00
  0.000000E+00
  0.000000E+00
  0.000000E+00
  0.000000E+00
  0.000000E+00
  0.000000E+00
  0.000000E+00
  0.000000E+00
  0.000000E+00
  0.000000E+00
  0.000000E+00
  0.000000E+00
  0.000000E+00
  0.000000E+00
  0.000000E+00
  0.000000E+00
  0.000000E+00
  0.000000E+00
  0.000000E+00
  0.000000E+00
  0.000000E+00
  0.000000E+00
  0.000000E+00
  0.000000E+00
  0.000000E+00
  0.000000E+00
  0.000000E+00
  0.000000E+00
  0.000000E+00
  0.000000E+00
  0.000000E+00
  0.000000E+00
  0.000000E+00
  0.000000E+00
  0.000000E+00
  0.000000E+00
  0.000000E+00
  0.000000E+00
  0.000000E+00
  0.000000E+00
  0.000000E+00
  0.000000E+00
  0.000000E+00
  0.000000E+00
  0.000000E+00
  0.000000E+00
  0.000000E+00
  0.000000E+00
  0.000000E+00
  0.000000E+00
  0.000000E+00
  0.000000E+00
  0.000000E+00
  0.000000E+00
  0.000000E+00
  0.000000E+00
  0.000000E+00
  0.000000E+00
  0.000000E+00
  0.000000E+00
  0.000000E+00
  0.000000E+00
  0.000000E+00
  0.000000E+00
  0.000000E+00
  0.000000E+00
  0.000000E+00
  0.000000E+00
  0.000000E+00
  0.000000E+00
  0.000000E+00
  0.000000E+00
  0.000000E+00
  0.000000E+00
  0.000000E+00
  0.000000E+00
  0.000000E+00
  0.000000E+00
  0.000000E+00
  0.000000E+00
  0.000000E+00
  0.000000E+00
  0.000000E+00
  0.000000E+00
  0.000000E+00
  0.000000E+00
  0.000000E+00
  0.000000E+00
  0.000000E+00
  0.000000E+00
  0.000000E+00
  0.000000E+00
  0.000000E+00
  0.000000E+00
  0.000000E+00
  0.000000E+00
  0.000000E+00
  0.000000E+00
  0.000000E+00
  0.000000E+00
  0.000000E+00
  0.000000E+00
  0.000000E+00
  0.000000E+00
  0.000000E+00
  0.000000E+00
  0.000000E+00
  0.000000E+00
  0.000000E+00
  0.000000E+00
  0.000000E+00
  0.000000E+00
  0.000000E+00
  0.000000E+00
  0.000000E+00
  0.000000E+00
  0.000000E+00
  0.000000E+00
  0.000000E+00
  0.000000E+00
  0.000000E+00
  0.000000E+00
  1.000000E-08
  1.690972E-02
  3.381945E-02
  5.072917E-02
  6.763890E-02
  8.454862E-02
  1.014583E-01
  1.183681E-01
  1.352778E-01
  1.521875E-01
  1.690972E-01
  1.860070E-01
  2.029167E-01
  2.198264E-01
  2.367361E-01
  2.536459E-01
  2.705556E-01
  2.874653E-01
  3.043750E-01
  3.212848E-01
  3.381945E-01
  3.551042E-01
  3.720139E-01
  3.889237E-01
  4.058334E-01
  4.227431E-01
  4.396528E-01
  4.565626E-01
  4.734723E-01
  4.903820E-01
  5.072917E-01
  5.242015E-01
  5.411112E-01
  5.580209E-01
  5.749306E-01
  5.918404E-01
  6.087501E-01
  6.256598E-01
  6.425695E-01
  6.594792E-01
  6.763890E-01
  6.932987E-01
  7.102084E-01
  7.271181E-01
  7.440279E-01
  7.609376E-01
  7.778473E-01
  7.947570E-01
  8.116668E-01
  8.285765E-01
  8.454862E-01
  8.623959E-01
  8.793057E-01
  8.962154E-01
  9.131251E-01
  9.300348E-01
  9.469446E-01
  9.638543E-01
  9.807640E-01
  9.976737E-01
  1.014583E+00
  1.031493E+00
  1.048403E+00
  1.065313E+00
  1.082222E+00
  1.099132E+00
  1.116042E+00
  1.132952E+00
  1.149861E+00
  1.166771E+00
  1.183681E+00
  1.200590E+00
  1.217500E+00
  1.234410E+00
  1.251320E+00
  1.268229E+00
  1.285139E+00
  1.302049E+00
  1.318958E+00
  1.335868E+00
  1.352778E+00
  1.369688E+00
  1.386597E+00
  1.403507E+00
  1.420417E+00
  1.437327E+00
  1.454236E+00
  1.471146E+00
  1.488056E+00
  1.504965E+00
  1.521875E+00
  1.538785E+00
  1.555695E+00
  1.572604E+00
  1.589514E+00
  1.606424E+00
  1.623334E+00
  1.640243E+00
  1.657153E+00
  1.674063E+00
  1.690972E+00
  1.707882E+00
  1.724792E+00
  1.741702E+00
  1.758611E+00
  1.775521E+00
  1.792431E+00
  1.809341E+00
  1.826250E+00
  1.843160E+00
  1.860070E+00
  1.876979E+00
  1.893889E+00
  1.910799E+00
  1.927709E+00
  1.944618E+00
  1.961528E+00
  1.978438E+00
  1.995347E+00
  2.012257E+00
  2.029167E+00
  2.046077E+00
  2.062986E+00
  2.079896E+00
  2.096806E+00
  2.113716E+00
  2.130625E+00
  2.147535E+00
  2.164445E+00
  2.181354E+00
  2.198264E+00
  2.215174E+00
  2.232084E+00
  2.248993E+00
  2.265903E+00
  2.282813E+00
  2.299723E+00
  2.316632E+00
  2.333542E+00
  2.350452E+00
  2.367361E+00
  2.384271E+00
  2.401181E+00
  2.418091E+00
  2.435000E+00
  2.451910E+00
  2.468820E+00
  2.485729E+00
  2.502639E+00
  2.519549E+00
  1.084925E+04
  1.084791E+04
  1.084656E+04
  1.084522E+04
  1.084388E+04
  1.084254E+04
  1.084120E+04
  1.083985E+04
  1.083851E+04
  1.083469E+04
  1.083076E+04
  1.082683E+04
  1.082290E+04
  1.081897E+04
  1.081503E+04
  1.081110E+04
  1.080645E+04
  1.080022E+04
  1.079400E+04
  1.078777E+04
  1.078154E+04
  1.077532E+04
  1.076909E+04
  1.076274E+04
  1.075416E+04
  1.074558E+04
  1.073700E+04
  1.072842E+04
  1.071984E+04
  1.071126E+04
  1.070228E+04
  1.069117E+04
  1.068006E+04
  1.066894E+04
  1.065783E+04
  1.064672E+04
  1.063561E+04
  1.062288E+04
  1.060911E+04
  1.059534E+04
  1.058157E+04
  1.056780E+04
  1.055403E+04
  1.053921E+04
  1.052267E+04
  1.050614E+04
  1.048960E+04
  1.047307E+04
  1.045653E+04
  1.043863E+04
  1.041919E+04
  1.039975E+04
  1.038031E+04
  1.036087E+04
  1.034143E+04
  1.031938E+04
  1.029687E+04
  1.027437E+04
  1.025186E+04
  1.022936E+04
  1.020518E+04
  1.017943E+04
  1.015369E+04
  1.012794E+04
  1.010219E+04
  1.007490E+04
  1.004569E+04
  1.001648E+04
  9.987268E+03
  9.958058E+03
  9.926497E+03
  9.893561E+03
  9.860625E+03
  9.827690E+03
  9.794529E+03
  9.757565E+03
  9.720602E+03
  9.683639E+03
  9.646675E+03
  9.606634E+03
  9.565333E+03
  9.524032E+03
  9.482732E+03
  9.438763E+03
  9.392865E+03
  9.346968E+03
  9.301073E+03
  9.252032E+03
  9.201356E+03
  9.150684E+03
  9.100017E+03
  9.044739E+03
  8.989130E+03
  8.933530E+03
  8.875960E+03
  8.815319E+03
  8.754698E+03
  8.693961E+03
  8.628497E+03
  8.563067E+03
  8.497671E+03
  8.428660E+03
  8.358962E+03
  8.289309E+03
  8.216488E+03
  8.142902E+03
  8.069366E+03
  7.992383E+03
  7.915121E+03
  7.837283E+03
  7.756524E+03
  7.675812E+03
  7.593233E+03
  7.509263E+03
  7.425023E+03
  7.338021E+03
  7.251050E+03
  7.161835E+03
  7.071891E+03
  6.980344E+03
  6.887312E+03
  6.792979E+03
  6.696683E+03
  6.599014E+03
  6.499153E+03
  6.397470E+03
  6.293758E+03
  6.187498E+03
  6.079906E+03
  5.968875E+03
  5.856603E+03
  5.741904E+03
  5.624918E+03
  5.506351E+03
  5.385559E+03
  5.262191E+03
  5.136625E+03
  5.008464E+03
  4.877242E+03
  4.742488E+03
  4.607422E+03
  4.479602E+03
  4.372025E+03
  4.309028E+03
  4.348244E+03
  4.459586E+03
  4.236332E+03
  4.510461E+03
  1.132566E+03
  2.219235E-03
  5.877109E+02
  5.877016E+02
  5.876923E+02
  5.876830E+02
  5.876737E+02
  5.876644E+02
  5.876550E+02
  5.876457E+02
  5.876364E+02
  5.876673E+02
  5.877000E+02
  5.877327E+02
  5.877654E+02
  5.877981E+02
  5.878308E+02
  5.878635E+02
  5.879320E+02
  5.880784E+02
  5.882249E+02
  5.883713E+02
  5.885177E+02
  5.886642E+02
  5.888106E+02
  5.889613E+02
  5.891852E+02
  5.894090E+02
  5.896329E+02
  5.898568E+02
  5.900806E+02
  5.903045E+02
  5.905303E+02
  5.907666E+02
  5.910029E+02
  5.912392E+02
  5.914754E+02
  5.917117E+02
  5.919480E+02
  5.921738E+02
  5.923928E+02
  5.926118E+02
  5.928308E+02
  5.930498E+02
  5.932688E+02
  5.934755E+02
  5.936625E+02
  5.938495E+02
  5.940365E+02
  5.942234E+02
  5.944104E+02
  5.945721E+02
  5.947053E+02
  5.948385E+02
  5.949717E+02
  5.951049E+02
  5.952381E+02
  5.952984E+02
  5.953460E+02
  5.953937E+02
  5.954414E+02
  5.954891E+02
  5.954740E+02
  5.954004E+02
  5.953268E+02
  5.952532E+02
  5.951796E+02
  5.950308E+02
  5.947891E+02
  5.945474E+02
  5.943058E+02
  5.940641E+02
  5.936849E+02
  5.932254E+02
  5.927659E+02
  5.923063E+02
  5.918333E+02
  5.911324E+02
  5.904315E+02
  5.897306E+02
  5.890297E+02
  5.881189E+02
  5.871220E+02
  5.861252E+02
  5.851283E+02
  5.838903E+02
  5.824779E+02
  5.810654E+02
  5.796528E+02
  5.779115E+02
  5.759990E+02
  5.740866E+02
  5.721742E+02
  5.697645E+02
  5.673186E+02
  5.648733E+02
  5.621811E+02
  5.591047E+02
  5.560303E+02
  5.529392E+02
  5.491992E+02
  5.454633E+02
  5.417316E+02
  5.375821E+02
  5.333539E+02
  5.291319E+02
  5.246437E+02
  5.200935E+02
  5.155506E+02
  5.107892E+02
  5.060138E+02
  5.012207E+02
  4.963162E+02
  4.914181E+02
  4.865120E+02
  4.816004E+02
  4.767024E+02
  4.718884E+02
  4.670774E+02
  4.624147E+02
  4.578017E+02
  4.533320E+02
  4.489934E+02
  4.447899E+02
  4.407882E+02
  4.369396E+02
  4.333347E+02
  4.299264E+02
  4.267371E+02
  4.238282E+02
  4.210648E+02
  4.187332E+02
  4.165857E+02
  4.148140E+02
  4.134935E+02
  4.125206E+02
  4.120903E+02
  4.123587E+02
  4.132282E+02
  4.148101E+02
  4.172518E+02
  4.210478E+02
  4.269297E+02
  4.365929E+02
  4.529105E+02
  4.808552E+02
  5.303310E+02
  6.002292E+02
  6.394877E+02
  7.548165E+02
  2.891931E+02
  5.353760E-04
  2.045641E+03
  2.045510E+03
  2.045380E+03
  2.045249E+03
  2.045118E+03
  2.044987E+03
  2.044857E+03
  2.044726E+03
  2.044595E+03
  2.044279E+03
  2.043955E+03
  2.043630E+03
  2.043305E+03
  2.042981E+03
  2.042656E+03
  2.042332E+03
  2.041969E+03
  2.041525E+03
  2.041081E+03
  2.040637E+03
  2.040193E+03
  2.039748E+03
  2.039304E+03
  2.038849E+03
  2.038217E+03
  2.037584E+03
  2.036951E+03
  2.036318E+03
  2.035685E+03
  2.035053E+03
  2.034375E+03
  2.033458E+03
  2.032541E+03
  2.031625E+03
  2.030708E+03
  2.029791E+03
  2.028875E+03
  2.027751E+03
  2.026492E+03
  2.025234E+03
  2.023976E+03
  2.022718E+03
  2.021460E+03
  2.020055E+03
  2.018413E+03
  2.016771E+03
  2.015129E+03
  2.013486E+03
  2.011844E+03
  2.010000E+03
  2.007928E+03
  2.005856E+03
  2.003784E+03
  2.001712E+03
  1.999640E+03
  1.997157E+03
  1.994604E+03
  1.992051E+03
  1.989497E+03
  1.986944E+03
  1.984109E+03
  1.981013E+03
  1.977916E+03
  1.974819E+03
  1.971722E+03
  1.968342E+03
  1.964611E+03
  1.960880E+03
  1.957149E+03
  1.953418E+03
  1.949234E+03
  1.944786E+03
  1.940338E+03
  1.935889E+03
  1.931399E+03
  1.926213E+03
  1.921026E+03
  1.915840E+03
  1.910653E+03
  1.904838E+03
  1.898765E+03
  1.892693E+03
  1.886620E+03
  1.879804E+03
  1.872449E+03
  1.865094E+03
  1.857740E+03
  1.849330E+03
  1.840372E+03
  1.831414E+03
  1.822458E+03
  1.811879E+03
  1.801182E+03
  1.790487E+03
  1.779008E+03
  1.766307E+03
  1.753610E+03
  1.740858E+03
  1.725944E+03
  1.711041E+03
  1.696148E+03
  1.679734E+03
  1.663027E+03
  1.646335E+03
  1.628711E+03
  1.610862E+03
  1.593032E+03
  1.574477E+03
  1.555871E+03
  1.537181E+03
  1.518024E+03
  1.498884E+03
  1.479563E+03
  1.460107E+03
  1.440653E+03
  1.421083E+03
  1.401525E+03
  1.381929E+03
  1.362326E+03
  1.342676E+03
  1.322980E+03
  1.303216E+03
  1.283347E+03
  1.263369E+03
  1.243213E+03
  1.222888E+03
  1.202374E+03
  1.181691E+03
  1.160920E+03
  1.140159E+03
  1.119506E+03
  1.099113E+03
  1.079271E+03
  1.059912E+03
  1.041384E+03
  1.023994E+03
  1.007549E+03
  9.921864E+02
  9.780536E+02
  9.660395E+02
  9.581935E+02
  9.596460E+02
  9.797254E+02
  1.033786E+03
  1.147616E+03
  1.311944E+03
  1.369641E+03
  1.483433E+03
 -1.198951E+02
  2.797507E-09
  1.221272E+00
  1.221121E+00
  1.220970E+00
  1.220819E+00
  1.220668E+00
  1.220517E+00
  1.220366E+00
  1.220215E+00
  1.220064E+00
  1.219634E+00
  1.219191E+00
  1.218749E+00
  1.218306E+00
  1.217863E+00
  1.217421E+00
  1.216978E+00
  1.216454E+00
  1.215754E+00
  1.215053E+00
  1.214352E+00
  1.213651E+00
  1.212950E+00
  1.212249E+00
  1.211534E+00
  1.210568E+00
  1.209603E+00
  1.208637E+00
  1.207671E+00
  1.206705E+00
  1.205740E+00
  1.204729E+00
  1.203478E+00
  1.202227E+00
  1.200976E+00
  1.199725E+00
  1.198474E+00
  1.197223E+00
  1.195791E+00
  1.194241E+00
  1.192691E+00
  1.191141E+00
  1.189591E+00
  1.188041E+00
  1.186371E+00
  1.184510E+00
  1.182649E+00
  1.180788E+00
  1.178927E+00
  1.177065E+00
  1.175050E+00
  1.172862E+00
  1.170674E+00
  1.168485E+00
  1.166297E+00
  1.164108E+00
  1.161626E+00
  1.159093E+00
  1.156559E+00
  1.154026E+00
  1.151493E+00
  1.148771E+00
  1.145873E+00
  1.142975E+00
  1.140076E+00
  1.137178E+00
  1.134106E+00
  1.130818E+00
  1.127529E+00
  1.124241E+00
  1.120953E+00
  1.117400E+00
  1.113693E+00
  1.109986E+00
  1.106278E+00
  1.102545E+00
  1.098384E+00
  1.094223E+00
  1.090063E+00
  1.085902E+00
  1.081394E+00
  1.076745E+00
  1.072096E+00
  1.067447E+00
  1.062497E+00
  1.057331E+00
  1.052164E+00
  1.046998E+00
  1.041478E+00
  1.035773E+00
  1.030069E+00
  1.024366E+00
  1.018143E+00
  1.011883E+00
  1.005625E+00
  9.991442E-01
  9.923180E-01
  9.854940E-01
  9.786570E-01
  9.712880E-01
  9.639227E-01
  9.565612E-01
  9.487929E-01
  9.409471E-01
  9.331065E-01
  9.249092E-01
  9.166257E-01
  9.083480E-01
  8.996822E-01
  8.909850E-01
  8.822230E-01
  8.731322E-01
  8.640466E-01
  8.547509E-01
  8.452987E-01
  8.358160E-01
  8.260223E-01
  8.162323E-01
  8.061896E-01
  7.960648E-01
  7.857595E-01
  7.752872E-01
  7.646684E-01
  7.538285E-01
  7.428342E-01
  7.315931E-01
  7.201470E-01
  7.084724E-01
  6.965109E-01
  6.843995E-01
  6.719011E-01
  6.592629E-01
  6.463516E-01
  6.331827E-01
  6.198359E-01
  6.062387E-01
  5.923515E-01
  5.782168E-01
  5.637901E-01
  5.490187E-01
  5.338498E-01
  5.186458E-01
  5.042574E-01
  4.921477E-01
  4.850564E-01
  4.894708E-01
  5.020042E-01
  4.768731E-01
  5.077312E-01
  1.274901E-01
  2.498136E-07
  1.074668E+00
  1.074651E+00
  1.074634E+00
  1.074617E+00
  1.074600E+00
  1.074583E+00
  1.074566E+00
  1.074549E+00
  1.074532E+00
  1.074589E+00
  1.074648E+00
  1.074708E+00
  1.074768E+00
  1.074828E+00
  1.074888E+00
  1.074947E+00
  1.075073E+00
  1.075340E+00
  1.075608E+00
  1.075876E+00
  1.076144E+00
  1.076412E+00
  1.076679E+00
  1.076955E+00
  1.077364E+00
  1.077774E+00
  1.078183E+00
  1.078592E+00
  1.079002E+00
  1.079411E+00
  1.079824E+00
  1.080256E+00
  1.080688E+00
  1.081120E+00
  1.081552E+00
  1.081984E+00
  1.082416E+00
  1.082829E+00
  1.083230E+00
  1.083630E+00
  1.084030E+00
  1.084431E+00
  1.084831E+00
  1.085209E+00
  1.085551E+00
  1.085893E+00
  1.086235E+00
  1.086577E+00
  1.086919E+00
  1.087215E+00
  1.087458E+00
  1.087702E+00
  1.087945E+00
  1.088189E+00
  1.088432E+00
  1.088543E+00
  1.088630E+00
  1.088717E+00
  1.088804E+00
  1.088891E+00
  1.088864E+00
  1.088729E+00
  1.088595E+00
  1.088460E+00
  1.088325E+00
  1.088053E+00
  1.087611E+00
  1.087169E+00
  1.086728E+00
  1.086286E+00
  1.085592E+00
  1.084752E+00
  1.083912E+00
  1.083071E+00
  1.082206E+00
  1.080925E+00
  1.079643E+00
  1.078362E+00
  1.077080E+00
  1.075414E+00
  1.073592E+00
  1.071769E+00
  1.069946E+00
  1.067682E+00
  1.065099E+00
  1.062517E+00
  1.059934E+00
  1.056749E+00
  1.053252E+00
  1.049755E+00
  1.046258E+00
  1.041852E+00
  1.037380E+00
  1.032908E+00
  1.027986E+00
  1.022360E+00
  1.016738E+00
  1.011086E+00
  1.004247E+00
  9.974159E-01
  9.905921E-01
  9.830045E-01
  9.752729E-01
  9.675528E-01
  9.593458E-01
  9.510255E-01
  9.427185E-01
  9.340120E-01
  9.252799E-01
  9.165153E-01
  9.075471E-01
  8.985907E-01
  8.896194E-01
  8.806382E-01
  8.716820E-01
  8.628792E-01
  8.540821E-01
  8.455561E-01
  8.371209E-01
  8.289476E-01
  8.210142E-01
  8.133278E-01
  8.060105E-01
  7.989730E-01
  7.923812E-01
  7.861490E-01
  7.803172E-01
  7.749980E-01
  7.699450E-01
  7.656815E-01
  7.617546E-01
  7.585149E-01
  7.561002E-01
  7.543213E-01
  7.535344E-01
  7.540252E-01
  7.556152E-01
  7.585077E-01
  7.629726E-01
  7.699138E-01
  7.806693E-01
  7.983390E-01
  8.281769E-01
  8.792757E-01
  9.697454E-01
  1.097559E+00
  1.169346E+00
  1.380232E+00
  5.288087E-01
  9.789706E-07
  1.179834E+00
  1.179759E+00
  1.179683E+00
  1.179608E+00
  1.179532E+00
  1.179457E+00
  1.179382E+00
  1.179306E+00
  1.179231E+00
  1.179048E+00
  1.178861E+00
  1.178674E+00
  1.178487E+00
  1.178300E+00
  1.178112E+00
  1.177925E+00
  1.177716E+00
  1.177460E+00
  1.177204E+00
  1.176948E+00
  1.176692E+00
  1.176435E+00
  1.176179E+00
  1.175917E+00
  1.175552E+00
  1.175187E+00
  1.174822E+00
  1.174457E+00
  1.174092E+00
  1.173727E+00
  1.173336E+00
  1.172807E+00
  1.172279E+00
  1.171750E+00
  1.171221E+00
  1.170693E+00
  1.170164E+00
  1.169516E+00
  1.168790E+00
  1.168064E+00
  1.167339E+00
  1.166613E+00
  1.165887E+00
  1.165077E+00
  1.164130E+00
  1.163183E+00
  1.162236E+00
  1.161289E+00
  1.160342E+00
  1.159278E+00
  1.158083E+00
  1.156888E+00
  1.155693E+00
  1.154498E+00
  1.153303E+00
  1.151871E+00
  1.150398E+00
  1.148925E+00
  1.147453E+00
  1.145980E+00
  1.144345E+00
  1.142559E+00
  1.140773E+00
  1.138987E+00
  1.137201E+00
  1.135251E+00
  1.133099E+00
  1.130948E+00
  1.128796E+00
  1.126644E+00
  1.124231E+00
  1.121665E+00
  1.119100E+00
  1.116534E+00
  1.113945E+00
  1.110953E+00
  1.107962E+00
  1.104970E+00
  1.101979E+00
  1.098625E+00
  1.095123E+00
  1.091620E+00
  1.088118E+00
  1.084186E+00
  1.079945E+00
  1.075703E+00
  1.071461E+00
  1.066611E+00
  1.061444E+00
  1.056278E+00
  1.051112E+00
  1.045010E+00
  1.038841E+00
  1.032673E+00
  1.026052E+00
  1.018726E+00
  1.011404E+00
  1.004049E+00
  9.954472E-01
  9.868517E-01
  9.782621E-01
  9.687953E-01
  9.591595E-01
  9.495324E-01
  9.393672E-01
  9.290732E-01
  9.187895E-01
  9.080878E-01
  8.973565E-01
  8.865768E-01
  8.755279E-01
  8.644892E-01
  8.533454E-01
  8.421244E-01
  8.309039E-01
  8.196168E-01
  8.083367E-01
  7.970346E-01
  7.857285E-01
  7.743950E-01
  7.630353E-01
  7.516368E-01
  7.401770E-01
  7.286543E-01
  7.170297E-01
  7.053072E-01
  6.934753E-01
  6.815463E-01
  6.695667E-01
  6.575926E-01
  6.456806E-01
  6.339190E-01
  6.224750E-01
  6.113095E-01
  6.006238E-01
  5.905937E-01
  5.811092E-01
  5.722486E-01
  5.640974E-01
  5.571682E-01
  5.526430E-01
  5.534807E-01
  5.650616E-01
  5.962412E-01
  6.618932E-01
  7.566704E-01
  7.899472E-01
  8.555775E-01
 -6.915012E-02
  1.613477E-12
  9.605998E-01
  9.604809E-01
  9.603621E-01
  9.602433E-01
  9.601245E-01
  9.600056E-01
  9.598868E-01
  9.597680E-01
  9.596491E-01
  9.593110E-01
  9.589629E-01
  9.586148E-01
  9.582667E-01
  9.579186E-01
  9.575704E-01
  9.572223E-01
  9.568103E-01
  9.562590E-01
  9.557078E-01
  9.551566E-01
  9.546053E-01
  9.540541E-01
  9.535028E-01
  9.529401E-01
  9.521805E-01
  9.514209E-01
  9.506614E-01
  9.499018E-01
  9.491422E-01
  9.483826E-01
  9.475874E-01
  9.466035E-01
  9.456195E-01
  9.446356E-01
  9.436517E-01
  9.426677E-01
  9.416838E-01
  9.405570E-01
  9.393379E-01
  9.381187E-01
  9.368996E-01
  9.356805E-01
  9.344613E-01
  9.331484E-01
  9.316844E-01
  9.302205E-01
  9.287565E-01
  9.272926E-01
  9.258286E-01
  9.242437E-01
  9.225224E-01
  9.208011E-01
  9.190798E-01
  9.173586E-01
  9.156373E-01
  9.136846E-01
  9.116920E-01
  9.096995E-01
  9.077070E-01
  9.057144E-01
  9.035735E-01
  9.012939E-01
  8.990143E-01
  8.967347E-01
  8.944551E-01
  8.920384E-01
  8.894521E-01
  8.868659E-01
  8.842796E-01
  8.816933E-01
  8.788989E-01
  8.759827E-01
  8.730666E-01
  8.701504E-01
  8.672143E-01
  8.639416E-01
  8.606688E-01
  8.573960E-01
  8.541233E-01
  8.505780E-01
  8.469212E-01
  8.432644E-01
  8.396076E-01
  8.357145E-01
  8.316507E-01
  8.275870E-01
  8.235233E-01
  8.191812E-01
  8.146943E-01
  8.102077E-01
  8.057216E-01
  8.008272E-01
  7.959034E-01
  7.909805E-01
  7.858830E-01
  7.805138E-01
  7.751462E-01
  7.697683E-01
  7.639719E-01
  7.581785E-01
  7.523880E-01
  7.462774E-01
  7.401059E-01
  7.339385E-01
  7.274904E-01
  7.209746E-01
  7.144633E-01
  7.076466E-01
  7.008052E-01
  6.939129E-01
  6.867619E-01
  6.796150E-01
  6.723028E-01
  6.648675E-01
  6.574083E-01
  6.497045E-01
  6.420035E-01
  6.341038E-01
  6.261397E-01
  6.180335E-01
  6.097961E-01
  6.014435E-01
  5.929172E-01
  5.842695E-01
  5.754279E-01
  5.664253E-01
  5.572431E-01
  5.478355E-01
  5.383101E-01
  5.284805E-01
  5.185410E-01
  5.083867E-01
  4.980299E-01
  4.875330E-01
  4.768391E-01
  4.659170E-01
  4.547999E-01
  4.434530E-01
  4.318344E-01
  4.199027E-01
  4.079430E-01
  3.966244E-01
  3.870977E-01
  3.815178E-01
  3.849870E-01
  3.948415E-01
  3.750710E-01
  3.993365E-01
  1.168167E-01
  3.935464E-02
  5.203633E-02
  5.203550E-02
  5.203468E-02
  5.203385E-02
  5.203303E-02
  5.203220E-02
  5.203138E-02
  5.203055E-02
  5.202973E-02
  5.203246E-02
  5.203536E-02
  5.203825E-02
  5.204115E-02
  5.204404E-02
  5.204694E-02
  5.204983E-02
  5.205590E-02
  5.206887E-02
  5.208183E-02
  5.209480E-02
  5.210776E-02
  5.212073E-02
  5.213369E-02
  5.214704E-02
  5.216686E-02
  5.218668E-02
  5.220650E-02
  5.222632E-02
  5.224614E-02
  5.226596E-02
  5.228596E-02
  5.230688E-02
  5.232780E-02
  5.234872E-02
  5.236964E-02
  5.239056E-02
  5.241148E-02
  5.243147E-02
  5.245086E-02
  5.247025E-02
  5.248964E-02
  5.250903E-02
  5.252842E-02
  5.254673E-02
  5.256328E-02
  5.257984E-02
  5.259639E-02
  5.261295E-02
  5.262950E-02
  5.264382E-02
  5.265561E-02
  5.266741E-02
  5.267920E-02
  5.269100E-02
  5.270279E-02
  5.270812E-02
  5.271235E-02
  5.271657E-02
  5.272079E-02
  5.272501E-02
  5.272368E-02
  5.271716E-02
  5.271064E-02
  5.270413E-02
  5.269761E-02
  5.268443E-02
  5.266304E-02
  5.264164E-02
  5.262024E-02
  5.259885E-02
  5.256527E-02
  5.252459E-02
  5.248390E-02
  5.244321E-02
  5.240133E-02
  5.233927E-02
  5.227721E-02
  5.221516E-02
  5.215310E-02
  5.207245E-02
  5.198419E-02
  5.189593E-02
  5.180766E-02
  5.169805E-02
  5.157299E-02
  5.144793E-02
  5.132285E-02
  5.116867E-02
  5.099934E-02
  5.083001E-02
  5.066068E-02
  5.044733E-02
  5.023076E-02
  5.001425E-02
  4.977587E-02
  4.950348E-02
  4.923125E-02
  4.895756E-02
  4.862640E-02
  4.829561E-02
  4.796518E-02
  4.759776E-02
  4.722337E-02
  4.684953E-02
  4.645212E-02
  4.604921E-02
  4.564695E-02
  4.522534E-02
  4.480249E-02
  4.437807E-02
  4.394379E-02
  4.351007E-02
  4.307564E-02
  4.264073E-02
  4.220702E-02
  4.178075E-02
  4.135475E-02
  4.094188E-02
  4.053340E-02
  4.013762E-02
  3.975345E-02
  3.938124E-02
  3.902692E-02
  3.868615E-02
  3.836698E-02
  3.806523E-02
  3.778288E-02
  3.752537E-02
  3.728075E-02
  3.707438E-02
  3.688431E-02
  3.672752E-02
  3.661069E-02
  3.652463E-02
  3.648660E-02
  3.651044E-02
  3.658748E-02
  3.672758E-02
  3.694377E-02
  3.727982E-02
  3.780052E-02
  3.865597E-02
  4.010055E-02
  4.257452E-02
  4.695471E-02
  5.314292E-02
  5.661817E-02
  6.682815E-02
  2.982834E-02
  9.494051E-03
  1.811225E-01
  1.811109E-01
  1.810993E-01
  1.810877E-01
  1.810762E-01
  1.810646E-01
  1.810530E-01
  1.810414E-01
  1.810299E-01
  1.810019E-01
  1.809731E-01
  1.809444E-01
  1.809157E-01
  1.808869E-01
  1.808582E-01
  1.808294E-01
  1.807974E-01
  1.807580E-01
  1.807187E-01
  1.806794E-01
  1.806400E-01
  1.806007E-01
  1.805614E-01
  1.805211E-01
  1.804651E-01
  1.804091E-01
  1.803530E-01
  1.802970E-01
  1.802410E-01
  1.801849E-01
  1.801249E-01
  1.800438E-01
  1.799626E-01
  1.798814E-01
  1.798003E-01
  1.797191E-01
  1.796379E-01
  1.795384E-01
  1.794270E-01
  1.793156E-01
  1.792042E-01
  1.790928E-01
  1.789815E-01
  1.788570E-01
  1.787116E-01
  1.785662E-01
  1.784209E-01
  1.782755E-01
  1.781301E-01
  1.779668E-01
  1.777833E-01
  1.775999E-01
  1.774164E-01
  1.772330E-01
  1.770495E-01
  1.768297E-01
  1.766036E-01
  1.763775E-01
  1.761514E-01
  1.759254E-01
  1.756744E-01
  1.754002E-01
  1.751260E-01
  1.748518E-01
  1.745776E-01
  1.742783E-01
  1.739480E-01
  1.736177E-01
  1.732873E-01
  1.729570E-01
  1.725866E-01
  1.721927E-01
  1.717988E-01
  1.714050E-01
  1.710074E-01
  1.705482E-01
  1.700890E-01
  1.696298E-01
  1.691705E-01
  1.686557E-01
  1.681180E-01
  1.675803E-01
  1.670427E-01
  1.664391E-01
  1.657879E-01
  1.651367E-01
  1.644856E-01
  1.637410E-01
  1.629478E-01
  1.621547E-01
  1.613616E-01
  1.604249E-01
  1.594778E-01
  1.585309E-01
  1.575145E-01
  1.563899E-01
  1.552657E-01
  1.541366E-01
  1.528161E-01
  1.514965E-01
  1.501778E-01
  1.487244E-01
  1.472451E-01
  1.457671E-01
  1.442065E-01
  1.426262E-01
  1.410474E-01
  1.394044E-01
  1.377569E-01
  1.361019E-01
  1.344057E-01
  1.327109E-01
  1.310001E-01
  1.292774E-01
  1.275548E-01
  1.258219E-01
  1.240902E-01
  1.223550E-01
  1.206193E-01
  1.188793E-01
  1.171354E-01
  1.153855E-01
  1.136262E-01
  1.118573E-01
  1.100728E-01
  1.082733E-01
  1.064570E-01
  1.046258E-01
  1.027870E-01
  1.009490E-01
  9.912053E-02
  9.731518E-02
  9.555858E-02
  9.384473E-02
  9.220451E-02
  9.066492E-02
  8.920904E-02
  8.784889E-02
  8.659756E-02
  8.553371E-02
  8.483883E-02
  8.496715E-02
  8.674459E-02
  9.153053E-02
  1.016082E-01
  1.161565E-01
  1.212635E-01
  1.313367E-01
 -1.236638E-02
  4.960939E-08
  9.607681E-01
  9.606493E-01
  9.605305E-01
  9.604117E-01
  9.602929E-01
  9.601741E-01
  9.600552E-01
  9.599364E-01
  9.598176E-01
  9.594795E-01
  9.591315E-01
  9.587834E-01
  9.584353E-01
  9.580873E-01
  9.577392E-01
  9.573911E-01
  9.569792E-01
  9.564281E-01
  9.558769E-01
  9.553258E-01
  9.547747E-01
  9.542236E-01
  9.536725E-01
  9.531099E-01
  9.523506E-01