 Title= "ADflow Lift Distribution Data"
Variables = "eta" "CoordinateX" "CoordinateY" "CoordinateZ" "Lift" "Drag" "Moment" "Normalized Lift" "Normalized Drag" "Normalized Moment" "CL" "CD" "CM" "CLp" "CDp" "CMp" "CLv" "CDv" "CMv" "Elliptical" "thickness" "twist" "chord" "fx" "fy" "fz" 
Zone T= "LiftDist_01 allWalls: : z normal"
 I=          150
 DATAPACKING=BLOCK
  0.000000E+00
  6.711405E-03
  1.342281E-02
  2.013422E-02
  2.684563E-02
  3.355704E-02
  4.026845E-02
  4.697986E-02
  5.369127E-02
  6.040268E-02
  6.711409E-02
  7.382550E-02
  8.053691E-02
  8.724832E-02
  9.395973E-02
  1.006711E-01
  1.073825E-01
  1.140940E-01
  1.208054E-01
  1.275168E-01
  1.342282E-01
  1.409396E-01
  1.476510E-01
  1.543624E-01
  1.610738E-01
  1.677852E-01
  1.744966E-01
  1.812081E-01
  1.879195E-01
  1.946309E-01
  2.013423E-01
  2.080537E-01
  2.147651E-01
  2.214765E-01
  2.281879E-01
  2.348993E-01
  2.416107E-01
  2.483221E-01
  2.550336E-01
  2.617450E-01
  2.684564E-01
  2.751678E-01
  2.818792E-01
  2.885906E-01
  2.953020E-01
  3.020134E-01
  3.087248E-01
  3.154362E-01
  3.221476E-01
  3.288591E-01
  3.355705E-01
  3.422819E-01
  3.489933E-01
  3.557047E-01
  3.624161E-01
  3.691275E-01
  3.758389E-01
  3.825503E-01
  3.892617E-01
  3.959732E-01
  4.026846E-01
  4.093960E-01
  4.161074E-01
  4.228188E-01
  4.295302E-01
  4.362416E-01
  4.429530E-01
  4.496644E-01
  4.563758E-01
  4.630872E-01
  4.697987E-01
  4.765101E-01
  4.832215E-01
  4.899329E-01
  4.966443E-01
  5.033557E-01
  5.100671E-01
  5.167785E-01
  5.234899E-01
  5.302013E-01
  5.369128E-01
  5.436242E-01
  5.503356E-01
  5.570470E-01
  5.637584E-01
  5.704698E-01
  5.771812E-01
  5.838926E-01
  5.906040E-01
  5.973154E-01
  6.040268E-01
  6.107383E-01
  6.174497E-01
  6.241611E-01
  6.308725E-01
  6.375839E-01
  6.442953E-01
  6.510067E-01
  6.577181E-01
  6.644295E-01
  6.711409E-01
  6.778524E-01
  6.845638E-01
  6.912752E-01
  6.979866E-01
  7.046980E-01
  7.114094E-01
  7.181208E-01
  7.248322E-01
  7.315436E-01
  7.382550E-01
  7.449664E-01
  7.516779E-01
  7.583893E-01
  7.651007E-01
  7.718121E-01
  7.785235E-01
  7.852349E-01
  7.919463E-01
  7.986577E-01
  8.053691E-01
  8.120805E-01
  8.187919E-01
  8.255034E-01
  8.322148E-01
  8.389262E-01
  8.456376E-01
  8.523490E-01
  8.590604E-01
  8.657718E-01
  8.724832E-01
  8.791946E-01
  8.859060E-01
  8.926175E-01
  8.993289E-01
  9.060403E-01
  9.127517E-01
  9.194631E-01
  9.261745E-01
  9.328859E-01
  9.395973E-01
  9.463087E-01
  9.530201E-01
  9.597315E-01
  9.664430E-01
  9.731544E-01
  9.798658E-01
  9.865772E-01
  9.932886E-01
  1.000000E+00
  0.000000E+00
  0.000000E+00
  0.000000E+00
  0.000000E+00
  0.000000E+00
  0.000000E+00
  0.000000E+00
  0.000000E+00
  0.000000E+00
  0.000000E+00
  0.000000E+00
  0.000000E+00
  0.000000E+00
  0.000000E+00
  0.000000E+00
  0.000000E+00
  0.000000E+00
  0.000000E+00
  0.000000E+00
  0.000000E+00
  0.000000E+00
  0.000000E+00
  0.000000E+00
  0.000000E+00
  0.000000E+00
  0.000000E+00
  0.000000E+00
  0.000000E+00
  0.000000E+00
  0.000000E+00
  0.000000E+00
  0.000000E+00
  0.000000E+00
  0.000000E+00
  0.000000E+00
  0.000000E+00
  0.000000E+00
  0.000000E+00
  0.000000E+00
  0.000000E+00
  0.000000E+00
  0.000000E+00
  0.000000E+00
  0.000000E+00
  0.000000E+00
  0.000000E+00
  0.000000E+00
  0.000000E+00
  0.000000E+00
  0.000000E+00
  0.000000E+00
  0.000000E+00
  0.000000E+00
  0.000000E+00
  0.000000E+00
  0.000000E+00
  0.000000E+00
  0.000000E+00
  0.000000E+00
  0.000000E+00
  0.000000E+00
  0.000000E+00
  0.000000E+00
  0.000000E+00
  0.000000E+00
  0.000000E+00
  0.000000E+00
  0.000000E+00
  0.000000E+00
  0.000000E+00
  0.000000E+00
  0.000000E+00
  0.000000E+00
  0.000000E+00
  0.000000E+00
  0.000000E+00
  0.000000E+00
  0.000000E+00
  0.000000E+00
  0.000000E+00
  0.000000E+00
  0.000000E+00
  0.000000E+00
  0.000000E+00
  0.000000E+00
  0.000000E+00
  0.000000E+00
  0.000000E+00
  0.000000E+00
  0.000000E+00
  0.000000E+00
  0.000000E+00
  0.000000E+00
  0.000000E+00
  0.000000E+00
  0.000000E+00
  0.000000E+00
  0.000000E+00
  0.000000E+00
  0.000000E+00
  0.000000E+00
  0.000000E+00
  0.000000E+00
  0.000000E+00
  0.000000E+00
  0.000000E+00
  0.000000E+00
  0.000000E+00
  0.000000E+00
  0.000000E+00
  0.000000E+00
  0.000000E+00
  0.000000E+00
  0.000000E+00
  0.000000E+00
  0.000000E+00
  0.000000E+00
  0.000000E+00
  0.000000E+00
  0.000000E+00
  0.000000E+00
  0.000000E+00
  0.000000E+00
  0.000000E+00
  0.000000E+00
  0.000000E+00
  0.000000E+00
  0.000000E+00
  0.000000E+00
  0.000000E+00
  0.000000E+00
  0.000000E+00
  0.000000E+00
  0.000000E+00
  0.000000E+00
  0.000000E+00
  0.000000E+00
  0.000000E+00
  0.000000E+00
  0.000000E+00
  0.000000E+00
  0.000000E+00
  0.000000E+00
  0.000000E+00
  0.000000E+00
  0.000000E+00
  0.000000E+00
  0.000000E+00
  0.000000E+00
  0.000000E+00
  0.000000E+00
  0.000000E+00
  0.000000E+00
  0.000000E+00
  0.000000E+00
  0.000000E+00
  0.000000E+00
  0.000000E+00
  0.000000E+00
  0.000000E+00
  0.000000E+00
  0.000000E+00
  0.000000E+00
  0.000000E+00
  0.000000E+00
  0.000000E+00
  0.000000E+00
  0.000000E+00
  0.000000E+00
  0.000000E+00
  0.000000E+00
  0.000000E+00
  0.000000E+00
  0.000000E+00
  0.000000E+00
  0.000000E+00
  0.000000E+00
  0.000000E+00
  0.000000E+00
  0.000000E+00
  0.000000E+00
  0.000000E+00
  0.000000E+00
  0.000000E+00
  0.000000E+00
  0.000000E+00
  0.000000E+00
  0.000000E+00
  0.000000E+00
  0.000000E+00
  0.000000E+00
  0.000000E+00
  0.000000E+00
  0.000000E+00
  0.000000E+00
  0.000000E+00
  0.000000E+00
  0.000000E+00
  0.000000E+00
  0.000000E+00
  0.000000E+00
  0.000000E+00
  0.000000E+00
  0.000000E+00
  0.000000E+00
  0.000000E+00
  0.000000E+00
  0.000000E+00
  0.000000E+00
  0.000000E+00
  0.000000E+00
  0.000000E+00
  0.000000E+00
  0.000000E+00
  0.000000E+00
  0.000000E+00
  0.000000E+00
  0.000000E+00
  0.000000E+00
  0.000000E+00
  0.000000E+00
  0.000000E+00
  0.000000E+00
  0.000000E+00
  0.000000E+00
  0.000000E+00
  0.000000E+00
  0.000000E+00
  0.000000E+00
  0.000000E+00
  0.000000E+00
  0.000000E+00
  0.000000E+00
  0.000000E+00
  0.000000E+00
  0.000000E+00
  0.000000E+00
  0.000000E+00
  0.000000E+00
  0.000000E+00
  0.000000E+00
  0.000000E+00
  0.000000E+00
  0.000000E+00
  0.000000E+00
  0.000000E+00
  0.000000E+00
  0.000000E+00
  0.000000E+00
  0.000000E+00
  0.000000E+00
  0.000000E+00
  0.000000E+00
  0.000000E+00
  0.000000E+00
  0.000000E+00
  0.000000E+00
  0.000000E+00
  0.000000E+00
  0.000000E+00
  0.000000E+00
  0.000000E+00
  0.000000E+00
  0.000000E+00
  0.000000E+00
  0.000000E+00
  0.000000E+00
  0.000000E+00
  0.000000E+00
  0.000000E+00
  0.000000E+00
  0.000000E+00
  0.000000E+00
  0.000000E+00
  0.000000E+00
  0.000000E+00
  0.000000E+00
  0.000000E+00
  0.000000E+00
  0.000000E+00
  0.000000E+00
  0.000000E+00
  0.000000E+00
  0.000000E+00
  0.000000E+00
  0.000000E+00
  0.000000E+00
  0.000000E+00
  0.000000E+00
  0.000000E+00
  0.000000E+00
  0.000000E+00
  0.000000E+00
  0.000000E+00
  0.000000E+00
  0.000000E+00
  0.000000E+00
  0.000000E+00
  0.000000E+00
  0.000000E+00
  1.000000E-08
  1.690972E-02
  3.381945E-02
  5.072917E-02
  6.763890E-02
  8.454862E-02
  1.014583E-01
  1.183681E-01
  1.352778E-01
  1.521875E-01
  1.690972E-01
  1.860070E-01
  2.029167E-01
  2.198264E-01
  2.367361E-01
  2.536459E-01
  2.705556E-01
  2.874653E-01
  3.043750E-01
  3.212848E-01
  3.381945E-01
  3.551042E-01
  3.720139E-01
  3.889237E-01
  4.058334E-01
  4.227431E-01
  4.396528E-01
  4.565626E-01
  4.734723E-01
  4.903820E-01
  5.072917E-01
  5.242015E-01
  5.411112E-01
  5.580209E-01
  5.749306E-01
  5.918404E-01
  6.087501E-01
  6.256598E-01
  6.425695E-01
  6.594792E-01
  6.763890E-01
  6.932987E-01
  7.102084E-01
  7.271181E-01
  7.440279E-01
  7.609376E-01
  7.778473E-01
  7.947570E-01
  8.116668E-01
  8.285765E-01
  8.454862E-01
  8.623959E-01
  8.793057E-01
  8.962154E-01
  9.131251E-01
  9.300348E-01
  9.469446E-01
  9.638543E-01
  9.807640E-01
  9.976737E-01
  1.014583E+00
  1.031493E+00
  1.048403E+00
  1.065313E+00
  1.082222E+00
  1.099132E+00
  1.116042E+00
  1.132952E+00
  1.149861E+00
  1.166771E+00
  1.183681E+00
  1.200590E+00
  1.217500E+00
  1.234410E+00
  1.251320E+00
  1.268229E+00
  1.285139E+00
  1.302049E+00
  1.318958E+00
  1.335868E+00
  1.352778E+00
  1.369688E+00
  1.386597E+00
  1.403507E+00
  1.420417E+00
  1.437327E+00
  1.454236E+00
  1.471146E+00
  1.488056E+00
  1.504965E+00
  1.521875E+00
  1.538785E+00
  1.555695E+00
  1.572604E+00
  1.589514E+00
  1.606424E+00
  1.623334E+00
  1.640243E+00
  1.657153E+00
  1.674063E+00
  1.690972E+00
  1.707882E+00
  1.724792E+00
  1.741702E+00
  1.758611E+00
  1.775521E+00
  1.792431E+00
  1.809341E+00
  1.826250E+00
  1.843160E+00
  1.860070E+00
  1.876979E+00
  1.893889E+00
  1.910799E+00
  1.927709E+00
  1.944618E+00
  1.961528E+00
  1.978438E+00
  1.995347E+00
  2.012257E+00
  2.029167E+00
  2.046077E+00
  2.062986E+00
  2.079896E+00
  2.096806E+00
  2.113716E+00
  2.130625E+00
  2.147535E+00
  2.164445E+00
  2.181354E+00
  2.198264E+00
  2.215174E+00
  2.232084E+00
  2.248993E+00
  2.265903E+00
  2.282813E+00
  2.299723E+00
  2.316632E+00
  2.333542E+00
  2.350452E+00
  2.367361E+00
  2.384271E+00
  2.401181E+00
  2.418091E+00
  2.435000E+00
  2.451910E+00
  2.468820E+00
  2.485729E+00
  2.502639E+00
  2.519549E+00
  1.103945E+04
  1.103799E+04
  1.103654E+04
  1.103508E+04
  1.103362E+04
  1.103216E+04
  1.103070E+04
  1.102925E+04
  1.102779E+04
  1.102292E+04
  1.101790E+04
  1.101288E+04
  1.100786E+04
  1.100284E+04
  1.099783E+04
  1.099281E+04
  1.098669E+04
  1.097818E+04
  1.096968E+04
  1.096117E+04
  1.095267E+04
  1.094416E+04
  1.093566E+04
  1.092700E+04
  1.091570E+04
  1.090440E+04
  1.089310E+04
  1.088180E+04
  1.087050E+04
  1.085920E+04
  1.084744E+04
  1.083321E+04
  1.081898E+04
  1.080474E+04
  1.079051E+04
  1.077628E+04
  1.076206E+04
  1.074591E+04
  1.072851E+04
  1.071112E+04
  1.069373E+04
  1.067634E+04
  1.065895E+04
  1.064035E+04
  1.061979E+04
  1.059923E+04
  1.057868E+04
  1.055812E+04
  1.053757E+04
  1.051551E+04
  1.049176E+04
  1.046801E+04
  1.044426E+04
  1.042052E+04
  1.039677E+04
  1.037021E+04
  1.034318E+04
  1.031614E+04
  1.028910E+04
  1.026207E+04
  1.023330E+04
  1.020292E+04
  1.017253E+04
  1.014215E+04
  1.011177E+04
  1.007981E+04
  1.004588E+04
  1.001196E+04
  9.978036E+03
  9.944115E+03
  9.907742E+03
  9.869937E+03
  9.832134E+03
  9.794331E+03
  9.756301E+03
  9.714426E+03
  9.672552E+03
  9.630679E+03
  9.588807E+03
  9.543996E+03
  9.497983E+03
  9.451972E+03
  9.405963E+03
  9.357523E+03
  9.307328E+03
  9.257134E+03
  9.206944E+03
  9.154202E+03
  9.100135E+03
  9.046073E+03
  8.992015E+03
  8.934856E+03
  8.877475E+03
  8.820104E+03
  8.761506E+03
  8.701000E+03
  8.640513E+03
  8.579958E+03
  8.516423E+03
  8.452925E+03
  8.389463E+03
  8.323909E+03
  8.257982E+03
  8.192110E+03
  8.124219E+03
  8.055865E+03
  7.987577E+03
  7.916162E+03
  7.844512E+03
  7.772177E+03
  7.696352E+03
  7.620585E+03
  7.542175E+03
  7.461793E+03
  7.380971E+03
  7.295782E+03
  7.210629E+03
  7.121873E+03
  7.031938E+03
  6.939635E+03
  6.845141E+03
  6.748917E+03
  6.650087E+03
  6.549702E+03
  6.446838E+03
  6.342277E+03
  6.235826E+03
  6.127284E+03
  6.017650E+03
  5.905360E+03
  5.792137E+03
  5.677107E+03
  5.560406E+03
  5.442548E+03
  5.323067E+03
  5.201717E+03
  5.078828E+03
  4.954230E+03
  4.827831E+03
  4.700280E+03
  4.575841E+03
  4.463627E+03
  4.378781E+03
  4.347869E+03
  4.429548E+03
  4.589486E+03
  4.379740E+03
  4.558358E+03
  1.342333E+03
  2.289834E-03
  6.028596E+02
  6.029491E+02
  6.030386E+02
  6.031282E+02
  6.032179E+02
  6.033076E+02
  6.033973E+02
  6.034871E+02
  6.035770E+02
  6.036876E+02
  6.037993E+02
  6.039111E+02
  6.040230E+02
  6.041349E+02
  6.042470E+02
  6.043591E+02
  6.044506E+02
  6.044971E+02
  6.045437E+02
  6.045904E+02
  6.046371E+02
  6.046840E+02
  6.047310E+02
  6.047792E+02
  6.048470E+02
  6.049149E+02
  6.049829E+02
  6.050511E+02
  6.051194E+02
  6.051878E+02
  6.052529E+02
  6.053001E+02
  6.053474E+02
  6.053949E+02
  6.054425E+02
  6.054904E+02
  6.055384E+02
  6.055598E+02
  6.055643E+02
  6.055690E+02
  6.055738E+02
  6.055790E+02
  6.055843E+02
  6.055735E+02
  6.055367E+02
  6.055002E+02
  6.054639E+02
  6.054279E+02
  6.053921E+02
  6.053137E+02
  6.051870E+02
  6.050607E+02
  6.049346E+02
  6.048087E+02
  6.046831E+02
  6.044082E+02
  6.041079E+02
  6.038077E+02
  6.035077E+02
  6.032080E+02
  6.028014E+02
  6.022949E+02
  6.017885E+02
  6.012824E+02
  6.007764E+02
  6.001729E+02
  5.994488E+02
  5.987248E+02
  5.980010E+02
  5.972773E+02
  5.964086E+02
  5.954552E+02
  5.945018E+02
  5.935484E+02
  5.925844E+02
  5.914418E+02
  5.902991E+02
  5.891563E+02
  5.880135E+02
  5.866958E+02
  5.853065E+02
  5.839171E+02
  5.825276E+02
  5.808450E+02
  5.789504E+02
  5.770555E+02
  5.751604E+02
  5.727850E+02
  5.701595E+02
  5.675339E+02
  5.649084E+02
  5.614982E+02
  5.580313E+02
  5.545659E+02
  5.506812E+02
  5.461446E+02
  5.416133E+02
  5.370550E+02
  5.313680E+02
  5.256927E+02
  5.200288E+02
  5.137973E+02
  5.074658E+02
  5.011508E+02
  4.948197E+02
  4.884979E+02
  4.821930E+02
  4.762485E+02
  4.703508E+02
  4.645766E+02
  4.593349E+02
  4.541024E+02
  4.493327E+02
  4.449086E+02
  4.405743E+02
  4.370138E+02
  4.334548E+02
  4.305223E+02
  4.277974E+02
  4.254561E+02
  4.234694E+02
  4.216955E+02
  4.202417E+02
  4.188990E+02
  4.177338E+02
  4.166367E+02
  4.156167E+02
  4.146591E+02
  4.137386E+02
  4.129217E+02
  4.121731E+02
  4.115620E+02
  4.111833E+02
  4.110162E+02
  4.112116E+02
  4.119750E+02
  4.133080E+02
  4.153856E+02
  4.184682E+02
  4.233254E+02
  4.309848E+02
  4.435624E+02
  4.645646E+02
  4.999498E+02
  5.613701E+02
  6.480708E+02
  6.949846E+02
  8.053209E+02
  3.483168E+02
  4.978636E-04
  2.011425E+03
  2.010822E+03
  2.010220E+03
  2.009618E+03
  2.009016E+03
  2.008414E+03
  2.007812E+03
  2.007210E+03
  2.006608E+03
  2.004801E+03
  2.002939E+03
  2.001077E+03
  1.999216E+03
  1.997354E+03
  1.995551E+03
  1.993689E+03
  1.991537E+03
  1.988752E+03
  1.985966E+03
  1.983181E+03
  1.980396E+03
  1.977610E+03
  1.974825E+03
  1.972006E+03
  1.968609E+03
  1.965212E+03
  1.961814E+03
  1.958417E+03
  1.955020E+03
  1.951623E+03
  1.948117E+03
  1.944034E+03
  1.939951E+03
  1.935868E+03
  1.931784E+03
  1.927702E+03
  1.923619E+03
  1.919075E+03
  1.914233E+03
  1.909392E+03
  1.904550E+03
  1.899709E+03
  1.894867E+03
  1.889766E+03
  1.884246E+03
  1.878726E+03
  1.873207E+03
  1.867687E+03
  1.862168E+03
  1.856392E+03
  1.850327E+03
  1.844262E+03
  1.838197E+03
  1.832133E+03
  1.826068E+03
  1.819636E+03
  1.813140E+03
  1.806644E+03
  1.800148E+03
  1.793653E+03
  1.786970E+03
  1.780111E+03
  1.773253E+03
  1.766394E+03
  1.759536E+03
  1.752476E+03
  1.745166E+03
  1.737857E+03
  1.730548E+03
  1.723238E+03
  1.715554E+03
  1.707650E+03
  1.699746E+03
  1.691842E+03
  1.683909E+03
  1.675489E+03
  1.667069E+03
  1.658649E+03
  1.650229E+03
  1.641535E+03
  1.632729E+03
  1.623922E+03
  1.615116E+03
  1.606075E+03
  1.596865E+03
  1.587655E+03
  1.578445E+03
  1.569121E+03
  1.559737E+03
  1.550356E+03
  1.540975E+03
  1.531854E+03
  1.522755E+03
  1.513659E+03
  1.504652E+03
  1.495786E+03
  1.486927E+03
  1.478066E+03
  1.468920E+03
  1.459790E+03
  1.450674E+03
  1.441149E+03
  1.431562E+03
  1.421999E+03
  1.411857E+03
  1.401626E+03
  1.391423E+03
  1.379981E+03
  1.368449E+03
  1.356594E+03
  1.343108E+03
  1.329647E+03
  1.314913E+03
  1.299228E+03
  1.283334E+03
  1.265404E+03
  1.247485E+03
  1.227989E+03
  1.207974E+03
  1.187051E+03
  1.165289E+03
  1.143021E+03
  1.119992E+03
  1.096675E+03
  1.072899E+03
  1.049025E+03
  1.025040E+03
  1.001264E+03
  9.776020E+02
  9.547159E+02
  9.322809E+02
  9.108027E+02
  8.906434E+02
  8.715295E+02
  8.540732E+02
  8.387376E+02
  8.251972E+02
  8.137710E+02
  8.048981E+02
  8.002073E+02
  8.022986E+02
  8.171462E+02
  8.551842E+02
  9.327334E+02
  1.075291E+03
  1.268895E+03
  1.333996E+03
  1.397907E+03
 -7.556558E+01
  2.869584E-09
  1.239108E+00
  1.238944E+00
  1.238780E+00
  1.238617E+00
  1.238453E+00
  1.238289E+00
  1.238126E+00
  1.237962E+00
  1.237799E+00
  1.237253E+00
  1.236689E+00
  1.236126E+00
  1.235562E+00
  1.234999E+00
  1.234435E+00
  1.233872E+00
  1.233186E+00
  1.232231E+00
  1.231276E+00
  1.230321E+00
  1.229367E+00
  1.228412E+00
  1.227457E+00
  1.226486E+00
  1.225217E+00
  1.223949E+00
  1.222681E+00
  1.221412E+00
  1.220144E+00
  1.218876E+00
  1.217555E+00
  1.215958E+00
  1.214361E+00
  1.212763E+00
  1.211166E+00
  1.209569E+00
  1.207972E+00
  1.206159E+00
  1.204207E+00
  1.202255E+00
  1.200303E+00
  1.198351E+00
  1.196399E+00
  1.194311E+00
  1.192004E+00
  1.189696E+00
  1.187389E+00
  1.185081E+00
  1.182774E+00
  1.180298E+00
  1.177633E+00
  1.174967E+00
  1.172301E+00
  1.169636E+00
  1.166971E+00
  1.163990E+00
  1.160955E+00
  1.157920E+00
  1.154886E+00
  1.151851E+00
  1.148623E+00
  1.145212E+00
  1.141802E+00
  1.138392E+00
  1.134981E+00
  1.131393E+00
  1.127586E+00
  1.123778E+00
  1.119971E+00
  1.116163E+00
  1.112081E+00
  1.107837E+00
  1.103594E+00
  1.099351E+00
  1.095082E+00
  1.090382E+00
  1.085682E+00
  1.080982E+00
  1.076282E+00
  1.071252E+00
  1.066088E+00
  1.060923E+00
  1.055759E+00
  1.050322E+00
  1.044688E+00
  1.039054E+00
  1.033420E+00
  1.027501E+00
  1.021432E+00
  1.015364E+00
  1.009296E+00
  1.002880E+00
  9.964396E-01
  9.900001E-01
  9.834229E-01
  9.766315E-01
  9.698421E-01
  9.630453E-01
  9.559138E-01
  9.487866E-01
  9.416635E-01
  9.343054E-01
  9.269055E-01
  9.195118E-01
  9.118915E-01
  9.042192E-01
  8.965543E-01
  8.885384E-01
  8.804962E-01
  8.723771E-01
  8.638661E-01
  8.553618E-01
  8.465608E-01
  8.375385E-01
  8.284667E-01
  8.189047E-01
  8.093469E-01
  7.993846E-01
  7.892900E-01
  7.789296E-01
  7.683232E-01
  7.575227E-01
  7.464296E-01
  7.351621E-01
  7.236162E-01
  7.118800E-01
  6.999315E-01
  6.877484E-01
  6.754426E-01
  6.628388E-01
  6.501303E-01
  6.372189E-01
  6.241199E-01
  6.108911E-01
  5.974801E-01
  5.838594E-01
  5.700659E-01
  5.560806E-01
  5.418930E-01
  5.275763E-01
  5.136088E-01
  5.010135E-01
  4.914901E-01
  4.880204E-01
  4.971884E-01
  5.151403E-01
  4.915977E-01
  5.116465E-01
  1.506682E-01
  2.570191E-07
  1.099782E+00
  1.099946E+00
  1.100109E+00
  1.100272E+00
  1.100436E+00
  1.100600E+00
  1.100763E+00
  1.100927E+00
  1.101091E+00
  1.101293E+00
  1.101497E+00
  1.101701E+00
  1.101905E+00
  1.102109E+00
  1.102313E+00
  1.102518E+00
  1.102685E+00
  1.102770E+00
  1.102855E+00
  1.102940E+00
  1.103025E+00
  1.103111E+00
  1.103196E+00
  1.103284E+00
  1.103408E+00
  1.103532E+00
  1.103656E+00
  1.103780E+00
  1.103905E+00
  1.104030E+00
  1.104149E+00
  1.104235E+00
  1.104321E+00
  1.104407E+00
  1.104494E+00
  1.104582E+00
  1.104669E+00
  1.104708E+00
  1.104717E+00
  1.104725E+00
  1.104734E+00
  1.104743E+00
  1.104753E+00
  1.104733E+00
  1.104666E+00
  1.104600E+00
  1.104533E+00
  1.104468E+00
  1.104402E+00
  1.104259E+00
  1.104028E+00
  1.103798E+00
  1.103568E+00
  1.103338E+00
  1.103109E+00
  1.102608E+00
  1.102060E+00
  1.101512E+00
  1.100965E+00
  1.100418E+00
  1.099676E+00
  1.098752E+00
  1.097829E+00
  1.096905E+00
  1.095982E+00
  1.094881E+00
  1.093560E+00
  1.092240E+00
  1.090919E+00
  1.089599E+00
  1.088014E+00
  1.086275E+00
  1.084535E+00
  1.082796E+00
  1.081038E+00
  1.078953E+00
  1.076869E+00
  1.074784E+00
  1.072699E+00
  1.070295E+00
  1.067761E+00
  1.065226E+00
  1.062691E+00
  1.059622E+00
  1.056165E+00
  1.052709E+00
  1.049252E+00
  1.044918E+00
  1.040128E+00
  1.035339E+00
  1.030549E+00
  1.024328E+00
  1.018003E+00
  1.011681E+00
  1.004595E+00
  9.963187E-01
  9.880523E-01
  9.797367E-01
  9.693620E-01
  9.590087E-01
  9.486761E-01
  9.373082E-01
  9.257578E-01
  9.142374E-01
  9.026879E-01
  8.911552E-01
  8.796533E-01
  8.688088E-01
  8.580497E-01
  8.475161E-01
  8.379537E-01
  8.284083E-01
  8.197070E-01
  8.116361E-01
  8.037292E-01
  7.972339E-01
  7.907413E-01
  7.853917E-01
  7.804206E-01
  7.761494E-01
  7.725252E-01
  7.692891E-01
  7.666369E-01
  7.641876E-01
  7.620618E-01
  7.600604E-01
  7.581997E-01
  7.564527E-01
  7.547735E-01
  7.532832E-01
  7.519177E-01
  7.508027E-01
  7.501119E-01
  7.498071E-01
  7.501636E-01
  7.515562E-01
  7.539879E-01
  7.577781E-01
  7.634016E-01
  7.722625E-01
  7.862353E-01
  8.091803E-01
  8.474941E-01
  9.120465E-01
  1.024094E+00
  1.182260E+00
  1.267844E+00
  1.469128E+00
  6.354260E-01
  9.082408E-07
  1.277493E+00
  1.277111E+00
  1.276728E+00
  1.276346E+00
  1.275963E+00
  1.275581E+00
  1.275199E+00
  1.274816E+00
  1.274434E+00
  1.273287E+00
  1.272104E+00
  1.270922E+00
  1.269739E+00
  1.268557E+00
  1.267412E+00
  1.266229E+00
  1.264862E+00
  1.263093E+00
  1.261324E+00
  1.259555E+00
  1.257786E+00
  1.256017E+00
  1.254249E+00
  1.252458E+00
  1.250300E+00
  1.248143E+00
  1.245985E+00
  1.243827E+00
  1.241670E+00
  1.239512E+00
  1.237286E+00
  1.234692E+00
  1.232099E+00
  1.229506E+00
  1.226912E+00
  1.224319E+00
  1.221726E+00
  1.218840E+00
  1.215765E+00
  1.212690E+00
  1.209615E+00
  1.206541E+00
  1.203466E+00
  1.200226E+00
  1.196720E+00
  1.193214E+00
  1.189709E+00
  1.186203E+00
  1.182698E+00
  1.179029E+00
  1.175177E+00
  1.171325E+00
  1.167474E+00
  1.163622E+00
  1.159770E+00
  1.155685E+00
  1.151559E+00
  1.147433E+00
  1.143308E+00
  1.139183E+00
  1.134938E+00
  1.130582E+00
  1.126226E+00
  1.121870E+00
  1.117514E+00
  1.113030E+00
  1.108388E+00
  1.103745E+00
  1.099103E+00
  1.094461E+00
  1.089580E+00
  1.084560E+00
  1.079540E+00
  1.074521E+00
  1.069482E+00
  1.064135E+00
  1.058787E+00
  1.053439E+00
  1.048092E+00
  1.042570E+00
  1.036977E+00
  1.031383E+00
  1.025790E+00
  1.020048E+00
  1.014199E+00
  1.008349E+00
  1.002500E+00
  9.965778E-01
  9.906185E-01
  9.846598E-01
  9.787019E-01
  9.729089E-01
  9.671299E-01
  9.613529E-01
  9.556325E-01
  9.500015E-01
  9.443749E-01
  9.387475E-01
  9.329388E-01
  9.271397E-01
  9.213500E-01
  9.153008E-01
  9.092120E-01
  9.031382E-01
  8.966967E-01
  8.901987E-01
  8.837185E-01
  8.764518E-01
  8.691273E-01
  8.615984E-01
  8.530331E-01
  8.444835E-01
  8.351257E-01
  8.251640E-01
  8.150697E-01
  8.036817E-01
  7.923013E-01
  7.799190E-01
  7.672066E-01
  7.539184E-01
  7.400969E-01
  7.259541E-01
  7.113277E-01
  6.965186E-01
  6.814185E-01
  6.662552E-01
  6.510222E-01
  6.359218E-01
  6.208933E-01
  6.063579E-01
  5.921090E-01
  5.784678E-01
  5.656643E-01
  5.535247E-01
  5.424378E-01
  5.326980E-01
  5.240982E-01
  5.168412E-01
  5.112058E-01
  5.082266E-01
  5.095549E-01
  5.189849E-01
  5.431435E-01
  5.923964E-01
  6.829377E-01
  8.058990E-01
  8.472457E-01
  8.878369E-01
 -4.799311E-02
  1.822526E-12
  9.774408E-01
  9.773116E-01
  9.771826E-01
  9.770535E-01
  9.769244E-01
  9.767954E-01
  9.766663E-01
  9.765373E-01
  9.764083E-01
  9.759777E-01
  9.755332E-01
  9.750888E-01
  9.746444E-01
  9.742000E-01
  9.737556E-01
  9.733112E-01
  9.727696E-01
  9.720164E-01
  9.712633E-01
  9.705101E-01
  9.697570E-01
  9.690039E-01
  9.682509E-01
  9.674841E-01
  9.664835E-01
  9.654829E-01
  9.644824E-01
  9.634818E-01
  9.624813E-01
  9.614809E-01
  9.604391E-01
  9.591789E-01
  9.579187E-01
  9.566586E-01
  9.553985E-01
  9.541384E-01
  9.528784E-01
  9.514483E-01
  9.499083E-01
  9.483683E-01
  9.468284E-01
  9.452885E-01
  9.437486E-01
  9.421012E-01
  9.402807E-01
  9.384602E-01
  9.366398E-01
  9.348194E-01
  9.329991E-01
  9.310458E-01
  9.289428E-01
  9.268397E-01
  9.247368E-01
  9.226339E-01
  9.205311E-01
  9.181796E-01
  9.157854E-01
  9.133913E-01
  9.109972E-01
  9.086032E-01
  9.060560E-01
  9.033655E-01
  9.006752E-01
  8.979849E-01
  8.952946E-01
  8.924642E-01
  8.894603E-01
  8.864565E-01
  8.834528E-01
  8.804492E-01
  8.772285E-01
  8.738810E-01
  8.705336E-01
  8.671863E-01
  8.638189E-01
  8.601109E-01
  8.564030E-01
  8.526952E-01
  8.489874E-01
  8.450195E-01
  8.409451E-01
  8.368708E-01
  8.327966E-01
  8.285074E-01
  8.240628E-01
  8.196184E-01
  8.151742E-01
  8.105045E-01
  8.057175E-01
  8.009309E-01
  7.961448E-01
  7.910846E-01
  7.860049E-01
  7.809260E-01
  7.757388E-01
  7.703830E-01
  7.650287E-01
  7.596684E-01
  7.540447E-01
  7.484240E-01
  7.428064E-01
  7.370034E-01
  7.311671E-01
  7.253353E-01
  7.193241E-01
  7.132714E-01
  7.072241E-01
  7.008996E-01
  6.945541E-01
  6.881479E-01
  6.814326E-01
  6.747224E-01
  6.677783E-01
  6.606599E-01
  6.535025E-01
  6.459592E-01
  6.384191E-01
  6.305607E-01
  6.225981E-01
  6.144263E-01
  6.060608E-01
  5.975424E-01
  5.887935E-01
  5.799070E-01
  5.708011E-01
  5.615448E-01
  5.521210E-01
  5.425119E-01
  5.328059E-01
  5.228644E-01
  5.128400E-01
  5.026550E-01
  4.923216E-01
  4.818855E-01
  4.713052E-01
  4.605593E-01
  4.496768E-01
  4.386427E-01
  4.274489E-01
  4.161530E-01
  4.051324E-01
  3.951940E-01
  3.876785E-01
  3.849379E-01
  3.921652E-01
  4.063205E-01
  3.877464E-01
  4.035546E-01
  1.384420E-01
  4.062398E-02
  5.337760E-02
  5.338553E-02
  5.339346E-02
  5.340139E-02
  5.340933E-02
  5.341728E-02
  5.342523E-02
  5.343318E-02
  5.344114E-02
  5.345094E-02
  5.346083E-02
  5.347073E-02
  5.348064E-02
  5.349055E-02
  5.350047E-02
  5.351040E-02
  5.351850E-02
  5.352261E-02
  5.352673E-02
  5.353086E-02
  5.353500E-02
  5.353915E-02
  5.354331E-02
  5.354757E-02
  5.355357E-02
  5.355958E-02
  5.356560E-02
  5.357163E-02
  5.357767E-02
  5.358372E-02
  5.358948E-02
  5.359365E-02
  5.359783E-02
  5.360203E-02
  5.360624E-02
  5.361046E-02
  5.361471E-02
  5.361660E-02
  5.361698E-02
  5.361738E-02
  5.361780E-02
  5.361824E-02
  5.361870E-02
  5.361774E-02
  5.361446E-02
  5.361121E-02
  5.360799E-02
  5.360478E-02
  5.360160E-02
  5.359463E-02
  5.358340E-02
  5.357220E-02
  5.356101E-02
  5.354985E-02
  5.353871E-02
  5.351436E-02
  5.348775E-02
  5.346115E-02
  5.343458E-02
  5.340802E-02
  5.337200E-02
  5.332714E-02
  5.328229E-02
  5.323746E-02
  5.319265E-02
  5.313920E-02
  5.307507E-02
  5.301096E-02
  5.294686E-02
  5.288277E-02
  5.280584E-02
  5.272141E-02
  5.263697E-02
  5.255254E-02
  5.246718E-02
  5.236599E-02
  5.226479E-02
  5.216359E-02
  5.206238E-02
  5.194568E-02
  5.182265E-02
  5.169960E-02
  5.157654E-02
  5.142754E-02
  5.125977E-02
  5.109198E-02
  5.092417E-02
  5.071384E-02
  5.048139E-02
  5.024893E-02
  5.001648E-02
  4.971459E-02
  4.940767E-02
  4.910089E-02
  4.875700E-02
  4.835542E-02
  4.795430E-02
  4.755078E-02
  4.704736E-02
  4.654496E-02
  4.604355E-02
  4.549189E-02
  4.493135E-02
  4.437225E-02
  4.381169E-02
  4.325191E-02
  4.269361E-02
  4.216720E-02
  4.164492E-02
  4.113357E-02
  4.066937E-02
  4.020598E-02
  3.978357E-02
  3.939177E-02
  3.900793E-02
  3.869264E-02
  3.837749E-02
  3.811785E-02
  3.787659E-02
  3.766933E-02
  3.749349E-02
  3.733650E-02
  3.720787E-02
  3.708909E-02
  3.698602E-02
  3.688898E-02
  3.679877E-02
  3.671406E-02
  3.663263E-02
  3.656035E-02
  3.649411E-02
  3.643998E-02
  3.640641E-02
  3.639154E-02
  3.640875E-02
  3.647621E-02
  3.659407E-02
  3.677784E-02
  3.705055E-02
  3.748035E-02
  3.815821E-02
  3.927147E-02
  4.113056E-02
  4.426298E-02
  4.970030E-02
  5.737559E-02
  6.152826E-02
  7.129562E-02
  3.592378E-02
  8.832607E-03
  1.780929E-01
  1.780396E-01
  1.779863E-01
  1.779330E-01
  1.778797E-01
  1.778264E-01
  1.777731E-01
  1.777198E-01
  1.776665E-01
  1.775065E-01
  1.773417E-01
  1.771768E-01
  1.770120E-01
  1.768472E-01
  1.766876E-01
  1.765227E-01
  1.763321E-01
  1.760855E-01
  1.758389E-01
  1.755923E-01
  1.753456E-01
  1.750990E-01
  1.748524E-01
  1.746028E-01
  1.743020E-01
  1.740012E-01
  1.737004E-01
  1.733996E-01
  1.730988E-01
  1.727980E-01
  1.724875E-01
  1.721260E-01
  1.717644E-01
  1.714029E-01
  1.710413E-01
  1.706798E-01
  1.703183E-01
  1.699159E-01
  1.694872E-01
  1.690585E-01
  1.686298E-01
  1.682011E-01
  1.677724E-01
  1.673207E-01
  1.668319E-01
  1.663431E-01
  1.658544E-01
  1.653656E-01
  1.648769E-01
  1.643654E-01
  1.638284E-01
  1.632913E-01
  1.627543E-01
  1.622173E-01
  1.616803E-01
  1.611107E-01
  1.605355E-01
  1.599603E-01
  1.593851E-01
  1.588100E-01
  1.582182E-01
  1.576109E-01
  1.570036E-01
  1.563963E-01
  1.557890E-01
  1.551639E-01
  1.545167E-01
  1.538695E-01
  1.532222E-01
  1.525751E-01
  1.518946E-01
  1.511948E-01
  1.504949E-01
  1.497950E-01
  1.490926E-01
  1.483471E-01
  1.476015E-01
  1.468559E-01
  1.461104E-01
  1.453405E-01
  1.445607E-01
  1.437809E-01
  1.430011E-01
  1.422006E-01
  1.413850E-01
  1.405695E-01
  1.397540E-01
  1.389285E-01
  1.380977E-01
  1.372670E-01
  1.364365E-01
  1.356290E-01
  1.348235E-01
  1.340183E-01
  1.332210E-01
  1.324362E-01
  1.316521E-01
  1.308678E-01
  1.300583E-01
  1.292501E-01
  1.284432E-01
  1.276001E-01
  1.267515E-01
  1.259048E-01
  1.250068E-01
  1.241008E-01
  1.231972E-01
  1.221840E-01
  1.211626E-01
  1.201127E-01
  1.189184E-01
  1.177262E-01
  1.164214E-01
  1.150324E-01
  1.136249E-01
  1.120372E-01
  1.104506E-01
  1.087245E-01
  1.069523E-01
  1.051000E-01
  1.031733E-01
  1.012020E-01
  9.916320E-02
  9.709897E-02
  9.499418E-02
  9.288057E-02
  9.075721E-02
  8.865231E-02
  8.655738E-02
  8.453116E-02
  8.254483E-02
  8.064310E-02
  7.885809E-02
  7.716558E-02
  7.561978E-02
  7.426171E-02
  7.306254E-02
  7.205050E-02
  7.126448E-02
  7.084869E-02
  7.103332E-02
  7.234729E-02
  7.571436E-02
  8.257941E-02
  9.519975E-02
  1.123390E-01
  1.181011E-01
  1.237577E-01
 -7.793483E-03
  5.090934E-08
  9.776254E-01
  9.774964E-01
  9.773674E-01
  9.772384E-01
  9.771094E-01
  9.769805E-01
  9.768515E-01
  9.767226E-01
  9.765937E-01
  9.761632E-01
  9.757190E-01
  9.752748E-01
  9.748306E-01
  9.743864E-01
  9.739423E-01
  9.734981E-01
  9.729567E-01
  9.722039E-01
  9.714511E-01
  9.706982E-01
  9.699455E-01
  9.691927E-01
  9.684399E-01
  9.676735E-01
  9.666733E-01