 Title= "ADflow Lift Distribution Data"
Variables = "eta" "CoordinateX" "CoordinateY" "CoordinateZ" "Lift" "Drag" "Moment" "Normalized Lift" "Normalized Drag" "Normalized Moment" "CL" "CD" "CM" "CLp" "CDp" "CMp" "CLv" "CDv" "CMv" "Elliptical" "thickness" "twist" "chord" "fx" "fy" "fz" 
Zone T= "LiftDist_01 allWalls: : z normal"
 I=          150
 DATAPACKING=BLOCK
  0.000000E+00
  6.711405E-03
  1.342281E-02
  2.013422E-02
  2.684563E-02
  3.355704E-02
  4.026845E-02
  4.697986E-02
  5.369127E-02
  6.040268E-02
  6.711409E-02
  7.382550E-02
  8.053691E-02
  8.724832E-02
  9.395973E-02
  1.006711E-01
  1.073825E-01
  1.140940E-01
  1.208054E-01
  1.275168E-01
  1.342282E-01
  1.409396E-01
  1.476510E-01
  1.543624E-01
  1.610738E-01
  1.677852E-01
  1.744966E-01
  1.812081E-01
  1.879195E-01
  1.946309E-01
  2.013423E-01
  2.080537E-01
  2.147651E-01
  2.214765E-01
  2.281879E-01
  2.348993E-01
  2.416107E-01
  2.483221E-01
  2.550336E-01
  2.617450E-01
  2.684564E-01
  2.751678E-01
  2.818792E-01
  2.885906E-01
  2.953020E-01
  3.020134E-01
  3.087248E-01
  3.154362E-01
  3.221476E-01
  3.288591E-01
  3.355705E-01
  3.422819E-01
  3.489933E-01
  3.557047E-01
  3.624161E-01
  3.691275E-01
  3.758389E-01
  3.825503E-01
  3.892617E-01
  3.959732E-01
  4.026846E-01
  4.093960E-01
  4.161074E-01
  4.228188E-01
  4.295302E-01
  4.362416E-01
  4.429530E-01
  4.496644E-01
  4.563758E-01
  4.630872E-01
  4.697987E-01
  4.765101E-01
  4.832215E-01
  4.899329E-01
  4.966443E-01
  5.033557E-01
  5.100671E-01
  5.167785E-01
  5.234899E-01
  5.302013E-01
  5.369128E-01
  5.436242E-01
  5.503356E-01
  5.570470E-01
  5.637584E-01
  5.704698E-01
  5.771812E-01
  5.838926E-01
  5.906040E-01
  5.973154E-01
  6.040268E-01
  6.107383E-01
  6.174497E-01
  6.241611E-01
  6.308725E-01
  6.375839E-01
  6.442953E-01
  6.510067E-01
  6.577181E-01
  6.644295E-01
  6.711409E-01
  6.778524E-01
  6.845638E-01
  6.912752E-01
  6.979866E-01
  7.046980E-01
  7.114094E-01
  7.181208E-01
  7.248322E-01
  7.315436E-01
  7.382550E-01
  7.449664E-01
  7.516779E-01
  7.583893E-01
  7.651007E-01
  7.718121E-01
  7.785235E-01
  7.852349E-01
  7.919463E-01
  7.986577E-01
  8.053691E-01
  8.120805E-01
  8.187919E-01
  8.255034E-01
  8.322148E-01
  8.389262E-01
  8.456376E-01
  8.523490E-01
  8.590604E-01
  8.657718E-01
  8.724832E-01
  8.791946E-01
  8.859060E-01
  8.926175E-01
  8.993289E-01
  9.060403E-01
  9.127517E-01
  9.194631E-01
  9.261745E-01
  9.328859E-01
  9.395973E-01
  9.463087E-01
  9.530201E-01
  9.597315E-01
  9.664430E-01
  9.731544E-01
  9.798658E-01
  9.865772E-01
  9.932886E-01
  1.000000E+00
  0.000000E+00
  0.000000E+00
  0.000000E+00
  0.000000E+00
  0.000000E+00
  0.000000E+00
  0.000000E+00
  0.000000E+00
  0.000000E+00
  0.000000E+00
  0.000000E+00
  0.000000E+00
  0.000000E+00
  0.000000E+00
  0.000000E+00
  0.000000E+00
  0.000000E+00
  0.000000E+00
  0.000000E+00
  0.000000E+00
  0.000000E+00
  0.000000E+00
  0.000000E+00
  0.000000E+00
  0.000000E+00
  0.000000E+00
  0.000000E+00
  0.000000E+00
  0.000000E+00
  0.000000E+00
  0.000000E+00
  0.000000E+00
  0.000000E+00
  0.000000E+00
  0.000000E+00
  0.000000E+00
  0.000000E+00
  0.000000E+00
  0.000000E+00
  0.000000E+00
  0.000000E+00
  0.000000E+00
  0.000000E+00
  0.000000E+00
  0.000000E+00
  0.000000E+00
  0.000000E+00
  0.000000E+00
  0.000000E+00
  0.000000E+00
  0.000000E+00
  0.000000E+00
  0.000000E+00
  0.000000E+00
  0.000000E+00
  0.000000E+00
  0.000000E+00
  0.000000E+00
  0.000000E+00
  0.000000E+00
  0.000000E+00
  0.000000E+00
  0.000000E+00
  0.000000E+00
  0.000000E+00
  0.000000E+00
  0.000000E+00
  0.000000E+00
  0.000000E+00
  0.000000E+00
  0.000000E+00
  0.000000E+00
  0.000000E+00
  0.000000E+00
  0.000000E+00
  0.000000E+00
  0.000000E+00
  0.000000E+00
  0.000000E+00
  0.000000E+00
  0.000000E+00
  0.000000E+00
  0.000000E+00
  0.000000E+00
  0.000000E+00
  0.000000E+00
  0.000000E+00
  0.000000E+00
  0.000000E+00
  0.000000E+00
  0.000000E+00
  0.000000E+00
  0.000000E+00
  0.000000E+00
  0.000000E+00
  0.000000E+00
  0.000000E+00
  0.000000E+00
  0.000000E+00
  0.000000E+00
  0.000000E+00
  0.000000E+00
  0.000000E+00
  0.000000E+00
  0.000000E+00
  0.000000E+00
  0.000000E+00
  0.000000E+00
  0.000000E+00
  0.000000E+00
  0.000000E+00
  0.000000E+00
  0.000000E+00
  0.000000E+00
  0.000000E+00
  0.000000E+00
  0.000000E+00
  0.000000E+00
  0.000000E+00
  0.000000E+00
  0.000000E+00
  0.000000E+00
  0.000000E+00
  0.000000E+00
  0.000000E+00
  0.000000E+00
  0.000000E+00
  0.000000E+00
  0.000000E+00
  0.000000E+00
  0.000000E+00
  0.000000E+00
  0.000000E+00
  0.000000E+00
  0.000000E+00
  0.000000E+00
  0.000000E+00
  0.000000E+00
  0.000000E+00
  0.000000E+00
  0.000000E+00
  0.000000E+00
  0.000000E+00
  0.000000E+00
  0.000000E+00
  0.000000E+00
  0.000000E+00
  0.000000E+00
  0.000000E+00
  0.000000E+00
  0.000000E+00
  0.000000E+00
  0.000000E+00
  0.000000E+00
  0.000000E+00
  0.000000E+00
  0.000000E+00
  0.000000E+00
  0.000000E+00
  0.000000E+00
  0.000000E+00
  0.000000E+00
  0.000000E+00
  0.000000E+00
  0.000000E+00
  0.000000E+00
  0.000000E+00
  0.000000E+00
  0.000000E+00
  0.000000E+00
  0.000000E+00
  0.000000E+00
  0.000000E+00
  0.000000E+00
  0.000000E+00
  0.000000E+00
  0.000000E+00
  0.000000E+00
  0.000000E+00
  0.000000E+00
  0.000000E+00
  0.000000E+00
  0.000000E+00
  0.000000E+00
  0.000000E+00
  0.000000E+00
  0.000000E+00
  0.000000E+00
  0.000000E+00
  0.000000E+00
  0.000000E+00
  0.000000E+00
  0.000000E+00
  0.000000E+00
  0.000000E+00
  0.000000E+00
  0.000000E+00
  0.000000E+00
  0.000000E+00
  0.000000E+00
  0.000000E+00
  0.000000E+00
  0.000000E+00
  0.000000E+00
  0.000000E+00
  0.000000E+00
  0.000000E+00
  0.000000E+00
  0.000000E+00
  0.000000E+00
  0.000000E+00
  0.000000E+00
  0.000000E+00
  0.000000E+00
  0.000000E+00
  0.000000E+00
  0.000000E+00
  0.000000E+00
  0.000000E+00
  0.000000E+00
  0.000000E+00
  0.000000E+00
  0.000000E+00
  0.000000E+00
  0.000000E+00
  0.000000E+00
  0.000000E+00
  0.000000E+00
  0.000000E+00
  0.000000E+00
  0.000000E+00
  0.000000E+00
  0.000000E+00
  0.000000E+00
  0.000000E+00
  0.000000E+00
  0.000000E+00
  0.000000E+00
  0.000000E+00
  0.000000E+00
  0.000000E+00
  0.000000E+00
  0.000000E+00
  0.000000E+00
  0.000000E+00
  0.000000E+00
  0.000000E+00
  0.000000E+00
  0.000000E+00
  0.000000E+00
  0.000000E+00
  0.000000E+00
  0.000000E+00
  0.000000E+00
  0.000000E+00
  0.000000E+00
  0.000000E+00
  0.000000E+00
  0.000000E+00
  0.000000E+00
  0.000000E+00
  0.000000E+00
  0.000000E+00
  0.000000E+00
  0.000000E+00
  0.000000E+00
  0.000000E+00
  0.000000E+00
  0.000000E+00
  0.000000E+00
  0.000000E+00
  0.000000E+00
  0.000000E+00
  0.000000E+00
  0.000000E+00
  0.000000E+00
  0.000000E+00
  0.000000E+00
  0.000000E+00
  0.000000E+00
  0.000000E+00
  0.000000E+00
  0.000000E+00
  0.000000E+00
  0.000000E+00
  0.000000E+00
  0.000000E+00
  0.000000E+00
  0.000000E+00
  0.000000E+00
  0.000000E+00
  0.000000E+00
  0.000000E+00
  0.000000E+00
  0.000000E+00
  0.000000E+00
  0.000000E+00
  0.000000E+00
  0.000000E+00
  0.000000E+00
  1.000000E-08
  1.690972E-02
  3.381945E-02
  5.072917E-02
  6.763890E-02
  8.454862E-02
  1.014583E-01
  1.183681E-01
  1.352778E-01
  1.521875E-01
  1.690972E-01
  1.860070E-01
  2.029167E-01
  2.198264E-01
  2.367361E-01
  2.536459E-01
  2.705556E-01
  2.874653E-01
  3.043750E-01
  3.212848E-01
  3.381945E-01
  3.551042E-01
  3.720139E-01
  3.889237E-01
  4.058334E-01
  4.227431E-01
  4.396528E-01
  4.565626E-01
  4.734723E-01
  4.903820E-01
  5.072917E-01
  5.242015E-01
  5.411112E-01
  5.580209E-01
  5.749306E-01
  5.918404E-01
  6.087501E-01
  6.256598E-01
  6.425695E-01
  6.594792E-01
  6.763890E-01
  6.932987E-01
  7.102084E-01
  7.271181E-01
  7.440279E-01
  7.609376E-01
  7.778473E-01
  7.947570E-01
  8.116668E-01
  8.285765E-01
  8.454862E-01
  8.623959E-01
  8.793057E-01
  8.962154E-01
  9.131251E-01
  9.300348E-01
  9.469446E-01
  9.638543E-01
  9.807640E-01
  9.976737E-01
  1.014583E+00
  1.031493E+00
  1.048403E+00
  1.065313E+00
  1.082222E+00
  1.099132E+00
  1.116042E+00
  1.132952E+00
  1.149861E+00
  1.166771E+00
  1.183681E+00
  1.200590E+00
  1.217500E+00
  1.234410E+00
  1.251320E+00
  1.268229E+00
  1.285139E+00
  1.302049E+00
  1.318958E+00
  1.335868E+00
  1.352778E+00
  1.369688E+00
  1.386597E+00
  1.403507E+00
  1.420417E+00
  1.437327E+00
  1.454236E+00
  1.471146E+00
  1.488056E+00
  1.504965E+00
  1.521875E+00
  1.538785E+00
  1.555695E+00
  1.572604E+00
  1.589514E+00
  1.606424E+00
  1.623334E+00
  1.640243E+00
  1.657153E+00
  1.674063E+00
  1.690972E+00
  1.707882E+00
  1.724792E+00
  1.741702E+00
  1.758611E+00
  1.775521E+00
  1.792431E+00
  1.809341E+00
  1.826250E+00
  1.843160E+00
  1.860070E+00
  1.876979E+00
  1.893889E+00
  1.910799E+00
  1.927709E+00
  1.944618E+00
  1.961528E+00
  1.978438E+00
  1.995347E+00
  2.012257E+00
  2.029167E+00
  2.046077E+00
  2.062986E+00
  2.079896E+00
  2.096806E+00
  2.113716E+00
  2.130625E+00
  2.147535E+00
  2.164445E+00
  2.181354E+00
  2.198264E+00
  2.215174E+00
  2.232084E+00
  2.248993E+00
  2.265903E+00
  2.282813E+00
  2.299723E+00
  2.316632E+00
  2.333542E+00
  2.350452E+00
  2.367361E+00
  2.384271E+00
  2.401181E+00
  2.418091E+00
  2.435000E+00
  2.451910E+00
  2.468820E+00
  2.485729E+00
  2.502639E+00
  2.519549E+00
  1.102345E+04
  1.102182E+04
  1.102020E+04
  1.101857E+04
  1.101695E+04
  1.101532E+04
  1.101369E+04
  1.101207E+04
  1.101044E+04
  1.100574E+04
  1.100090E+04
  1.099605E+04
  1.099121E+04
  1.098637E+04
  1.098153E+04
  1.097668E+04
  1.097093E+04
  1.096318E+04
  1.095543E+04
  1.094768E+04
  1.093994E+04
  1.093219E+04
  1.092444E+04
  1.091653E+04
  1.090583E+04
  1.089514E+04
  1.088444E+04
  1.087375E+04
  1.086305E+04
  1.085236E+04
  1.084115E+04
  1.082726E+04
  1.081336E+04
  1.079947E+04
  1.078557E+04
  1.077168E+04
  1.075778E+04
  1.074185E+04
  1.072460E+04
  1.070736E+04
  1.069011E+04
  1.067286E+04
  1.065561E+04
  1.063708E+04
  1.061646E+04
  1.059585E+04
  1.057523E+04
  1.055462E+04
  1.053401E+04
  1.051179E+04
  1.048778E+04
  1.046376E+04
  1.043975E+04
  1.041574E+04
  1.039172E+04
  1.036477E+04
  1.033731E+04
  1.030985E+04
  1.028239E+04
  1.025494E+04
  1.022574E+04
  1.019491E+04
  1.016408E+04
  1.013325E+04
  1.010243E+04
  1.007009E+04
  1.003590E+04
  1.000170E+04
  9.967507E+03
  9.933316E+03
  9.896890E+03
  9.859161E+03
  9.821432E+03
  9.783705E+03
  9.745775E+03
  9.704393E+03
  9.663012E+03
  9.621632E+03
  9.580252E+03
  9.536231E+03
  9.491129E+03
  9.446027E+03
  9.400927E+03
  9.353606E+03
  9.304680E+03
  9.255756E+03
  9.206834E+03
  9.155479E+03
  9.102861E+03
  9.050247E+03
  8.997637E+03
  8.941837E+03
  8.885808E+03
  8.829787E+03
  8.772395E+03
  8.712867E+03
  8.653356E+03
  8.593764E+03
  8.530756E+03
  8.467783E+03
  8.404843E+03
  8.339620E+03
  8.273981E+03
  8.208395E+03
  8.140750E+03
  8.072630E+03
  8.004573E+03
  7.933354E+03
  7.861895E+03
  7.789738E+03
  7.714031E+03
  7.638383E+03
  7.560025E+03
  7.479646E+03
  7.398811E+03
  7.313456E+03
  7.228141E+03
  7.139067E+03
  7.048765E+03
  6.956000E+03
  6.860956E+03
  6.764138E+03
  6.664641E+03
  6.563582E+03
  6.460028E+03
  6.354810E+03
  6.247736E+03
  6.138644E+03
  6.028497E+03
  5.915800E+03
  5.802208E+03
  5.686882E+03
  5.569951E+03
  5.451908E+03
  5.332300E+03
  5.210879E+03
  5.087955E+03
  4.963350E+03
  4.836961E+03
  4.709405E+03
  4.584916E+03
  4.472591E+03
  4.387595E+03
  4.356538E+03
  4.438071E+03
  4.597777E+03
  4.387214E+03
  4.564001E+03
  1.343850E+03
  2.313714E-03
  6.053023E+02
  6.052499E+02
  6.051974E+02
  6.051450E+02
  6.050926E+02
  6.050402E+02
  6.049878E+02
  6.049353E+02
  6.048829E+02
  6.047826E+02
  6.046802E+02
  6.045778E+02
  6.044753E+02
  6.043729E+02
  6.042705E+02
  6.041681E+02
  6.040777E+02
  6.040133E+02
  6.039490E+02
  6.038847E+02
  6.038204E+02
  6.037561E+02
  6.036918E+02
  6.036291E+02
  6.035923E+02
  6.035556E+02
  6.035189E+02
  6.034822E+02
  6.034456E+02
  6.034091E+02
  6.033690E+02
  6.033102E+02
  6.032516E+02
  6.031930E+02
  6.031345E+02
  6.030760E+02
  6.030176E+02
  6.029464E+02
  6.028668E+02
  6.027874E+02
  6.027081E+02
  6.026289E+02
  6.025499E+02
  6.024719E+02
  6.023955E+02
  6.023193E+02
  6.022433E+02
  6.021675E+02
  6.020920E+02
  6.020057E+02
  6.019075E+02
  6.018095E+02
  6.017118E+02
  6.016144E+02
  6.015173E+02
  6.013464E+02
  6.011632E+02
  6.009802E+02
  6.007977E+02
  6.006154E+02
  6.003767E+02
  6.000852E+02
  5.997942E+02
  5.995035E+02
  5.992132E+02
  5.988630E+02
  5.984386E+02
  5.980147E+02
  5.975911E+02
  5.971679E+02
  5.966288E+02
  5.960220E+02
  5.954155E+02
  5.948093E+02
  5.941924E+02
  5.933912E+02
  5.925900E+02
  5.917891E+02
  5.909883E+02
  5.899655E+02
  5.888518E+02
  5.877382E+02
  5.866247E+02
  5.851519E+02
  5.834192E+02
  5.816863E+02
  5.799532E+02
  5.776478E+02
  5.750445E+02
  5.724410E+02
  5.698375E+02
  5.662920E+02
  5.626781E+02
  5.590657E+02
  5.549427E+02
  5.500257E+02
  5.451145E+02
  5.401699E+02
  5.338560E+02
  5.275553E+02
  5.212676E+02
  5.143131E+02
  5.072407E+02
  5.001874E+02
  4.931560E+02
  4.861454E+02
  4.791547E+02
  4.726675E+02
  4.662427E+02
  4.599817E+02
  4.544345E+02
  4.488979E+02
  4.439650E+02
  4.394827E+02
  4.351147E+02
  4.317383E+02
  4.283633E+02
  4.257804E+02
  4.234604E+02
  4.216114E+02
  4.201988E+02
  4.190344E+02
  4.182437E+02
  4.175708E+02
  4.170848E+02
  4.166531E+02
  4.162830E+02
  4.159361E+02
  4.156088E+02
  4.153108E+02
  4.150535E+02
  4.148714E+02
  4.148560E+02
  4.150068E+02
  4.154530E+02
  4.163942E+02
  4.178501E+02
  4.199913E+02
  4.230744E+02
  4.278578E+02
  4.353773E+02
  4.477515E+02
  4.684883E+02
  5.035496E+02
  5.646034E+02
  6.508483E+02
  6.969968E+02
  8.068541E+02
  3.482910E+02
  5.042542E-04
  1.990801E+03
  1.990403E+03
  1.990005E+03
  1.989607E+03
  1.989209E+03
  1.988812E+03
  1.988414E+03
  1.988016E+03
  1.987618E+03
  1.986495E+03
  1.985338E+03
  1.984182E+03
  1.983025E+03
  1.981868E+03
  1.980712E+03
  1.979555E+03
  1.978189E+03
  1.976365E+03
  1.974541E+03
  1.972718E+03
  1.970894E+03
  1.969070E+03
  1.967246E+03
  1.965381E+03
  1.962808E+03
  1.960235E+03
  1.957661E+03
  1.955088E+03
  1.952515E+03
  1.949942E+03
  1.947224E+03
  1.943744E+03
  1.940263E+03
  1.936783E+03
  1.933302E+03
  1.929822E+03
  1.926341E+03
  1.922258E+03
  1.917784E+03
  1.913311E+03
  1.908838E+03
  1.904365E+03
  1.899891E+03
  1.895045E+03
  1.889597E+03
  1.884150E+03
  1.878703E+03
  1.873255E+03
  1.867808E+03
  1.861941E+03
  1.855599E+03
  1.849258E+03
  1.842918E+03
  1.836577E+03
  1.830237E+03
  1.823263E+03
  1.816180E+03
  1.809098E+03
  1.802016E+03
  1.794935E+03
  1.787589E+03
  1.779995E+03
  1.772402E+03
  1.764809E+03
  1.757217E+03
  1.749463E+03
  1.741508E+03
  1.733555E+03
  1.725601E+03
  1.717648E+03
  1.709545E+03
  1.701353E+03
  1.693162E+03
  1.684970E+03
  1.676784E+03
  1.668677E+03
  1.660570E+03
  1.652463E+03
  1.644356E+03
  1.636453E+03
  1.628634E+03
  1.620814E+03
  1.612995E+03
  1.605244E+03
  1.597542E+03
  1.589841E+03
  1.582139E+03
  1.574521E+03
  1.566947E+03
  1.559374E+03
  1.551802E+03
  1.544583E+03
  1.537394E+03
  1.530207E+03
  1.523055E+03
  1.515959E+03
  1.508870E+03
  1.501769E+03
  1.494031E+03
  1.486308E+03
  1.478601E+03
  1.470130E+03
  1.461498E+03
  1.452918E+03
  1.443476E+03
  1.433838E+03
  1.424230E+03
  1.413038E+03
  1.401725E+03
  1.390029E+03
  1.376403E+03
  1.362803E+03
  1.347749E+03
  1.331608E+03
  1.315233E+03
  1.296584E+03
  1.277947E+03
  1.257592E+03
  1.236671E+03
  1.214778E+03
  1.191986E+03
  1.168648E+03
  1.144488E+03
  1.120012E+03
  1.095032E+03
  1.069940E+03
  1.044725E+03
  1.019729E+03
  9.948516E+02
  9.707898E+02
  9.472004E+02
  9.246106E+02
  9.033951E+02
  8.832666E+02
  8.648592E+02
  8.486475E+02
  8.342885E+02
  8.221031E+02
  8.125284E+02
  8.071865E+02
  8.086515E+02
  8.228844E+02
  8.603201E+02
  9.372811E+02
  1.079192E+03
  1.271875E+03
  1.335759E+03
  1.398034E+03
 -7.839368E+01
  2.900356E-09
  1.237331E+00
  1.237148E+00
  1.236966E+00
  1.236783E+00
  1.236601E+00
  1.236418E+00
  1.236236E+00
  1.236053E+00
  1.235871E+00
  1.235343E+00
  1.234799E+00
  1.234256E+00
  1.233712E+00
  1.233169E+00
  1.232625E+00
  1.232082E+00
  1.231436E+00
  1.230566E+00
  1.229696E+00
  1.228826E+00
  1.227957E+00
  1.227087E+00
  1.226218E+00
  1.225330E+00
  1.224129E+00
  1.222929E+00
  1.221728E+00
  1.220528E+00
  1.219327E+00
  1.218127E+00
  1.216869E+00
  1.215309E+00
  1.213750E+00
  1.212190E+00
  1.210630E+00
  1.209071E+00
  1.207511E+00
  1.205723E+00
  1.203787E+00
  1.201851E+00
  1.199915E+00
  1.197979E+00
  1.196043E+00
  1.193962E+00
  1.191648E+00
  1.189334E+00
  1.187020E+00
  1.184707E+00
  1.182393E+00
  1.179900E+00
  1.177204E+00
  1.174508E+00
  1.171813E+00
  1.169118E+00
  1.166423E+00
  1.163397E+00
  1.160315E+00
  1.157233E+00
  1.154151E+00
  1.151069E+00
  1.147791E+00
  1.144331E+00
  1.140870E+00
  1.137410E+00
  1.133950E+00
  1.130321E+00
  1.126483E+00
  1.122644E+00
  1.118806E+00
  1.114968E+00
  1.110880E+00
  1.106645E+00
  1.102410E+00
  1.098175E+00
  1.093918E+00
  1.089273E+00
  1.084628E+00
  1.079983E+00
  1.075339E+00
  1.070397E+00
  1.065335E+00
  1.060273E+00
  1.055210E+00
  1.049899E+00
  1.044407E+00
  1.038915E+00
  1.033424E+00
  1.027660E+00
  1.021754E+00
  1.015848E+00
  1.009943E+00
  1.003680E+00
  9.973905E-01
  9.911025E-01
  9.846605E-01
  9.779787E-01
  9.712989E-01
  9.646100E-01
  9.575376E-01
  9.504691E-01
  9.434045E-01
  9.360835E-01
  9.287159E-01
  9.213541E-01
  9.137613E-01
  9.061151E-01
  8.984760E-01
  8.904820E-01
  8.824611E-01
  8.743618E-01
  8.658640E-01
  8.573729E-01
  8.485775E-01
  8.395554E-01
  8.304821E-01
  8.209014E-01
  8.113252E-01
  8.013270E-01
  7.911910E-01
  7.807786E-01
  7.701104E-01
  7.592430E-01
  7.480749E-01
  7.367315E-01
  7.251080E-01
  7.132978E-01
  7.012793E-01
  6.890342E-01
  6.766707E-01
  6.640210E-01
  6.512708E-01
  6.383260E-01
  6.252011E-01
  6.119512E-01
  5.985258E-01
  5.848969E-01
  5.710992E-01
  5.571130E-01
  5.429263E-01
  5.286087E-01
  5.146354E-01
  5.020275E-01
  4.924871E-01
  4.890011E-01
  4.981528E-01
  5.160791E-01
  4.924443E-01
  5.122879E-01
  1.508409E-01
  2.597036E-07
  1.104248E+00
  1.104152E+00
  1.104057E+00
  1.103961E+00
  1.103866E+00
  1.103770E+00
  1.103674E+00
  1.103579E+00
  1.103483E+00
  1.103300E+00
  1.103113E+00
  1.102926E+00
  1.102740E+00
  1.102553E+00
  1.102366E+00
  1.102179E+00
  1.102014E+00
  1.101897E+00
  1.101779E+00
  1.101662E+00
  1.101545E+00
  1.101427E+00
  1.101310E+00
  1.101196E+00
  1.101129E+00
  1.101062E+00
  1.100995E+00
  1.100928E+00
  1.100861E+00
  1.100794E+00
  1.100721E+00
  1.100614E+00
  1.100507E+00
  1.100400E+00
  1.100293E+00
  1.100187E+00
  1.100080E+00
  1.099950E+00
  1.099805E+00
  1.099660E+00
  1.099516E+00
  1.099371E+00
  1.099227E+00
  1.099085E+00
  1.098945E+00
  1.098806E+00
  1.098668E+00
  1.098529E+00
  1.098392E+00
  1.098234E+00
  1.098055E+00
  1.097876E+00
  1.097698E+00
  1.097520E+00
  1.097343E+00
  1.097031E+00
  1.096697E+00
  1.096363E+00
  1.096030E+00
  1.095698E+00
  1.095262E+00
  1.094731E+00
  1.094200E+00
  1.093669E+00
  1.093140E+00
  1.092501E+00
  1.091727E+00
  1.090953E+00
  1.090181E+00
  1.089409E+00
  1.088425E+00
  1.087318E+00
  1.086212E+00
  1.085106E+00
  1.083981E+00
  1.082519E+00
  1.081057E+00
  1.079596E+00
  1.078135E+00
  1.076269E+00
  1.074238E+00
  1.072206E+00
  1.070175E+00
  1.067488E+00
  1.064327E+00
  1.061166E+00
  1.058004E+00
  1.053798E+00
  1.049049E+00
  1.044300E+00
  1.039550E+00
  1.033082E+00
  1.026489E+00
  1.019899E+00
  1.012377E+00
  1.003408E+00
  9.944480E-01
  9.854277E-01
  9.739093E-01
  9.624149E-01
  9.509443E-01
  9.382573E-01
  9.253552E-01
  9.124878E-01
  8.996605E-01
  8.868713E-01
  8.741180E-01
  8.622835E-01
  8.505628E-01
  8.391409E-01
  8.290213E-01
  8.189208E-01
  8.099218E-01
  8.017449E-01
  7.937763E-01
  7.876167E-01
  7.814597E-01
  7.767479E-01
  7.725154E-01
  7.691423E-01
  7.665653E-01
  7.644412E-01
  7.629986E-01
  7.617711E-01
  7.608845E-01
  7.600969E-01
  7.594218E-01
  7.587890E-01
  7.581919E-01
  7.576483E-01
  7.571788E-01
  7.568466E-01
  7.568185E-01
  7.570937E-01
  7.579077E-01
  7.596246E-01
  7.622806E-01
  7.661867E-01
  7.718113E-01
  7.805375E-01
  7.942554E-01
  8.168295E-01
  8.546594E-01
  9.186215E-01
  1.030002E+00
  1.187337E+00
  1.271526E+00
  1.471938E+00
  6.353844E-01
  9.199068E-07
  1.260019E+00
  1.259767E+00
  1.259515E+00
  1.259263E+00
  1.259012E+00
  1.258760E+00
  1.258508E+00
  1.258256E+00
  1.258004E+00
  1.257293E+00
  1.256561E+00
  1.255829E+00
  1.255097E+00
  1.254365E+00
  1.253633E+00
  1.252901E+00
  1.252036E+00
  1.250882E+00
  1.249728E+00
  1.248574E+00
  1.247419E+00
  1.246265E+00
  1.245111E+00
  1.243930E+00
  1.242301E+00
  1.240673E+00
  1.239044E+00
  1.237416E+00
  1.235787E+00
  1.234158E+00
  1.232438E+00
  1.230235E+00
  1.228032E+00
  1.225830E+00
  1.223627E+00
  1.221424E+00
  1.219221E+00
  1.216636E+00
  1.213805E+00
  1.210974E+00
  1.208143E+00
  1.205312E+00
  1.202480E+00
  1.199413E+00
  1.195965E+00
  1.192517E+00
  1.189070E+00
  1.185622E+00
  1.182174E+00
  1.178461E+00
  1.174447E+00
  1.170434E+00
  1.166421E+00
  1.162407E+00
  1.158394E+00
  1.153981E+00
  1.149498E+00
  1.145016E+00
  1.140533E+00
  1.136051E+00
  1.131402E+00
  1.126596E+00
  1.121790E+00
  1.116984E+00
  1.112179E+00
  1.107271E+00
  1.102237E+00
  1.097203E+00
  1.092169E+00
  1.087135E+00
  1.082006E+00
  1.076821E+00
  1.071637E+00
  1.066452E+00
  1.061271E+00
  1.056140E+00
  1.051009E+00
  1.045878E+00
  1.040747E+00
  1.035745E+00
  1.030796E+00
  1.025847E+00
  1.020898E+00
  1.015992E+00
  1.011117E+00
  1.006243E+00
  1.001369E+00
  9.965470E-01
  9.917533E-01
  9.869601E-01
  9.821676E-01
  9.775987E-01
  9.730482E-01
  9.684993E-01
  9.639727E-01
  9.594814E-01
  9.549947E-01
  9.505007E-01
  9.456030E-01
  9.407151E-01
  9.358369E-01
  9.304755E-01
  9.250121E-01
  9.195819E-01
  9.136059E-01
  9.075057E-01
  9.014243E-01
  8.943412E-01
  8.871807E-01
  8.797777E-01
  8.711539E-01
  8.625464E-01
  8.530184E-01
  8.428022E-01
  8.324381E-01
  8.206345E-01
  8.088391E-01
  7.959559E-01
  7.827143E-01
  7.688580E-01
  7.544324E-01
  7.396613E-01
  7.243699E-01
  7.088785E-01
  6.930682E-01
  6.771873E-01
  6.612281E-01
  6.454074E-01
  6.296621E-01
  6.144329E-01
  5.995026E-01
  5.852051E-01
  5.717774E-01
  5.590377E-01
  5.473872E-01
  5.371265E-01
  5.280384E-01
  5.203260E-01
  5.142660E-01
  5.108850E-01
  5.118122E-01
  5.208205E-01
  5.445143E-01
  5.932245E-01
  6.830429E-01
  8.049960E-01
  8.454296E-01
  8.848444E-01
 -4.961698E-02
  1.835695E-12
  9.760242E-01
  9.758802E-01
  9.757363E-01
  9.755923E-01
  9.754483E-01
  9.753044E-01
  9.751604E-01
  9.750164E-01
  9.748725E-01
  9.744561E-01
  9.740273E-01
  9.735986E-01
  9.731698E-01
  9.727410E-01
  9.723123E-01
  9.718835E-01
  9.713737E-01
  9.706877E-01
  9.700017E-01
  9.693156E-01
  9.686296E-01
  9.679436E-01
  9.672576E-01
  9.665571E-01
  9.656101E-01
  9.646631E-01
  9.637160E-01
  9.627690E-01
  9.618220E-01
  9.608751E-01
  9.598830E-01
  9.586526E-01
  9.574222E-01
  9.561919E-01
  9.549615E-01
  9.537312E-01
  9.525008E-01
  9.510902E-01
  9.495628E-01
  9.480356E-01
  9.465083E-01
  9.449811E-01
  9.434539E-01
  9.418124E-01
  9.399869E-01
  9.381615E-01
  9.363361E-01
  9.345108E-01
  9.326855E-01
  9.307185E-01
  9.285919E-01
  9.264653E-01
  9.243389E-01
  9.222125E-01
  9.200863E-01
  9.176994E-01
  9.152678E-01
  9.128362E-01
  9.104048E-01
  9.079736E-01
  9.053879E-01
  9.026579E-01
  8.999281E-01
  8.971984E-01
  8.944689E-01
  8.916058E-01
  8.885776E-01
  8.855496E-01
  8.825218E-01
  8.794941E-01
  8.762687E-01
  8.729278E-01
  8.695869E-01
  8.662462E-01
  8.628875E-01
  8.592231E-01
  8.555588E-01
  8.518945E-01
  8.482303E-01
  8.443322E-01
  8.403384E-01
  8.363447E-01
  8.323510E-01
  8.281609E-01
  8.238288E-01
  8.194968E-01
  8.151650E-01
  8.106182E-01
  8.059596E-01
  8.013015E-01
  7.966436E-01
  7.917040E-01
  7.867441E-01
  7.817849E-01
  7.767045E-01
  7.714354E-01
  7.661677E-01
  7.608927E-01
  7.553156E-01
  7.497412E-01
  7.441696E-01
  7.383956E-01
  7.325844E-01
  7.267768E-01
  7.207865E-01
  7.147537E-01
  7.087260E-01
  7.024182E-01
  6.960888E-01
  6.896974E-01
  6.829920E-01
  6.762916E-01
  6.693517E-01
  6.622332E-01
  6.550744E-01
  6.475164E-01
  6.399620E-01
  6.320757E-01
  6.240811E-01
  6.158689E-01
  6.074555E-01
  5.988852E-01
  5.900780E-01
  5.811326E-01
  5.719662E-01
  5.626524E-01
  5.531741E-01
  5.435167E-01
  5.337657E-01
  5.237885E-01
  5.137316E-01
  5.035206E-01
  4.931668E-01
  4.827141E-01
  4.721226E-01
  4.613702E-01
  4.504844E-01
  4.394496E-01
  4.282565E-01
  4.169599E-01
  4.059347E-01
  3.959863E-01
  3.884574E-01
  3.857039E-01
  3.929181E-01
  4.070527E-01
  3.884063E-01
  4.040524E-01
  1.385978E-01
  4.104738E-02
  5.359390E-02
  5.358926E-02
  5.358462E-02
  5.357998E-02
  5.357533E-02
  5.357069E-02
  5.356605E-02
  5.356141E-02
  5.355677E-02
  5.354789E-02
  5.353882E-02
  5.352975E-02
  5.352068E-02
  5.351161E-02
  5.350254E-02
  5.349347E-02
  5.348547E-02
  5.347977E-02
  5.347407E-02
  5.346837E-02
  5.346268E-02
  5.345699E-02
  5.345129E-02
  5.344574E-02
  5.344248E-02
  5.343923E-02
  5.343598E-02
  5.343273E-02
  5.342948E-02
  5.342624E-02
  5.342269E-02
  5.341749E-02
  5.341229E-02
  5.340710E-02
  5.340191E-02
  5.339673E-02
  5.339156E-02
  5.338524E-02
  5.337819E-02
  5.337115E-02
  5.336412E-02
  5.335710E-02
  5.335010E-02
  5.334318E-02
  5.333641E-02
  5.332965E-02
  5.332291E-02
  5.331619E-02
  5.330949E-02
  5.330184E-02
  5.329313E-02
  5.328444E-02
  5.327577E-02
  5.326713E-02
  5.325851E-02
  5.324337E-02
  5.322713E-02
  5.321092E-02
  5.319473E-02
  5.317858E-02
  5.315742E-02
  5.313160E-02
  5.310581E-02
  5.308006E-02
  5.305433E-02
  5.302331E-02
  5.298572E-02
  5.294816E-02
  5.291064E-02
  5.287315E-02
  5.282540E-02
  5.277165E-02
  5.271793E-02
  5.266423E-02
  5.260959E-02
  5.253862E-02
  5.246766E-02
  5.239671E-02
  5.232578E-02
  5.223520E-02
  5.213656E-02
  5.203793E-02
  5.193931E-02
  5.180889E-02
  5.165546E-02
  5.150201E-02
  5.134855E-02
  5.114444E-02
  5.091395E-02
  5.068346E-02
  5.045296E-02
  5.013910E-02
  4.981918E-02
  4.949939E-02
  4.913441E-02
  4.869916E-02
  4.826441E-02
  4.782669E-02
  4.726776E-02
  4.670998E-02
  4.615333E-02
  4.553763E-02
  4.491147E-02
  4.428693E-02
  4.366430E-02
  4.304350E-02
  4.242442E-02
  4.184992E-02
  4.128093E-02
  4.072643E-02
  4.023515E-02
  3.974479E-02
  3.930790E-02
  3.891094E-02
  3.852410E-02
  3.822511E-02
  3.792624E-02
  3.769757E-02
  3.749219E-02
  3.732854E-02
  3.720357E-02
  3.710059E-02
  3.703071E-02
  3.697127E-02
  3.692839E-02
  3.689030E-02
  3.685767E-02
  3.682707E-02
  3.679818E-02
  3.677187E-02
  3.674913E-02
  3.673301E-02
  3.673160E-02
  3.674488E-02
  3.678427E-02
  3.686746E-02
  3.699620E-02
  3.718557E-02
  3.745831E-02
  3.788155E-02
  3.854700E-02
  3.964223E-02
  4.147779E-02
  4.458151E-02
  4.998633E-02
  5.762122E-02
  6.170612E-02
  7.143103E-02
  3.592096E-02
  8.945925E-03
  1.762669E-01
  1.762317E-01
  1.761965E-01
  1.761613E-01
  1.761260E-01
  1.760908E-01
  1.760556E-01
  1.760204E-01
  1.759851E-01
  1.758857E-01
  1.757833E-01
  1.756809E-01
  1.755785E-01
  1.754760E-01
  1.753736E-01
  1.752712E-01
  1.751502E-01
  1.749888E-01
  1.748273E-01
  1.746658E-01
  1.745043E-01
  1.743428E-01
  1.741814E-01
  1.740162E-01
  1.737884E-01
  1.735605E-01
  1.733327E-01
  1.731048E-01
  1.728770E-01
  1.726491E-01
  1.724085E-01
  1.721003E-01
  1.717922E-01
  1.714840E-01
  1.711758E-01
  1.708676E-01
  1.705594E-01
  1.701979E-01
  1.698018E-01
  1.694057E-01
  1.690096E-01
  1.686135E-01
  1.682174E-01
  1.677883E-01
  1.673059E-01
  1.668236E-01
  1.663412E-01
  1.658589E-01
  1.653766E-01
  1.648570E-01
  1.642955E-01
  1.637340E-01
  1.631726E-01
  1.626111E-01
  1.620497E-01
  1.614322E-01
  1.608050E-01
  1.601779E-01
  1.595509E-01
  1.589238E-01
  1.582733E-01
  1.576009E-01
  1.569286E-01
  1.562563E-01
  1.555840E-01
  1.548974E-01
  1.541930E-01
  1.534888E-01
  1.527845E-01
  1.520803E-01
  1.513627E-01
  1.506374E-01
  1.499121E-01
  1.491867E-01
  1.484619E-01
  1.477440E-01
  1.470261E-01
  1.463083E-01
  1.455904E-01
  1.448906E-01
  1.441982E-01
  1.435058E-01
  1.428133E-01
  1.421270E-01
  1.414451E-01
  1.407631E-01
  1.400812E-01
  1.394067E-01
  1.387362E-01
  1.380657E-01
  1.373953E-01
  1.367563E-01
  1.361199E-01
  1.354837E-01
  1.348507E-01
  1.342227E-01
  1.335952E-01
  1.329668E-01
  1.322819E-01
  1.315984E-01
  1.309162E-01
  1.301663E-01
  1.294021E-01
  1.286424E-01
  1.278062E-01
  1.269526E-01
  1.261015E-01
  1.251103E-01
  1.241081E-01
  1.230721E-01
  1.218652E-01
  1.206607E-01
  1.193274E-01
  1.178980E-01
  1.164478E-01
  1.147965E-01
  1.131463E-01
  1.113442E-01
  1.094919E-01
  1.075538E-01
  1.055361E-01
  1.034701E-01
  1.013313E-01
  9.916464E-02
  9.695333E-02
  9.473210E-02
  9.249989E-02
  9.028699E-02
  8.808458E-02
  8.595431E-02
  8.386579E-02
  8.186568E-02
  7.998714E-02
  7.820479E-02
  7.657476E-02
  7.513909E-02
  7.386740E-02
  7.278811E-02
  7.193992E-02
  7.146644E-02
  7.159558E-02
  7.285508E-02
  7.616877E-02
  8.298170E-02
  9.554467E-02
  1.126023E-01
  1.182567E-01
  1.237683E-01
 -8.085126E-03
  5.145495E-08
  9.762118E-01
  9.760679E-01
  9.759239E-01
  9.757800E-01
  9.756360E-01
  9.754921E-01
  9.753481E-01
  9.752042E-01
  9.750602E-01
  9.746440E-01
  9.742153E-01
  9.737866E-01
  9.733579E-01
  9.729292E-01
  9.725005E-01
  9.720718E-01
  9.715621E-01
  9.708763E-01
  9.701904E-01
  9.695046E-01
  9.688187E-01
  9.681329E-01
  9.674471E-01
  9.667468E-01
  9.658000E-01