 Title= "ADflow Lift Distribution Data"
Variables = "eta" "CoordinateX" "CoordinateY" "CoordinateZ" "Lift" "Drag" "Moment" "Normalized Lift" "Normalized Drag" "Normalized Moment" "CL" "CD" "CM" "CLp" "CDp" "CMp" "CLv" "CDv" "CMv" "Elliptical" "thickness" "twist" "chord" "fx" "fy" "fz" 
Zone T= "LiftDist_01 allWalls: : z normal"
 I=          150
 DATAPACKING=BLOCK
  0.000000E+00
  6.711405E-03
  1.342281E-02
  2.013422E-02
  2.684563E-02
  3.355704E-02
  4.026845E-02
  4.697986E-02
  5.369127E-02
  6.040268E-02
  6.711409E-02
  7.382550E-02
  8.053691E-02
  8.724832E-02
  9.395973E-02
  1.006711E-01
  1.073825E-01
  1.140940E-01
  1.208054E-01
  1.275168E-01
  1.342282E-01
  1.409396E-01
  1.476510E-01
  1.543624E-01
  1.610738E-01
  1.677852E-01
  1.744966E-01
  1.812081E-01
  1.879195E-01
  1.946309E-01
  2.013423E-01
  2.080537E-01
  2.147651E-01
  2.214765E-01
  2.281879E-01
  2.348993E-01
  2.416107E-01
  2.483221E-01
  2.550336E-01
  2.617450E-01
  2.684564E-01
  2.751678E-01
  2.818792E-01
  2.885906E-01
  2.953020E-01
  3.020134E-01
  3.087248E-01
  3.154362E-01
  3.221476E-01
  3.288591E-01
  3.355705E-01
  3.422819E-01
  3.489933E-01
  3.557047E-01
  3.624161E-01
  3.691275E-01
  3.758389E-01
  3.825503E-01
  3.892617E-01
  3.959732E-01
  4.026846E-01
  4.093960E-01
  4.161074E-01
  4.228188E-01
  4.295302E-01
  4.362416E-01
  4.429530E-01
  4.496644E-01
  4.563758E-01
  4.630872E-01
  4.697987E-01
  4.765101E-01
  4.832215E-01
  4.899329E-01
  4.966443E-01
  5.033557E-01
  5.100671E-01
  5.167785E-01
  5.234899E-01
  5.302013E-01
  5.369128E-01
  5.436242E-01
  5.503356E-01
  5.570470E-01
  5.637584E-01
  5.704698E-01
  5.771812E-01
  5.838926E-01
  5.906040E-01
  5.973154E-01
  6.040268E-01
  6.107383E-01
  6.174497E-01
  6.241611E-01
  6.308725E-01
  6.375839E-01
  6.442953E-01
  6.510067E-01
  6.577181E-01
  6.644295E-01
  6.711409E-01
  6.778524E-01
  6.845638E-01
  6.912752E-01
  6.979866E-01
  7.046980E-01
  7.114094E-01
  7.181208E-01
  7.248322E-01
  7.315436E-01
  7.382550E-01
  7.449664E-01
  7.516779E-01
  7.583893E-01
  7.651007E-01
  7.718121E-01
  7.785235E-01
  7.852349E-01
  7.919463E-01
  7.986577E-01
  8.053691E-01
  8.120805E-01
  8.187919E-01
  8.255034E-01
  8.322148E-01
  8.389262E-01
  8.456376E-01
  8.523490E-01
  8.590604E-01
  8.657718E-01
  8.724832E-01
  8.791946E-01
  8.859060E-01
  8.926175E-01
  8.993289E-01
  9.060403E-01
  9.127517E-01
  9.194631E-01
  9.261745E-01
  9.328859E-01
  9.395973E-01
  9.463087E-01
  9.530201E-01
  9.597315E-01
  9.664430E-01
  9.731544E-01
  9.798658E-01
  9.865772E-01
  9.932886E-01
  1.000000E+00
  0.000000E+00
  0.000000E+00
  0.000000E+00
  0.000000E+00
  0.000000E+00
  0.000000E+00
  0.000000E+00
  0.000000E+00
  0.000000E+00
  0.000000E+00
  0.000000E+00
  0.000000E+00
  0.000000E+00
  0.000000E+00
  0.000000E+00
  0.000000E+00
  0.000000E+00
  0.000000E+00
  0.000000E+00
  0.000000E+00
  0.000000E+00
  0.000000E+00
  0.000000E+00
  0.000000E+00
  0.000000E+00
  0.000000E+00
  0.000000E+00
  0.000000E+00
  0.000000E+00
  0.000000E+00
  0.000000E+00
  0.000000E+00
  0.000000E+00
  0.000000E+00
  0.000000E+00
  0.000000E+00
  0.000000E+00
  0.000000E+00
  0.000000E+00
  0.000000E+00
  0.000000E+00
  0.000000E+00
  0.000000E+00
  0.000000E+00
  0.000000E+00
  0.000000E+00
  0.000000E+00
  0.000000E+00
  0.000000E+00
  0.000000E+00
  0.000000E+00
  0.000000E+00
  0.000000E+00
  0.000000E+00
  0.000000E+00
  0.000000E+00
  0.000000E+00
  0.000000E+00
  0.000000E+00
  0.000000E+00
  0.000000E+00
  0.000000E+00
  0.000000E+00
  0.000000E+00
  0.000000E+00
  0.000000E+00
  0.000000E+00
  0.000000E+00
  0.000000E+00
  0.000000E+00
  0.000000E+00
  0.000000E+00
  0.000000E+00
  0.000000E+00
  0.000000E+00
  0.000000E+00
  0.000000E+00
  0.000000E+00
  0.000000E+00
  0.000000E+00
  0.000000E+00
  0.000000E+00
  0.000000E+00
  0.000000E+00
  0.000000E+00
  0.000000E+00
  0.000000E+00
  0.000000E+00
  0.000000E+00
  0.000000E+00
  0.000000E+00
  0.000000E+00
  0.000000E+00
  0.000000E+00
  0.000000E+00
  0.000000E+00
  0.000000E+00
  0.000000E+00
  0.000000E+00
  0.000000E+00
  0.000000E+00
  0.000000E+00
  0.000000E+00
  0.000000E+00
  0.000000E+00
  0.000000E+00
  0.000000E+00
  0.000000E+00
  0.000000E+00
  0.000000E+00
  0.000000E+00
  0.000000E+00
  0.000000E+00
  0.000000E+00
  0.000000E+00
  0.000000E+00
  0.000000E+00
  0.000000E+00
  0.000000E+00
  0.000000E+00
  0.000000E+00
  0.000000E+00
  0.000000E+00
  0.000000E+00
  0.000000E+00
  0.000000E+00
  0.000000E+00
  0.000000E+00
  0.000000E+00
  0.000000E+00
  0.000000E+00
  0.000000E+00
  0.000000E+00
  0.000000E+00
  0.000000E+00
  0.000000E+00
  0.000000E+00
  0.000000E+00
  0.000000E+00
  0.000000E+00
  0.000000E+00
  0.000000E+00
  0.000000E+00
  0.000000E+00
  0.000000E+00
  0.000000E+00
  0.000000E+00
  0.000000E+00
  0.000000E+00
  0.000000E+00
  0.000000E+00
  0.000000E+00
  0.000000E+00
  0.000000E+00
  0.000000E+00
  0.000000E+00
  0.000000E+00
  0.000000E+00
  0.000000E+00
  0.000000E+00
  0.000000E+00
  0.000000E+00
  0.000000E+00
  0.000000E+00
  0.000000E+00
  0.000000E+00
  0.000000E+00
  0.000000E+00
  0.000000E+00
  0.000000E+00
  0.000000E+00
  0.000000E+00
  0.000000E+00
  0.000000E+00
  0.000000E+00
  0.000000E+00
  0.000000E+00
  0.000000E+00
  0.000000E+00
  0.000000E+00
  0.000000E+00
  0.000000E+00
  0.000000E+00
  0.000000E+00
  0.000000E+00
  0.000000E+00
  0.000000E+00
  0.000000E+00
  0.000000E+00
  0.000000E+00
  0.000000E+00
  0.000000E+00
  0.000000E+00
  0.000000E+00
  0.000000E+00
  0.000000E+00
  0.000000E+00
  0.000000E+00
  0.000000E+00
  0.000000E+00
  0.000000E+00
  0.000000E+00
  0.000000E+00
  0.000000E+00
  0.000000E+00
  0.000000E+00
  0.000000E+00
  0.000000E+00
  0.000000E+00
  0.000000E+00
  0.000000E+00
  0.000000E+00
  0.000000E+00
  0.000000E+00
  0.000000E+00
  0.000000E+00
  0.000000E+00
  0.000000E+00
  0.000000E+00
  0.000000E+00
  0.000000E+00
  0.000000E+00
  0.000000E+00
  0.000000E+00
  0.000000E+00
  0.000000E+00
  0.000000E+00
  0.000000E+00
  0.000000E+00
  0.000000E+00
  0.000000E+00
  0.000000E+00
  0.000000E+00
  0.000000E+00
  0.000000E+00
  0.000000E+00
  0.000000E+00
  0.000000E+00
  0.000000E+00
  0.000000E+00
  0.000000E+00
  0.000000E+00
  0.000000E+00
  0.000000E+00
  0.000000E+00
  0.000000E+00
  0.000000E+00
  0.000000E+00
  0.000000E+00
  0.000000E+00
  0.000000E+00
  0.000000E+00
  0.000000E+00
  0.000000E+00
  0.000000E+00
  0.000000E+00
  0.000000E+00
  0.000000E+00
  0.000000E+00
  0.000000E+00
  0.000000E+00
  0.000000E+00
  0.000000E+00
  0.000000E+00
  0.000000E+00
  0.000000E+00
  0.000000E+00
  0.000000E+00
  0.000000E+00
  0.000000E+00
  0.000000E+00
  0.000000E+00
  0.000000E+00
  0.000000E+00
  0.000000E+00
  0.000000E+00
  0.000000E+00
  0.000000E+00
  0.000000E+00
  0.000000E+00
  0.000000E+00
  0.000000E+00
  0.000000E+00
  0.000000E+00
  0.000000E+00
  0.000000E+00
  0.000000E+00
  0.000000E+00
  0.000000E+00
  0.000000E+00
  0.000000E+00
  0.000000E+00
  0.000000E+00
  0.000000E+00
  0.000000E+00
  0.000000E+00
  0.000000E+00
  0.000000E+00
  0.000000E+00
  0.000000E+00
  1.000000E-08
  1.690972E-02
  3.381945E-02
  5.072917E-02
  6.763890E-02
  8.454862E-02
  1.014583E-01
  1.183681E-01
  1.352778E-01
  1.521875E-01
  1.690972E-01
  1.860070E-01
  2.029167E-01
  2.198264E-01
  2.367361E-01
  2.536459E-01
  2.705556E-01
  2.874653E-01
  3.043750E-01
  3.212848E-01
  3.381945E-01
  3.551042E-01
  3.720139E-01
  3.889237E-01
  4.058334E-01
  4.227431E-01
  4.396528E-01
  4.565626E-01
  4.734723E-01
  4.903820E-01
  5.072917E-01
  5.242015E-01
  5.411112E-01
  5.580209E-01
  5.749306E-01
  5.918404E-01
  6.087501E-01
  6.256598E-01
  6.425695E-01
  6.594792E-01
  6.763890E-01
  6.932987E-01
  7.102084E-01
  7.271181E-01
  7.440279E-01
  7.609376E-01
  7.778473E-01
  7.947570E-01
  8.116668E-01
  8.285765E-01
  8.454862E-01
  8.623959E-01
  8.793057E-01
  8.962154E-01
  9.131251E-01
  9.300348E-01
  9.469446E-01
  9.638543E-01
  9.807640E-01
  9.976737E-01
  1.014583E+00
  1.031493E+00
  1.048403E+00
  1.065313E+00
  1.082222E+00
  1.099132E+00
  1.116042E+00
  1.132952E+00
  1.149861E+00
  1.166771E+00
  1.183681E+00
  1.200590E+00
  1.217500E+00
  1.234410E+00
  1.251320E+00
  1.268229E+00
  1.285139E+00
  1.302049E+00
  1.318958E+00
  1.335868E+00
  1.352778E+00
  1.369688E+00
  1.386597E+00
  1.403507E+00
  1.420417E+00
  1.437327E+00
  1.454236E+00
  1.471146E+00
  1.488056E+00
  1.504965E+00
  1.521875E+00
  1.538785E+00
  1.555695E+00
  1.572604E+00
  1.589514E+00
  1.606424E+00
  1.623334E+00
  1.640243E+00
  1.657153E+00
  1.674063E+00
  1.690972E+00
  1.707882E+00
  1.724792E+00
  1.741702E+00
  1.758611E+00
  1.775521E+00
  1.792431E+00
  1.809341E+00
  1.826250E+00
  1.843160E+00
  1.860070E+00
  1.876979E+00
  1.893889E+00
  1.910799E+00
  1.927709E+00
  1.944618E+00
  1.961528E+00
  1.978438E+00
  1.995347E+00
  2.012257E+00
  2.029167E+00
  2.046077E+00
  2.062986E+00
  2.079896E+00
  2.096806E+00
  2.113716E+00
  2.130625E+00
  2.147535E+00
  2.164445E+00
  2.181354E+00
  2.198264E+00
  2.215174E+00
  2.232084E+00
  2.248993E+00
  2.265903E+00
  2.282813E+00
  2.299723E+00
  2.316632E+00
  2.333542E+00
  2.350452E+00
  2.367361E+00
  2.384271E+00
  2.401181E+00
  2.418091E+00
  2.435000E+00
  2.451910E+00
  2.468820E+00
  2.485729E+00
  2.502639E+00
  2.519549E+00
  1.111087E+04
  1.110920E+04
  1.110753E+04
  1.110587E+04
  1.110421E+04
  1.110255E+04
  1.110089E+04
  1.109923E+04
  1.109757E+04
  1.109087E+04
  1.108394E+04
  1.107701E+04
  1.107008E+04
  1.106315E+04
  1.105623E+04
  1.104930E+04
  1.104058E+04
  1.102793E+04
  1.101529E+04
  1.100264E+04
  1.099000E+04
  1.097736E+04
  1.096473E+04
  1.095187E+04
  1.093530E+04
  1.091872E+04
  1.090215E+04
  1.088558E+04
  1.086902E+04
  1.085245E+04
  1.083523E+04
  1.081451E+04
  1.079379E+04
  1.077307E+04
  1.075236E+04
  1.073165E+04
  1.071095E+04
  1.068737E+04
  1.066192E+04
  1.063648E+04
  1.061104E+04
  1.058561E+04
  1.056019E+04
  1.053299E+04
  1.050292E+04
  1.047287E+04
  1.044282E+04
  1.041278E+04
  1.038275E+04
  1.035077E+04
  1.031661E+04
  1.028247E+04
  1.024833E+04
  1.021420E+04
  1.018009E+04
  1.014313E+04
  1.010570E+04
  1.006829E+04
  1.003088E+04
  9.993497E+03
  9.955151E+03
  9.915914E+03
  9.876692E+03
  9.837487E+03
  9.798297E+03
  9.759072E+03
  9.719796E+03
  9.680535E+03
  9.641287E+03
  9.602052E+03
  9.563604E+03
  9.525616E+03
  9.487635E+03
  9.449660E+03
  9.411787E+03
  9.375521E+03
  9.339256E+03
  9.302992E+03
  9.266729E+03
  9.231524E+03
  9.196757E+03
  9.161995E+03
  9.127238E+03
  9.092962E+03
  9.059043E+03
  9.025139E+03
  8.991251E+03
  8.957029E+03
  8.922647E+03
  8.888290E+03
  8.853957E+03
  8.817588E+03
  8.781096E+03
  8.744634E+03
  8.706701E+03
  8.666461E+03
  8.626254E+03
  8.585937E+03
  8.540610E+03
  8.495321E+03
  8.450068E+03
  8.399959E+03
  8.348910E+03
  8.297904E+03
  8.241867E+03
  8.184588E+03
  8.127357E+03
  8.063845E+03
  7.999784E+03
  7.934511E+03
  7.863307E+03
  7.792150E+03
  7.716891E+03
  7.638571E+03
  7.559590E+03
  7.474286E+03
  7.389023E+03
  7.298851E+03
  7.207077E+03
  7.112336E+03
  7.014856E+03
  6.915362E+03
  6.812824E+03
  6.708525E+03
  6.601404E+03
  6.492438E+03
  6.381412E+03
  6.268224E+03
  6.153910E+03
  6.036967E+03
  5.919131E+03
  5.799566E+03
  5.678425E+03
  5.556189E+03
  5.432407E+03
  5.306862E+03
  5.179956E+03
  5.051692E+03
  4.922326E+03
  4.793648E+03
  4.671372E+03
  4.566729E+03
  4.497791E+03
  4.494571E+03
  4.618881E+03
  4.830860E+03
  4.639036E+03
  4.775348E+03
  1.446681E+03
  2.465274E-03
  5.926300E+02
  5.928590E+02
  5.930884E+02
  5.933182E+02
  5.935484E+02
  5.937789E+02
  5.940097E+02
  5.942409E+02
  5.944725E+02
  5.946191E+02
  5.947625E+02
  5.949065E+02
  5.950512E+02
  5.951965E+02
  5.953426E+02
  5.954893E+02
  5.954867E+02
  5.951584E+02
  5.948309E+02
  5.945043E+02
  5.941785E+02
  5.938535E+02
  5.935294E+02
  5.931959E+02
  5.926894E+02
  5.921840E+02
  5.916798E+02
  5.911768E+02
  5.906749E+02
  5.901742E+02
  5.896501E+02
  5.889971E+02
  5.883457E+02
  5.876960E+02
  5.870480E+02
  5.864016E+02
  5.857568E+02
  5.850624E+02
  5.843370E+02
  5.836138E+02
  5.828929E+02
  5.821742E+02
  5.814578E+02
  5.807942E+02
  5.802148E+02
  5.796382E+02
  5.790647E+02
  5.784941E+02
  5.779264E+02
  5.775137E+02
  5.772757E+02
  5.770412E+02
  5.768102E+02
  5.765827E+02
  5.763588E+02
  5.764658E+02
  5.766332E+02
  5.768046E+02
  5.769799E+02
  5.771592E+02
  5.775297E+02
  5.780793E+02
  5.786330E+02
  5.791910E+02
  5.797532E+02
  5.803689E+02
  5.810493E+02
  5.817332E+02
  5.824207E+02
  5.831117E+02
  5.835023E+02
  5.837173E+02
  5.839341E+02
  5.841525E+02
  5.843074E+02
  5.833615E+02
  5.824156E+02
  5.814699E+02
  5.805242E+02
  5.785593E+02
  5.761779E+02
  5.737977E+02
  5.714187E+02
  5.684427E+02
  5.650376E+02
  5.616362E+02
  5.582386E+02
  5.545860E+02
  5.508042E+02
  5.470283E+02
  5.432582E+02
  5.395435E+02
  5.358394E+02
  5.321421E+02
  5.285209E+02
  5.250151E+02
  5.215167E+02
  5.180287E+02
  5.146590E+02
  5.112977E+02
  5.079448E+02
  5.047263E+02
  5.015426E+02
  4.983681E+02
  4.953639E+02
  4.924098E+02
  4.894641E+02
  4.866973E+02
  4.839534E+02
  4.812525E+02
  4.787299E+02
  4.762115E+02
  4.738581E+02
  4.716277E+02
  4.694333E+02
  4.675491E+02
  4.656652E+02
  4.640503E+02
  4.625242E+02
  4.611949E+02
  4.600475E+02
  4.590046E+02
  4.581189E+02
  4.572297E+02
  4.563351E+02
  4.553672E+02
  4.543181E+02
  4.531632E+02
  4.519537E+02
  4.506608E+02
  4.493748E+02
  4.481192E+02
  4.470212E+02
  4.460880E+02
  4.454693E+02
  4.454015E+02
  4.459210E+02
  4.472465E+02
  4.497172E+02
  4.543386E+02
  4.624362E+02
  4.765955E+02
  5.010238E+02
  5.426984E+02
  6.147798E+02
  7.160815E+02
  7.700749E+02
  8.783957E+02
  3.986514E+02
  5.240098E-04
  1.952265E+03
  1.950753E+03
  1.949241E+03
  1.947730E+03
  1.946219E+03
  1.944779E+03
  1.943269E+03
  1.941761E+03
  1.940252E+03
  1.935531E+03
  1.930662E+03
  1.925795E+03
  1.920929E+03
  1.916063E+03
  1.911198E+03
  1.906334E+03
  1.900610E+03
  1.893015E+03
  1.885420E+03
  1.877827E+03
  1.870234E+03
  1.862641E+03
  1.855049E+03
  1.847351E+03
  1.837826E+03
  1.828301E+03
  1.818778E+03
  1.809255E+03
  1.799733E+03
  1.790212E+03
  1.780354E+03
  1.768709E+03
  1.757065E+03
  1.745423E+03
  1.733781E+03
  1.722141E+03
  1.710501E+03
  1.697412E+03
  1.683385E+03
  1.669361E+03
  1.655337E+03
  1.641315E+03
  1.627294E+03
  1.612417E+03
  1.596162E+03
  1.579909E+03
  1.563658E+03
  1.547409E+03
  1.531161E+03
  1.514101E+03
  1.496128E+03
  1.478157E+03
  1.460189E+03
  1.442223E+03
  1.424260E+03
  1.405678E+03
  1.386993E+03
  1.368311E+03
  1.349632E+03
  1.330957E+03
  1.312763E+03
  1.295020E+03
  1.277282E+03
  1.259546E+03
  1.241814E+03
  1.225326E+03
  1.210373E+03
  1.195423E+03
  1.180476E+03
  1.165532E+03
  1.153400E+03
  1.142913E+03
  1.132426E+03
  1.121941E+03
  1.111779E+03
  1.107065E+03
  1.102350E+03
  1.097636E+03
  1.092921E+03
  1.092377E+03
  1.093542E+03
  1.094710E+03
  1.095880E+03
  1.099639E+03
  1.105274E+03
  1.110915E+03
  1.116561E+03
  1.123924E+03
  1.132185E+03
  1.140454E+03
  1.148731E+03
  1.157983E+03
  1.167315E+03
  1.176655E+03
  1.185754E+03
  1.194468E+03
  1.203192E+03
  1.211860E+03
  1.218282E+03
  1.224713E+03
  1.231154E+03
  1.234899E+03
  1.238110E+03
  1.241333E+03
  1.241626E+03
  1.241184E+03
  1.240756E+03
  1.236519E+03
  1.231936E+03
  1.226583E+03
  1.217533E+03
  1.208497E+03
  1.196938E+03
  1.183494E+03
  1.169649E+03
  1.152092E+03
  1.134545E+03
  1.114237E+03
  1.093017E+03
  1.070291E+03
  1.046173E+03
  1.021333E+03
  9.954071E+02
  9.691923E+02
  9.425158E+02
  9.159088E+02
  8.893784E+02
  8.634395E+02
  8.378119E+02
  8.136302E+02
  7.901722E+02
  7.682197E+02
  7.481503E+02
  7.295084E+02
  7.130596E+02
  6.993124E+02
  6.878537E+02
  6.791351E+02
  6.738264E+02
  6.743254E+02
  6.840422E+02
  7.101799E+02
  7.648188E+02
  8.659342E+02
  1.039606E+03
  1.268031E+03
  1.352539E+03
  1.393722E+03
 -7.000474E+01
  3.090227E-09
  1.251630E+00
  1.251442E+00
  1.251254E+00
  1.251067E+00
  1.250880E+00
  1.250692E+00
  1.250505E+00
  1.250319E+00
  1.250132E+00
  1.249377E+00
  1.248596E+00
  1.247815E+00
  1.247035E+00
  1.246254E+00
  1.245474E+00
  1.244695E+00
  1.243712E+00
  1.242287E+00
  1.240862E+00
  1.239438E+00
  1.238014E+00
  1.236590E+00
  1.235167E+00
  1.233719E+00
  1.231852E+00
  1.229985E+00
  1.228118E+00
  1.226251E+00
  1.224385E+00
  1.222520E+00
  1.220580E+00
  1.218245E+00
  1.215911E+00
  1.213577E+00
  1.211244E+00
  1.208912E+00
  1.206580E+00
  1.203923E+00
  1.201056E+00
  1.198190E+00
  1.195325E+00
  1.192460E+00
  1.189596E+00
  1.186532E+00
  1.183145E+00
  1.179759E+00
  1.176375E+00
  1.172991E+00
  1.169608E+00
  1.166006E+00
  1.162158E+00
  1.158311E+00
  1.154465E+00
  1.150621E+00
  1.146778E+00
  1.142615E+00
  1.138399E+00
  1.134184E+00
  1.129970E+00
  1.125759E+00
  1.121439E+00
  1.117019E+00
  1.112601E+00
  1.108184E+00
  1.103770E+00
  1.099351E+00
  1.094927E+00
  1.090504E+00
  1.086083E+00
  1.081663E+00
  1.077332E+00
  1.073052E+00
  1.068774E+00
  1.064496E+00
  1.060230E+00
  1.056144E+00
  1.052059E+00
  1.047974E+00
  1.043889E+00
  1.039923E+00
  1.036007E+00
  1.032091E+00
  1.028176E+00
  1.024314E+00
  1.020493E+00
  1.016674E+00
  1.012857E+00
  1.009002E+00
  1.005129E+00
  1.001258E+00
  9.973907E-01
  9.932937E-01
  9.891829E-01
  9.850755E-01
  9.808024E-01
  9.762694E-01
  9.717401E-01
  9.671984E-01
  9.620924E-01
  9.569906E-01
  9.518929E-01
  9.462482E-01
  9.404975E-01
  9.347518E-01
  9.284393E-01
  9.219868E-01
  9.155398E-01
  9.083852E-01
  9.011688E-01
  8.938159E-01
  8.857948E-01
  8.777790E-01
  8.693011E-01
  8.604784E-01
  8.515813E-01
  8.419719E-01
  8.323671E-01
  8.222093E-01
  8.118710E-01
  8.011986E-01
  7.902176E-01
  7.790095E-01
  7.674588E-01
  7.557096E-01
  7.436425E-01
  7.313676E-01
  7.188605E-01
  7.061100E-01
  6.932327E-01
  6.800592E-01
  6.667850E-01
  6.533162E-01
  6.396697E-01
  6.258999E-01
  6.119560E-01
  5.978135E-01
  5.835176E-01
  5.690688E-01
  5.544958E-01
  5.400004E-01
  5.262260E-01
  5.144381E-01
  5.066723E-01
  5.063096E-01
  5.203130E-01
  5.441922E-01
  5.225835E-01
  5.379388E-01
  1.629673E-01
  2.777109E-07
  1.083426E+00
  1.083844E+00
  1.084264E+00
  1.084684E+00
  1.085105E+00
  1.085526E+00
  1.085948E+00
  1.086371E+00
  1.086794E+00
  1.087062E+00
  1.087324E+00
  1.087588E+00
  1.087852E+00
  1.088118E+00
  1.088385E+00
  1.088653E+00
  1.088648E+00
  1.088048E+00
  1.087449E+00
  1.086852E+00
  1.086257E+00
  1.085663E+00
  1.085070E+00
  1.084460E+00
  1.083534E+00
  1.082610E+00
  1.081689E+00
  1.080769E+00
  1.079852E+00
  1.078936E+00
  1.077978E+00
  1.076784E+00
  1.075593E+00
  1.074406E+00
  1.073221E+00
  1.072039E+00
  1.070861E+00
  1.069591E+00
  1.068265E+00
  1.066943E+00
  1.065625E+00
  1.064311E+00
  1.063001E+00
  1.061788E+00
  1.060729E+00
  1.059675E+00
  1.058626E+00
  1.057583E+00
  1.056545E+00
  1.055791E+00
  1.055356E+00
  1.054927E+00
  1.054505E+00
  1.054089E+00
  1.053679E+00
  1.053875E+00
  1.054181E+00
  1.054494E+00
  1.054815E+00
  1.055143E+00
  1.055820E+00
  1.056825E+00
  1.057837E+00
  1.058857E+00
  1.059885E+00
  1.061011E+00
  1.062254E+00
  1.063505E+00
  1.064761E+00
  1.066025E+00
  1.066739E+00
  1.067132E+00
  1.067528E+00
  1.067928E+00
  1.068211E+00
  1.066481E+00
  1.064752E+00
  1.063023E+00
  1.061294E+00
  1.057702E+00
  1.053349E+00
  1.048997E+00
  1.044648E+00
  1.039207E+00
  1.032982E+00
  1.026764E+00
  1.020553E+00
  1.013875E+00
  1.006961E+00
  1.000058E+00
  9.931659E-01
  9.863749E-01
  9.796032E-01
  9.728439E-01
  9.662237E-01
  9.598145E-01
  9.534189E-01
  9.470423E-01
  9.408818E-01
  9.347369E-01
  9.286072E-01
  9.227232E-01
  9.169029E-01
  9.110994E-01
  9.056073E-01
  9.002066E-01
  8.948214E-01
  8.897632E-01
  8.847469E-01
  8.798092E-01
  8.751976E-01
  8.705935E-01
  8.662911E-01
  8.622136E-01
  8.582018E-01
  8.547572E-01
  8.513131E-01
  8.483608E-01
  8.455708E-01
  8.431407E-01
  8.410431E-01
  8.391365E-01
  8.375173E-01
  8.358915E-01
  8.342561E-01
  8.324867E-01
  8.305687E-01
  8.284574E-01
  8.262462E-01
  8.238825E-01
  8.215316E-01
  8.192361E-01
  8.172289E-01
  8.155227E-01
  8.143916E-01
  8.142677E-01
  8.152175E-01
  8.176407E-01
  8.221576E-01
  8.306062E-01
  8.454100E-01
  8.712955E-01
  9.159546E-01
  9.921426E-01
  1.123919E+00
  1.309116E+00
  1.407825E+00
  1.605853E+00
  7.288007E-01
  9.579767E-07
  1.468875E+00
  1.467737E+00
  1.466600E+00
  1.465463E+00
  1.464326E+00
  1.463242E+00
  1.462106E+00
  1.460971E+00
  1.459837E+00
  1.456284E+00
  1.452621E+00
  1.448959E+00
  1.445298E+00
  1.441637E+00
  1.437976E+00
  1.434316E+00
  1.430010E+00
  1.424295E+00
  1.418581E+00
  1.412868E+00
  1.407155E+00
  1.401442E+00
  1.395730E+00
  1.389938E+00
  1.382771E+00
  1.375605E+00
  1.368440E+00
  1.361275E+00
  1.354111E+00
  1.346947E+00
  1.339530E+00
  1.330768E+00
  1.322008E+00
  1.313248E+00
  1.304489E+00
  1.295730E+00
  1.286973E+00
  1.277124E+00
  1.266571E+00
  1.256019E+00
  1.245468E+00
  1.234918E+00
  1.224368E+00
  1.213175E+00
  1.200945E+00
  1.188716E+00
  1.176489E+00
  1.164263E+00
  1.152038E+00
  1.139202E+00
  1.125679E+00
  1.112158E+00
  1.098639E+00
  1.085122E+00
  1.071606E+00
  1.057625E+00
  1.043567E+00
  1.029510E+00
  1.015457E+00
  1.001406E+00
  9.877166E-01
  9.743672E-01
  9.610205E-01
  9.476765E-01
  9.343352E-01
  9.219294E-01
  9.106789E-01
  8.994306E-01
  8.881844E-01
  8.769404E-01
  8.678129E-01
  8.599219E-01
  8.520318E-01
  8.441427E-01
  8.364973E-01
  8.329500E-01
  8.294029E-01
  8.258558E-01
  8.223087E-01
  8.218993E-01
  8.227761E-01
  8.236546E-01
  8.245346E-01
  8.273629E-01
  8.316028E-01
  8.358469E-01
  8.400952E-01
  8.456349E-01
  8.518505E-01
  8.580720E-01
  8.642996E-01
  8.712606E-01
  8.782820E-01
  8.853099E-01
  8.921553E-01
  8.987123E-01
  9.052758E-01
  9.117979E-01
  9.166296E-01
  9.214685E-01
  9.263146E-01
  9.291318E-01
  9.315481E-01
  9.339734E-01
  9.341937E-01
  9.338610E-01
  9.335389E-01
  9.303512E-01
  9.269024E-01
  9.228752E-01
  9.160661E-01
  9.092671E-01
  9.005707E-01
  8.904550E-01
  8.800380E-01
  8.668287E-01
  8.536261E-01
  8.383462E-01
  8.223805E-01
  8.052818E-01
  7.871356E-01
  7.684463E-01
  7.489395E-01
  7.292157E-01
  7.091443E-01
  6.891254E-01
  6.691641E-01
  6.496477E-01
  6.303656E-01
  6.121715E-01
  5.945218E-01
  5.780048E-01
  5.629047E-01
  5.488786E-01
  5.365026E-01
  5.261593E-01
  5.175378E-01
  5.109780E-01
  5.069838E-01
  5.073592E-01
  5.146700E-01
  5.343359E-01
  5.754460E-01
  6.515247E-01
  7.821948E-01
  9.540608E-01
  1.017644E+00
  1.048630E+00
 -5.267123E-02
  2.325072E-12
  9.837639E-01
  9.836165E-01
  9.834691E-01
  9.833219E-01
  9.831748E-01
  9.830277E-01
  9.828807E-01
  9.827338E-01
  9.825870E-01
  9.819932E-01
  9.813792E-01
  9.807654E-01
  9.801517E-01
  9.795382E-01
  9.789248E-01
  9.783116E-01
  9.775389E-01
  9.764186E-01
  9.752985E-01
  9.741785E-01
  9.730588E-01
  9.719392E-01
  9.708198E-01
  9.696813E-01
  9.682128E-01
  9.667445E-01
  9.652764E-01
  9.638086E-01
  9.623411E-01
  9.608737E-01
  9.593479E-01
  9.575118E-01
  9.556759E-01
  9.538404E-01
  9.520052E-01
  9.501703E-01
  9.483358E-01
  9.462457E-01
  9.439906E-01
  9.417360E-01
  9.394818E-01
  9.372280E-01
  9.349747E-01
  9.325638E-01
  9.298991E-01
  9.272351E-01
  9.245717E-01
  9.219089E-01
  9.192467E-01
  9.164123E-01
  9.133841E-01
  9.103568E-01
  9.073304E-01
  9.043048E-01
  9.012801E-01
  8.980041E-01
  8.946860E-01
  8.913691E-01
  8.880534E-01
  8.847388E-01
  8.813397E-01
  8.778618E-01
  8.743854E-01
  8.709103E-01
  8.674366E-01
  8.639601E-01
  8.604798E-01
  8.570007E-01
  8.535228E-01
  8.500460E-01
  8.466400E-01
  8.432752E-01
  8.399110E-01
  8.365475E-01
  8.331930E-01
  8.299828E-01
  8.267726E-01
  8.235625E-01
  8.203524E-01
  8.172376E-01
  8.141621E-01
  8.110870E-01
  8.080123E-01
  8.049812E-01
  8.019824E-01
  7.989849E-01
  7.959887E-01
  7.929637E-01
  7.899251E-01
  7.868884E-01
  7.838537E-01
  7.806396E-01
  7.774145E-01
  7.741917E-01
  7.708389E-01
  7.672821E-01
  7.637278E-01
  7.601634E-01
  7.561558E-01
  7.521510E-01
  7.481491E-01
  7.437168E-01
  7.392009E-01
  7.346884E-01
  7.297299E-01
  7.246609E-01
  7.195959E-01
  7.139741E-01
  7.083034E-01
  7.025252E-01
  6.962214E-01
  6.899216E-01
  6.832585E-01
  6.763242E-01
  6.693313E-01
  6.617785E-01
  6.542292E-01
  6.462452E-01
  6.381193E-01
  6.297306E-01
  6.210992E-01
  6.122893E-01
  6.032097E-01
  5.939740E-01
  5.844881E-01
  5.748387E-01
  5.650065E-01
  5.549827E-01
  5.448591E-01
  5.345025E-01
  5.240666E-01
  5.134776E-01
  5.027489E-01
  4.919231E-01
  4.809606E-01
  4.698419E-01
  4.586028E-01
  4.472435E-01
  4.357868E-01
  4.243911E-01
  4.135622E-01
  4.042947E-01
  3.981882E-01
  3.978998E-01
  4.089013E-01
  4.276639E-01
  4.106788E-01
  4.227425E-01
  1.491918E-01
  4.373572E-02
  5.247187E-02
  5.249216E-02
  5.251248E-02
  5.253283E-02
  5.255321E-02
  5.257361E-02
  5.259405E-02
  5.261452E-02
  5.263502E-02
  5.264799E-02
  5.266067E-02
  5.267341E-02
  5.268621E-02
  5.269907E-02
  5.271198E-02
  5.272496E-02
  5.272471E-02
  5.269562E-02
  5.266660E-02
  5.263766E-02
  5.260878E-02
  5.257998E-02
  5.255126E-02
  5.252170E-02
  5.247681E-02
  5.243202E-02
  5.238733E-02
  5.234275E-02
  5.229826E-02
  5.225388E-02
  5.220742E-02
  5.214953E-02
  5.209179E-02
  5.203420E-02
  5.197674E-02
  5.191943E-02
  5.186226E-02
  5.180068E-02
  5.173634E-02
  5.167220E-02
  5.160825E-02
  5.154450E-02
  5.148094E-02
  5.142205E-02
  5.137058E-02
  5.131937E-02
  5.126842E-02
  5.121772E-02
  5.116727E-02
  5.113054E-02
  5.110925E-02
  5.108826E-02
  5.106759E-02
  5.104721E-02
  5.102714E-02
  5.103638E-02
  5.105095E-02
  5.106587E-02
  5.108114E-02
  5.109675E-02
  5.112929E-02
  5.117771E-02
  5.122649E-02
  5.127564E-02
  5.132515E-02
  5.137943E-02
  5.143947E-02
  5.149982E-02
  5.156047E-02
  5.162144E-02
  5.165587E-02
  5.167480E-02
  5.169388E-02
  5.171311E-02
  5.172672E-02
  5.164299E-02
  5.155928E-02
  5.147556E-02
  5.139186E-02
  5.121802E-02
  5.100735E-02
  5.079678E-02
  5.058632E-02
  5.032307E-02
  5.002186E-02
  4.972099E-02
  4.942044E-02
  4.909737E-02
  4.876289E-02
  4.842891E-02
  4.809543E-02
  4.776692E-02
  4.743933E-02
  4.711233E-02
  4.679206E-02
  4.648202E-02
  4.617263E-02
  4.586413E-02
  4.556611E-02
  4.526881E-02
  4.497223E-02
  4.468753E-02
  4.440589E-02
  4.412503E-02
  4.385922E-02
  4.359781E-02
  4.333713E-02
  4.309225E-02
  4.284939E-02
  4.261031E-02
  4.238700E-02
  4.216405E-02
  4.195570E-02
  4.175823E-02
  4.156395E-02
  4.139712E-02
  4.123032E-02
  4.108733E-02
  4.095219E-02
  4.083448E-02
  4.073286E-02
  4.064048E-02
  4.056200E-02
  4.048319E-02
  4.040389E-02
  4.031809E-02
  4.022506E-02
  4.012265E-02
  4.001538E-02
  3.990071E-02
  3.978664E-02
  3.967524E-02
  3.957777E-02
  3.949488E-02
  3.943982E-02
  3.943353E-02
  3.947922E-02
  3.959626E-02
  3.981468E-02
  4.022349E-02
  4.094004E-02
  4.219322E-02
  4.435550E-02
  4.804453E-02
  5.442536E-02
  6.339289E-02
  6.817223E-02
  7.776087E-02
  4.111171E-02
  9.296310E-03
  1.728549E-01
  1.727210E-01
  1.725872E-01
  1.724534E-01
  1.723197E-01
  1.721921E-01
  1.720585E-01
  1.719249E-01
  1.717913E-01
  1.713732E-01
  1.709422E-01
  1.705112E-01
  1.700803E-01
  1.696494E-01
  1.692186E-01
  1.687879E-01
  1.682810E-01
  1.676085E-01
  1.669360E-01
  1.662636E-01
  1.655912E-01
  1.649189E-01
  1.642466E-01
  1.635649E-01
  1.627214E-01
  1.618780E-01
  1.610346E-01
  1.601913E-01
  1.593481E-01
  1.585050E-01
  1.576320E-01
  1.566007E-01
  1.555696E-01
  1.545385E-01
  1.535076E-01
  1.524767E-01
  1.514459E-01
  1.502867E-01
  1.490445E-01
  1.478024E-01
  1.465605E-01
  1.453186E-01
  1.440769E-01
  1.427594E-01
  1.413197E-01
  1.398803E-01
  1.384410E-01
  1.370018E-01
  1.355628E-01
  1.340519E-01
  1.324601E-01
  1.308685E-01
  1.292771E-01
  1.276859E-01
  1.260949E-01
  1.244492E-01
  1.227943E-01
  1.211398E-01
  1.194855E-01
  1.178315E-01
  1.162203E-01
  1.146489E-01
  1.130780E-01
  1.115073E-01
  1.099370E-01
  1.084768E-01
  1.071526E-01
  1.058287E-01
  1.045050E-01
  1.031816E-01
  1.021074E-01
  1.011787E-01
  1.002502E-01
  9.932172E-02
  9.842197E-02
  9.800463E-02
  9.758730E-02
  9.716997E-02
  9.675266E-02
  9.670469E-02
  9.680813E-02
  9.691176E-02
  9.701558E-02
  9.734876E-02
  9.784812E-02
  9.834797E-02
  9.884831E-02
  9.950072E-02
  1.002327E-01
  1.009654E-01
  1.016988E-01
  1.025186E-01
  1.033456E-01
  1.041733E-01
  1.049795E-01
  1.057518E-01
  1.065249E-01
  1.072931E-01
  1.078624E-01
  1.084326E-01
  1.090035E-01
  1.093356E-01
  1.096206E-01
  1.099065E-01
  1.099328E-01
  1.098941E-01
  1.098565E-01
  1.094816E-01
  1.090760E-01
  1.086022E-01
  1.078010E-01
  1.070010E-01
  1.059777E-01
  1.047873E-01
  1.035615E-01
  1.020071E-01
  1.004534E-01
  9.865526E-02
  9.677641E-02
  9.476422E-02
  9.262874E-02
  9.042932E-02
  8.813368E-02
  8.581246E-02
  8.345032E-02
  8.109431E-02
  7.874505E-02
  7.644813E-02
  7.417876E-02
  7.203739E-02
  6.996008E-02
  6.801605E-02
  6.623874E-02
  6.458781E-02
  6.313104E-02
  6.191348E-02
  6.089852E-02
  6.012614E-02
  5.965566E-02
  5.969934E-02
  6.055909E-02
  6.287256E-02
  6.770919E-02
  7.666027E-02
  9.203450E-02
  1.122556E-01
  1.197359E-01
  1.233806E-01
 -7.219377E-03
  5.482284E-08
  9.839535E-01
  9.838062E-01
  9.836590E-01
  9.835120E-01
  9.833650E-01
  9.832182E-01
  9.830713E-01
  9.829246E-01
  9.827780E-01
  9.821847E-01
  9.815711E-01
  9.809577E-01
  9.803445E-01
  9.797314E-01
  9.791185E-01
  9.785058E-01
  9.777335E-01
  9.766137E-01
  9.754942E-01
  9.743748E-01
  9.732555E-01
  9.721365E-01
  9.710177E-01
  9.698796E-01
  9.684117E-01