 Title = "ADflow Slice Data"
Variables =  "CoordinateX"  "CoordinateY"  "CoordinateZ"  "XoC"  "YoC"  "ZoC" "VelocityX" "VelocityY" "VelocityZ" "CoefPressure" "Mach" 
Zone T= "Slice_0001 None Relative Regular z = 0.10000000"
 Nodes =          116  Elements=          112  ZONETYPE=FELINESEG
 DATAPACKING=POINT
  9.900000E-01  1.225040E-02  1.000000E-01  9.999997E-01  2.855783E-04  5.609076E-17  1.011812E-02 -9.027216E-03 -1.754646E-04 -2.320945E-02  0.000000E+00
  9.845260E-01  1.399638E-02  1.000000E-01  9.944685E-01  2.049786E-03  7.011346E-17  1.282932E-02 -4.098642E-03 -1.528663E-04  2.061450E-02  0.000000E+00
  9.783536E-01  1.592972E-02  1.000000E-01  9.882316E-01  4.003315E-03  1.402269E-17  1.028560E-02 -3.105190E-03 -1.417318E-04 -1.195660E-02  0.000000E+00
  9.713889E-01  1.799438E-02  1.000000E-01  9.811942E-01  6.089533E-03  7.011346E-17  8.745074E-03 -2.568181E-03 -1.380753E-04 -2.916406E-02  0.000000E+00
  9.635599E-01  2.025831E-02  1.000000E-01  9.732835E-01  8.377100E-03  0.000000E+00  8.856426E-03 -2.509337E-03 -1.394473E-04 -5.518654E-02  0.000000E+00
  9.547713E-01  2.270598E-02  1.000000E-01  9.644032E-01  1.085033E-02  5.609076E-17  1.013667E-02 -2.768462E-03 -1.437945E-04 -8.307526E-02  0.000000E+00
  9.449291E-01  2.534830E-02  1.000000E-01  9.544582E-01  1.352023E-02  1.402269E-17  1.197103E-02 -3.151291E-03 -1.491197E-04 -1.136702E-01  0.000000E+00
  9.339353E-01  2.819244E-02  1.000000E-01  9.433496E-01  1.639407E-02  9.815884E-17  1.402560E-02 -3.546591E-03 -1.545060E-04 -1.464626E-01  0.000000E+00
  9.216870E-01  3.122649E-02  1.000000E-01  9.309734E-01  1.945980E-02  5.609076E-17  1.615080E-02 -3.903202E-03 -1.593811E-04 -1.805552E-01  0.000000E+00
  9.080826E-01  3.443942E-02  1.000000E-01  9.172269E-01  2.270628E-02  1.402269E-17  1.824329E-02 -4.197471E-03 -1.629319E-04 -2.157210E-01  0.000000E+00
  8.930237E-01  3.781980E-02  1.000000E-01  9.020107E-01  2.612196E-02  5.609076E-17  2.022239E-02 -4.405884E-03 -1.644887E-04 -2.500312E-01  0.000000E+00
  8.764155E-01  4.133515E-02  1.000000E-01  8.852292E-01  2.967401E-02  0.000000E+00  2.202350E-02 -4.525961E-03 -1.637493E-04 -2.827685E-01  0.000000E+00
  8.581774E-01  4.497481E-02  1.000000E-01  8.668007E-01  3.335167E-02  4.907942E-16  2.361499E-02 -4.569490E-03 -1.607167E-04 -3.138137E-01  0.000000E+00
  8.382414E-01  4.871407E-02  1.000000E-01  8.466565E-01  3.712998E-02  4.487261E-16  2.499537E-02 -4.546909E-03 -1.555759E-04 -3.425022E-01  0.000000E+00
  8.165597E-01  5.253539E-02  1.000000E-01  8.247484E-01  4.099120E-02  5.609076E-17  2.617612E-02 -4.478181E-03 -1.485548E-04 -3.695624E-01  0.000000E+00
  7.931090E-01  5.642336E-02  1.000000E-01  8.010529E-01  4.491976E-02  1.402269E-17  2.719770E-02 -4.381339E-03 -1.399880E-04 -3.959665E-01  0.000000E+00
  7.678944E-01  6.036143E-02  1.000000E-01  7.755750E-01  4.889896E-02  2.804538E-17  2.812116E-02 -4.269757E-03 -1.303209E-04 -4.228629E-01  0.000000E+00
  7.409532E-01  6.432757E-02  1.000000E-01  7.483524E-01  5.290650E-02  4.907942E-16  2.901712E-02 -4.150525E-03 -1.201289E-04 -4.511160E-01  0.000000E+00
  7.123572E-01  6.828974E-02  1.000000E-01  7.194579E-01  5.691005E-02  5.609076E-17  2.995434E-02 -4.024743E-03 -1.101255E-04 -4.812618E-01  0.000000E+00
  6.822143E-01  7.220408E-02  1.000000E-01  6.890003E-01  6.086526E-02  5.609076E-17  3.099229E-02 -3.888847E-03 -1.010946E-04 -5.143085E-01  0.000000E+00
  6.506675E-01  7.601389E-02  1.000000E-01  6.571240E-01  6.471484E-02  2.804538E-17  3.217473E-02 -3.740337E-03 -9.370560E-05 -5.526330E-01  0.000000E+00
  6.178953E-01  7.966528E-02  1.000000E-01  6.240097E-01  6.840437E-02 -2.804538E-17  3.354321E-02 -3.556067E-03 -8.838163E-05 -5.963239E-01  0.000000E+00
  5.841133E-01  8.305808E-02  1.000000E-01  5.898749E-01  7.183259E-02  2.804538E-17  3.510897E-02 -3.286393E-03 -8.523028E-05 -6.407398E-01  0.000000E+00
  5.495706E-01  8.605382E-02  1.000000E-01  5.549716E-01  7.485961E-02  9.815884E-17  3.677748E-02 -2.918411E-03 -8.392121E-05 -6.825182E-01  0.000000E+00
  5.145480E-01  8.857368E-02  1.000000E-01  5.195833E-01  7.740578E-02  2.804538E-17  3.840823E-02 -2.477071E-03 -8.381406E-05 -7.212569E-01  0.000000E+00
  4.793451E-01  9.058032E-02  1.000000E-01  4.840128E-01  7.943337E-02  2.804538E-17  3.992939E-02 -1.984358E-03 -8.422588E-05 -7.574255E-01  0.000000E+00
  4.442686E-01  9.206501E-02  1.000000E-01  4.485701E-01  8.093357E-02 -4.206807E-17  4.137258E-02 -1.456563E-03 -8.456322E-05 -7.934838E-01  0.000000E+00
  4.096206E-01  9.303461E-02  1.000000E-01  4.135603E-01  8.191329E-02  7.011346E-17  4.286918E-02 -8.957334E-04 -8.438631E-05 -8.342975E-01  0.000000E+00
  3.756882E-01  9.349795E-02  1.000000E-01  3.792736E-01  8.238146E-02  2.804538E-17  4.461092E-02 -2.789578E-04 -8.342004E-05 -8.853651E-01  0.000000E+00
  3.427351E-01  9.345604E-02  1.000000E-01  3.459764E-01  8.233911E-02  2.804538E-17  4.681691E-02  4.879676E-04 -8.164447E-05 -9.456381E-01  0.000000E+00
  3.109952E-01  9.283631E-02  1.000000E-01  3.139051E-01  8.171292E-02  0.000000E+00  4.958064E-02  1.532996E-03 -7.918747E-05 -1.006735E+00  0.000000E+00
  2.806675E-01  9.155905E-02  1.000000E-01  2.832608E-01  8.042232E-02 -2.804538E-17  5.271057E-02  2.901768E-03 -7.607027E-05 -1.060669E+00  0.000000E+00
  2.519134E-01  8.961067E-02  1.000000E-01  2.542065E-01  7.845359E-02  4.907942E-16  5.584640E-02  4.568142E-03 -7.229211E-05 -1.101279E+00  0.000000E+00
  2.248544E-01  8.702083E-02  1.000000E-01  2.268649E-01  7.583671E-02 -4.206807E-17  5.862706E-02  6.450521E-03 -6.792799E-05 -1.125071E+00  0.000000E+00
  1.995702E-01  8.387551E-02  1.000000E-01  2.013167E-01  7.265855E-02  9.815884E-17  6.083230E-02  8.466992E-03 -6.317001E-05 -1.130174E+00  0.000000E+00
  1.761037E-01  8.025572E-02  1.000000E-01  1.776052E-01  6.900097E-02  4.487261E-16  6.234020E-02  1.048289E-02 -5.816790E-05 -1.119716E+00  0.000000E+00
  1.544558E-01  7.630313E-02  1.000000E-01  1.557313E-01  6.500711E-02  4.206807E-16  6.319645E-02  1.242165E-02 -5.308458E-05 -1.097162E+00  0.000000E+00
  1.346015E-01  7.211088E-02  1.000000E-01  1.356696E-01  6.077109E-02  5.609076E-17  6.356054E-02  1.429084E-02 -4.811393E-05 -1.064118E+00  0.000000E+00
  1.164884E-01  6.777633E-02  1.000000E-01  1.173674E-01  5.639128E-02  1.402269E-17  6.351521E-02  1.602873E-02 -4.327807E-05 -1.026843E+00  0.000000E+00
  1.000416E-01  6.339690E-02  1.000000E-01  1.007488E-01  5.196611E-02  2.804538E-17  6.319444E-02  1.766336E-02 -3.859648E-05 -9.887982E-01  0.000000E+00
  8.517641E-02  5.903212E-02  1.000000E-01  8.572846E-02  4.755577E-02  2.804538E-17  6.271739E-02  1.927501E-02 -3.409678E-05 -9.497155E-01  0.000000E+00
  7.179882E-02  5.472571E-02  1.000000E-01  7.221119E-02  4.320439E-02  1.402269E-17  6.211271E-02  2.092305E-02 -2.978848E-05 -9.074554E-01  0.000000E+00
  5.981409E-02  5.049804E-02  1.000000E-01  6.010133E-02  3.893258E-02  5.609076E-17  6.129114E-02  2.253524E-02 -2.562084E-05 -8.638496E-01  0.000000E+00
  4.911567E-02  4.639404E-02  1.000000E-01  4.929120E-02  3.478573E-02  2.804538E-17  6.020244E-02  2.410991E-02 -2.157019E-05 -8.192266E-01  0.000000E+00
  3.960719E-02  4.241581E-02  1.000000E-01  3.968344E-02  3.076596E-02  2.804538E-17  5.880686E-02  2.573122E-02 -1.765209E-05 -7.736239E-01  0.000000E+00
  3.119584E-02  3.856270E-02  1.000000E-01  3.118425E-02  2.687262E-02  8.413615E-17  5.696049E-02  2.735097E-02 -1.378805E-05 -7.356607E-01  0.000000E+00
  2.379252E-02  3.482978E-02  1.000000E-01  2.370364E-02  2.310072E-02  0.000000E+00  5.465192E-02  2.895844E-02 -9.928235E-06 -7.048456E-01  0.000000E+00
  1.731190E-02  3.121892E-02  1.000000E-01  1.715535E-02  1.945216E-02 -7.011346E-17  5.192610E-02  3.099802E-02 -6.338832E-06 -6.380373E-01  0.000000E+00
  1.171490E-02  2.764889E-02  1.000000E-01  1.149991E-02  1.584485E-02  9.815884E-17  4.805285E-02  3.366003E-02 -3.555056E-06 -5.121820E-01  0.000000E+00
  7.008801E-03  2.401589E-02  1.000000E-01  6.744673E-03  1.217392E-02  2.804538E-17  4.211791E-02  3.505635E-02 -1.525843E-06 -4.741550E-01  0.000000E+00
  9.900000E-01  1.114864E-02  1.000000E-01  9.999997E-01 -8.276854E-04  1.402269E-17  1.702609E-02 -4.391019E-03 -4.686119E-06  2.244276E-02  0.000000E+00
  9.900000E-01  1.124685E-02  1.000000E-01  9.999997E-01 -7.284525E-04  2.804538E-17  6.518915E-03 -3.075724E-02 -2.314705E-04 -1.251466E-01  0.000000E+00
  9.900000E-01  1.139551E-02  1.000000E-01  9.999997E-01 -5.782348E-04  4.206807E-17  6.752280E-04 -5.863501E-02 -4.688844E-04 -7.766028E-02  0.000000E+00
  9.900000E-01  1.159148E-02  1.000000E-01  9.999997E-01 -3.802170E-04  1.402269E-17 -1.171885E-03 -3.347618E-02 -5.583725E-04 -3.437875E-02  0.000000E+00
  9.900000E-01  1.180755E-02  1.000000E-01  9.999997E-01 -1.618901E-04  2.804538E-17 -8.784838E-04  1.156660E-02 -4.737755E-04 -4.655245E-02  0.000000E+00
  9.900000E-01  1.200353E-02  1.000000E-01  9.999997E-01  3.612765E-05  2.804538E-17  7.381662E-04  2.364985E-02 -3.230052E-04 -9.044035E-02  0.000000E+00
  9.900000E-01  1.215219E-02  1.000000E-01  9.999997E-01  1.863454E-04  0.000000E+00  4.005010E-03  1.685803E-03 -2.196572E-04 -1.072174E-01  0.000000E+00
  9.900000E-01  1.225040E-02  1.000000E-01  9.999997E-01  2.855783E-04  7.011346E-17  1.011812E-02 -9.027216E-03 -1.754646E-04 -2.320945E-02  0.000000E+00
  7.008801E-03  6.317943E-03  1.000000E-01  6.744673E-03 -5.708821E-03  9.815884E-17  2.128379E-02 -7.733796E-03  2.687781E-05  5.028623E-01  0.000000E+00
  1.220231E-02  4.674103E-03  1.000000E-01  1.199241E-02 -7.369825E-03  2.804538E-17  2.651564E-02 -6.606491E-03  3.063778E-05  4.934051E-01  0.000000E+00
  1.825510E-02  3.475165E-03  1.000000E-01  1.810840E-02 -8.581281E-03  9.815884E-17  3.062207E-02 -4.934908E-03  3.319017E-05  3.471087E-01  0.000000E+00
  2.517288E-02  2.608085E-03  1.000000E-01  2.509841E-02 -9.457415E-03  7.011346E-17  3.313681E-02 -3.295229E-03  3.611981E-05  2.705962E-01  0.000000E+00
  3.300629E-02  2.021346E-03  1.000000E-01  3.301361E-02 -1.005028E-02  2.804538E-17  3.435905E-02 -1.850961E-03  3.879979E-05  2.434853E-01  0.000000E+00
  4.183175E-02  1.722396E-03  1.000000E-01  4.193122E-02 -1.035235E-02  1.402269E-17  3.457099E-02 -6.970100E-04  4.083199E-05  2.269906E-01  0.000000E+00
  5.172748E-02  1.656758E-03  1.000000E-01  5.193028E-02 -1.041868E-02  0.000000E+00  3.411738E-02  1.306978E-04  4.239378E-05  2.183451E-01  0.000000E+00
  6.278438E-02  1.813505E-03  1.000000E-01  6.310262E-02 -1.026029E-02  9.815884E-17  3.322606E-02  7.735158E-04  4.364642E-05  2.129434E-01  0.000000E+00
  7.509844E-02  2.212777E-03  1.000000E-01  7.554526E-02 -9.856851E-03  7.011346E-17  3.210680E-02  1.245034E-03  4.473413E-05  2.126323E-01  0.000000E+00
  8.876407E-02  2.830570E-03  1.000000E-01  8.935358E-02 -9.232607E-03  9.815884E-17  3.095908E-02  1.524124E-03  4.575874E-05  2.189816E-01  0.000000E+00
  1.038747E-01  3.633340E-03  1.000000E-01  1.046220E-01 -8.421455E-03  2.804538E-17  2.984922E-02  1.686634E-03  4.673114E-05  2.260826E-01  0.000000E+00
  1.205193E-01  4.628287E-03  1.000000E-01  1.214404E-01 -7.416119E-03  7.011346E-17  2.882657E-02  1.760164E-03  4.770794E-05  2.332959E-01  0.000000E+00
  1.387771E-01  5.764497E-03  1.000000E-01  1.398888E-01 -6.268046E-03  4.627488E-16  2.796268E-02  1.739074E-03  4.874847E-05  2.420021E-01  0.000000E+00
  1.587145E-01  6.999402E-03  1.000000E-01  1.600344E-01 -5.020247E-03  5.048169E-16  2.728935E-02  1.654296E-03  4.985446E-05  2.494780E-01  0.000000E+00
  1.803796E-01  8.279283E-03  1.000000E-01  1.819257E-01 -3.727002E-03  5.609076E-17  2.683814E-02  1.522258E-03  5.104962E-05  2.546300E-01  0.000000E+00
  2.037979E-01  9.547230E-03  1.000000E-01  2.055885E-01 -2.445816E-03  2.804538E-17  2.663511E-02  1.358975E-03  5.236805E-05  2.567263E-01  0.000000E+00
  2.289667E-01  1.074771E-02  1.000000E-01  2.310201E-01 -1.232805E-03 -4.206807E-17  2.667924E-02  1.185473E-03  5.383325E-05  2.548529E-01  0.000000E+00
  2.558504E-01  1.184979E-02  1.000000E-01  2.581845E-01 -1.192132E-04  4.206807E-16  2.691978E-02  1.028109E-03  5.543392E-05  2.484353E-01  0.000000E+00
  2.843771E-01  1.285456E-02  1.000000E-01  2.870091E-01  8.960512E-04  0.000000E+00  2.724124E-02  9.205475E-04  5.709166E-05  2.377025E-01  0.000000E+00
  3.144350E-01  1.382206E-02  1.000000E-01  3.173809E-01  1.873653E-03  5.609076E-17  2.747234E-02  9.011215E-04  5.864655E-05  2.242863E-01  0.000000E+00
  3.458716E-01  1.486598E-02  1.000000E-01  3.491457E-01  2.928465E-03  2.804538E-17  2.741836E-02  1.006351E-03  5.986436E-05  2.105557E-01  0.000000E+00
  3.784939E-01  1.617190E-02  1.000000E-01  3.821086E-01  4.248021E-03  9.815884E-17  2.695019E-02  1.217053E-03  6.053562E-05  2.010388E-01  0.000000E+00
  4.120730E-01  1.786018E-02  1.000000E-01  4.160383E-01  5.953937E-03  0.000000E+00  2.607721E-02  1.439871E-03  6.057790E-05  2.016216E-01  0.000000E+00
  4.463507E-01  1.992374E-02  1.000000E-01  4.506739E-01  8.039035E-03  0.000000E+00  2.489389E-02  1.600061E-03  6.001725E-05  2.127331E-01  0.000000E+00
  4.810495E-01  2.229625E-02  1.000000E-01  4.857350E-01  1.043632E-02  9.815884E-17  2.352729E-02  1.669080E-03  5.902396E-05  2.309694E-01  0.000000E+00
  5.158819E-01  2.485607E-02  1.000000E-01  5.209311E-01  1.302287E-02  0.000000E+00  2.211626E-02  1.639221E-03  5.793119E-05  2.535961E-01  0.000000E+00
  5.505606E-01  2.744411E-02  1.000000E-01  5.559719E-01  1.563793E-02  4.206807E-17  2.077666E-02  1.521661E-03  5.715032E-05  2.781764E-01  0.000000E+00
  5.848044E-01  2.989662E-02  1.000000E-01  5.905732E-01  1.811605E-02  5.609076E-17  1.957957E-02  1.341458E-03  5.707669E-05  3.023017E-01  0.000000E+00
  6.183442E-01  3.208013E-02  1.000000E-01  6.244633E-01  2.032236E-02  1.402269E-17  1.855032E-02  1.128167E-03  5.800871E-05  3.241145E-01  0.000000E+00
  6.509298E-01  3.391190E-02  1.000000E-01  6.573891E-01  2.217325E-02  1.402269E-17  1.768867E-02  9.004812E-04  6.009607E-05  3.431142E-01  0.000000E+00
  6.823359E-01  3.533528E-02  1.000000E-01  6.891231E-01  2.361150E-02  1.402269E-17  1.699272E-02  6.592048E-04  6.330117E-05  3.601067E-01  0.000000E+00
  7.123710E-01  3.629580E-02  1.000000E-01  7.194719E-01  2.458205E-02  7.011346E-17  1.645564E-02  4.070165E-04  6.737836E-05  3.748658E-01  0.000000E+00
  7.408829E-01  3.678613E-02  1.000000E-01  7.482814E-01  2.507749E-02  4.206807E-16  1.606696E-02  1.495304E-04  7.199117E-05  3.867032E-01  0.000000E+00
  7.677594E-01  3.681737E-02  1.000000E-01  7.754385E-01  2.510906E-02  2.804538E-17  1.582923E-02 -1.172850E-04  7.686201E-05  3.959669E-01  0.000000E+00
  7.929268E-01  3.640996E-02  1.000000E-01  8.008688E-01  2.469740E-02  2.804538E-17  1.576275E-02 -4.037393E-04  8.181497E-05  4.029299E-01  0.000000E+00
  8.163467E-01  3.558599E-02  1.000000E-01  8.245332E-01  2.386483E-02  1.402269E-17  1.589914E-02 -7.222686E-04  8.676873E-05  4.071918E-01  0.000000E+00
  8.380119E-01  3.437895E-02  1.000000E-01  8.464245E-01  2.264518E-02  4.487261E-16  1.626944E-02 -1.086057E-03  9.170757E-05  4.080836E-01  0.000000E+00
  8.579422E-01  3.283074E-02  1.000000E-01  8.665630E-01  2.108081E-02  4.487261E-16  1.689106E-02 -1.504551E-03  9.662773E-05  4.051424E-01  0.000000E+00
  8.761813E-01  3.100265E-02  1.000000E-01  8.849926E-01  1.923363E-02  0.000000E+00  1.775108E-02 -1.969525E-03  1.014689E-04  3.975638E-01  0.000000E+00
  8.927940E-01  2.898567E-02  1.000000E-01  9.017787E-01  1.719559E-02  7.011346E-17  1.880548E-02 -2.463885E-03  1.060973E-04  3.850455E-01  0.000000E+00
  9.078617E-01  2.687125E-02  1.000000E-01  9.170037E-01  1.505909E-02  2.804538E-17  2.000339E-02 -2.989495E-03  1.103392E-04  3.695217E-01  0.000000E+00
  9.214750E-01  2.471597E-02  1.000000E-01  9.307592E-01  1.288130E-02  2.804538E-17  2.127780E-02 -3.523042E-03  1.139345E-04  3.511431E-01  0.000000E+00
  9.337349E-01  2.259761E-02  1.000000E-01  9.431471E-01  1.074083E-02  5.609076E-17  2.255040E-02 -4.019497E-03  1.167088E-04  3.290822E-01  0.000000E+00
  9.447451E-01  2.057439E-02  1.000000E-01  9.542722E-01  8.696486E-03  2.804538E-17  2.380949E-02 -4.484032E-03  1.189977E-04  3.055028E-01  0.000000E+00
  9.546071E-01  1.867064E-02  1.000000E-01  9.642372E-01  6.772851E-03  2.804538E-17  2.516516E-02 -4.954095E-03  1.219488E-04  2.814496E-01  0.000000E+00
  9.634201E-01  1.690046E-02  1.000000E-01  9.731422E-01  4.984192E-03  2.804538E-17  2.677379E-02 -5.468480E-03  1.272117E-04  2.564457E-01  0.000000E+00
  9.712788E-01  1.526639E-02  1.000000E-01  9.810829E-01  3.333060E-03  2.804538E-17  2.838527E-02 -5.973012E-03  1.342669E-04  2.271325E-01  0.000000E+00
  9.782737E-01  1.377149E-02  1.000000E-01  9.881509E-01  1.822546E-03  1.402269E-17  2.862021E-02 -6.255553E-03  1.344664E-04  1.927278E-01  0.000000E+00
  9.844874E-01  1.239713E-02  1.000000E-01  9.944295E-01  4.338424E-04  2.804538E-17  2.577022E-02 -5.663212E-03  1.064614E-04  1.759341E-01  0.000000E+00
  9.900000E-01  1.114864E-02  1.000000E-01  9.999997E-01 -8.276854E-04  2.804538E-17  1.702609E-02 -4.391019E-03 -4.686119E-06  2.244276E-02  0.000000E+00
  7.008801E-03  2.401589E-02  1.000000E-01  6.744673E-03  1.217392E-02  1.402269E-17  4.211791E-02  3.505635E-02 -1.525843E-06 -4.741550E-01  0.000000E+00
  5.408827E-03  2.256075E-02  1.000000E-01  5.127994E-03  1.070358E-02  0.000000E+00  3.628498E-02  3.519317E-02  8.770992E-07 -5.397964E-01  0.000000E+00
  3.121616E-03  2.018757E-02  1.000000E-01  2.816901E-03  8.305627E-03  7.011346E-17  2.796072E-02  3.488697E-02  4.833121E-06 -3.761891E-01  0.000000E+00
  7.410024E-04  1.653353E-02  1.000000E-01  4.114304E-04  4.613433E-03  2.804538E-17  1.224263E-02  3.020731E-02  1.029638E-05  3.537785E-01  0.000000E+00
  3.338236E-04  1.196777E-02  1.000000E-01  0.000000E+00  0.000000E+00  0.000000E+00  2.186682E-04  1.462534E-02  1.543701E-05  1.057928E+00  0.000000E+00
  2.687700E-03  8.771244E-03  1.000000E-01  2.378454E-03 -3.229905E-03 -4.206807E-17  4.396692E-03 -2.247402E-03  1.886530E-05  9.613683E-01  0.000000E+00
  5.170152E-03  7.075674E-03  1.000000E-01  4.886827E-03 -4.943178E-03  5.609076E-17  1.472997E-02 -7.904966E-03  2.220923E-05  5.619104E-01  0.000000E+00
  7.008801E-03  6.317943E-03  1.000000E-01  6.744673E-03 -5.708821E-03  1.121815E-16  2.128379E-02 -7.733796E-03  2.687781E-05  5.028623E-01  0.000000E+00
    1    2
    2    3
    3    4
    4    5
    5    6
    6    7
    7    8
    8    9
    9   10
   10   11
   11   12
   12   13
   13   14
   14   15
   15   16
   16   17
   17   18
   18   19
   19   20
   20   21
   21   22
   22   23
   23   24
   24   25
   25   26
   26   27
   27   28
   28   29
   29   30
   30   31
   31   32
   32   33
   33   34
   34   35
   35   36
   36   37
   37   38
   38   39
   39   40
   40   41
   41   42
   42   43
   43   44
   44   45
   45   46
   46   47
   47   48
   48   49
   49   50
   51   52
   52   53
   53   54
   54   55
   55   56
   56   57
   57   58
   59   60
   60   61
   61   62
   62   63
   63   64
   64   65
   65   66
   66   67
   67   68
   68   69
   69   70
   70   71
   71   72
   72   73
   73   74
   74   75
   75   76
   76   77
   77   78
   78   79
   79   80
   80   81
   81   82
   82   83
   83   84
   84   85
   85   86
   86   87
   87   88
   88   89
   89   90
   90   91
   91   92
   92   93
   93   94
   94   95
   95   96
   96   97
   97   98
   98   99
   99  100
  100  101
  101  102
  102  103
  103  104
  104  105
  105  106
  106  107
  107  108
  109  110
  110  111
  111  112
  112  113
  113  114
  114  115
  115  116
Zone T= "Slice_0002 None Relative Regular z = 0.36666667"
 Nodes =          116  Elements=          112  ZONETYPE=FELINESEG
 DATAPACKING=POINT
  9.900000E-01  1.198957E-02  3.666667E-01  9.999994E-01  2.212671E-05 -2.804538E-16  1.017195E-02 -8.885647E-03 -5.773064E-04 -2.305407E-02  0.000000E+00
  9.845260E-01  1.371842E-02  3.666667E-01  9.944682E-01  1.769031E-03 -1.121815E-16  1.296069E-02 -4.100565E-03 -5.028250E-04  2.194366E-02  0.000000E+00
  9.783536E-01  1.563360E-02  3.666667E-01  9.882314E-01  3.704202E-03 -2.243630E-16  1.049310E-02 -3.138038E-03 -4.670516E-04 -1.035773E-02  0.000000E+00
  9.713889E-01  1.767959E-02  3.666667E-01  9.811940E-01  5.771562E-03 -1.682723E-16  8.972629E-03 -2.610970E-03 -4.556343E-04 -2.731761E-02  0.000000E+00
  9.635599E-01  1.992424E-02  3.666667E-01  9.732833E-01  8.039650E-03 -5.609075E-17  9.067923E-03 -2.547508E-03 -4.602708E-04 -5.292095E-02  0.000000E+00
  9.547713E-01  2.235247E-02  3.666667E-01  9.644029E-01  1.049323E-02 -2.243630E-16  1.031990E-02 -2.796352E-03 -4.745842E-04 -8.027277E-02  0.000000E+00
  9.449291E-01  2.497556E-02  3.666667E-01  9.544579E-01  1.314371E-02 -1.682723E-16  1.212612E-02 -3.169254E-03 -4.924346E-04 -1.102448E-01  0.000000E+00
  9.339353E-01  2.780119E-02  3.666667E-01  9.433493E-01  1.599884E-02 -1.682723E-16  1.415517E-02 -3.556567E-03 -5.109775E-04 -1.423462E-01  0.000000E+00
  9.216870E-01  3.081814E-02  3.666667E-01  9.309732E-01  1.904729E-02 -1.121815E-16  1.625142E-02 -3.906079E-03 -5.281988E-04 -1.757086E-01  0.000000E+00
  9.080826E-01  3.401617E-02  3.666667E-01  9.172267E-01  2.227871E-02  5.609075E-17  1.830759E-02 -4.193657E-03 -5.412986E-04 -2.101393E-01  0.000000E+00
  8.930237E-01  3.738474E-02  3.666667E-01  9.020105E-01  2.568245E-02 -5.609075E-17  2.024720E-02 -4.397053E-03 -5.480910E-04 -2.437574E-01  0.000000E+00
  8.764155E-01  4.089240E-02  3.666667E-01  8.852290E-01  2.922674E-02 -1.121815E-16  2.201126E-02 -4.515003E-03 -5.475340E-04 -2.758820E-01  0.000000E+00
  8.581774E-01  4.452954E-02  3.666667E-01  8.668005E-01  3.290186E-02  3.045728E-14  2.357108E-02 -4.559596E-03 -5.394679E-04 -3.064230E-01  0.000000E+00
  8.382414E-01  4.827257E-02  3.666667E-01  8.466563E-01  3.668396E-02  3.051337E-14  2.492642E-02 -4.541013E-03 -5.242552E-04 -3.347501E-01  0.000000E+00
  8.165597E-01  5.210499E-02  3.666667E-01  8.247482E-01  4.055640E-02 -5.609075E-17  2.609008E-02 -4.478837E-03 -5.023687E-04 -3.616155E-01  0.000000E+00
  7.931090E-01  5.601234E-02  3.666667E-01  8.010527E-01  4.450455E-02 -2.243630E-16  2.710436E-02 -4.390750E-03 -4.746292E-04 -3.880062E-01  0.000000E+00
  7.678944E-01  5.997875E-02  3.666667E-01  7.755748E-01  4.851237E-02 -1.121815E-16  2.803262E-02 -4.289748E-03 -4.422484E-04 -4.151026E-01  0.000000E+00
  7.409532E-01  6.398227E-02  3.666667E-01  7.483522E-01  5.255769E-02  3.051337E-14  2.894795E-02 -4.182364E-03 -4.069339E-04 -4.438305E-01  0.000000E+00
  7.123572E-01  6.799005E-02  3.666667E-01  7.194577E-01  5.660731E-02 -1.121815E-16  2.992106E-02 -4.068690E-03 -3.710014E-04 -4.747717E-01  0.000000E+00
  6.822143E-01  7.195594E-02  3.666667E-01  6.890001E-01  6.061462E-02 -1.682723E-16  3.101177E-02 -3.943430E-03 -3.372564E-04 -5.088644E-01  0.000000E+00
  6.506675E-01  7.581918E-02  3.666667E-01  6.571239E-01  6.451819E-02 -1.682723E-16  3.226162E-02 -3.801863E-03 -3.083804E-04 -5.482458E-01  0.000000E+00
  6.178953E-01  7.952023E-02  3.666667E-01  6.240095E-01  6.825789E-02  0.000000E+00  3.370618E-02 -3.619960E-03 -2.862754E-04 -5.928087E-01  0.000000E+00
  5.841133E-01  8.295547E-02  3.666667E-01  5.898748E-01  7.172899E-02 -1.682723E-16  3.534829E-02 -3.348554E-03 -2.716534E-04 -6.378782E-01  0.000000E+00
  5.495706E-01  8.598531E-02  3.666667E-01  5.549715E-01  7.479046E-02 -3.365445E-16  3.708517E-02 -2.974928E-03 -2.636848E-04 -6.800704E-01  0.000000E+00
  5.145480E-01  8.853057E-02  3.666667E-01  5.195832E-01  7.736231E-02 -1.121815E-16  3.876941E-02 -2.524546E-03 -2.604477E-04 -7.189584E-01  0.000000E+00
  4.793451E-01  9.055451E-02  3.666667E-01  4.840127E-01  7.940738E-02 -5.609075E-17  4.032617E-02 -2.020861E-03 -2.597908E-04 -7.550306E-01  0.000000E+00
  4.442686E-01  9.204982E-02  3.666667E-01  4.485700E-01  8.091830E-02  1.121815E-16  4.178914E-02 -1.481931E-03 -2.597808E-04 -7.907982E-01  0.000000E+00
  4.096206E-01  9.302525E-02  3.666667E-01  4.135602E-01  8.190391E-02 -1.121815E-16  4.329517E-02 -9.110578E-04 -2.589060E-04 -8.311998E-01  0.000000E+00
  3.756882E-01  9.349157E-02  3.666667E-01  3.792735E-01  8.237510E-02 -2.243630E-16  4.504237E-02 -2.856858E-04 -2.561263E-04 -8.818068E-01  0.000000E+00
  3.427351E-01  9.345142E-02  3.666667E-01  3.459764E-01  8.233453E-02 -1.682723E-16  4.725552E-02  4.895446E-04 -2.511875E-04 -9.416088E-01  0.000000E+00
  3.109952E-01  9.283297E-02  3.666667E-01  3.139050E-01  8.170962E-02  0.000000E+00  5.002981E-02  1.544416E-03 -2.443255E-04 -1.002239E+00  0.000000E+00
  2.806675E-01  9.155661E-02  3.666667E-01  2.832607E-01  8.041994E-02 -1.682723E-16  5.316997E-02  2.925008E-03 -2.354921E-04 -1.055735E+00  0.000000E+00
  2.519134E-01  8.960887E-02  3.666667E-01  2.542064E-01  7.845186E-02  3.056946E-14  5.631363E-02  4.604707E-03 -2.246117E-04 -1.095963E+00  0.000000E+00
  2.248544E-01  8.701949E-02  3.666667E-01  2.268648E-01  7.583544E-02 -2.804538E-16  5.909913E-02  6.501153E-03 -2.118629E-04 -1.119444E+00  0.000000E+00
  1.995702E-01  8.387449E-02  3.666667E-01  2.013166E-01  7.265761E-02 -1.121815E-16  6.130485E-02  8.531753E-03 -1.977964E-04 -1.124314E+00  0.000000E+00
  1.761037E-01  8.025493E-02  3.666667E-01  1.776051E-01  6.900026E-02  3.040119E-14  6.280946E-02  1.056105E-02 -1.828625E-04 -1.113694E+00  0.000000E+00
  1.544558E-01  7.630251E-02  3.666667E-01  1.557312E-01  6.500657E-02  3.045728E-14  6.365977E-02  1.251218E-02 -1.675639E-04 -1.091023E+00  0.000000E+00
  1.346015E-01  7.211038E-02  3.666667E-01  1.356696E-01  6.077067E-02 -1.121815E-16  6.401593E-02  1.439285E-02 -1.525067E-04 -1.057885E+00  0.000000E+00
  1.164884E-01  6.777592E-02  3.666667E-01  1.173674E-01  5.639095E-02 -2.804538E-16  6.396113E-02  1.614102E-02 -1.377866E-04 -1.020514E+00  0.000000E+00
  1.000416E-01  6.339655E-02  3.666667E-01  1.007488E-01  5.196586E-02 -5.609075E-17  6.362990E-02  1.778492E-02 -1.234799E-04 -9.823479E-01  0.000000E+00
  8.517641E-02  5.903183E-02  3.666667E-01  8.572843E-02  4.755556E-02 -3.365445E-16  6.314161E-02  1.940530E-02 -1.096756E-04 -9.431154E-01  0.000000E+00
  7.179882E-02  5.472546E-02  3.666667E-01  7.221118E-02  4.320423E-02  0.000000E+00  6.252491E-02  2.106188E-02 -9.640862E-05 -9.006790E-01  0.000000E+00
  5.981409E-02  5.049783E-02  3.666667E-01  6.010131E-02  3.893246E-02 -1.682723E-16  6.169088E-02  2.268226E-02 -8.353460E-05 -8.568633E-01  0.000000E+00
  4.911567E-02  4.639385E-02  3.666667E-01  4.929118E-02  3.478563E-02 -1.121815E-16  6.058964E-02  2.426508E-02 -7.098483E-05 -8.119711E-01  0.000000E+00
  3.960719E-02  4.241564E-02  3.666667E-01  3.968343E-02  3.076588E-02 -5.609075E-17  5.918097E-02  2.589511E-02 -5.879235E-05 -7.659976E-01  0.000000E+00
  3.119584E-02  3.856255E-02  3.666667E-01  3.118425E-02  2.687256E-02  0.000000E+00  5.731768E-02  2.752269E-02 -4.668383E-05 -7.275358E-01  0.000000E+00
  2.379252E-02  3.482964E-02  3.666667E-01  2.370363E-02  2.310068E-02 -1.682723E-16  5.497919E-02  2.913173E-02 -3.450690E-05 -6.961312E-01  0.000000E+00
  1.731190E-02  3.121879E-02  3.666667E-01  1.715534E-02  1.945212E-02 -2.243630E-16  5.219666E-02  3.115849E-02 -2.316428E-05 -6.286458E-01  0.000000E+00
  1.171490E-02  2.764877E-02  3.666667E-01  1.149991E-02  1.584483E-02 -1.121815E-16  4.823911E-02  3.378854E-02 -1.437929E-05 -5.018827E-01  0.000000E+00
  7.008801E-03  2.401578E-02  3.666667E-01  6.744671E-03  1.217390E-02  5.609075E-17  4.222394E-02  3.514386E-02 -7.963831E-06 -4.626886E-01  0.000000E+00
  9.900000E-01  1.089496E-02  3.666667E-01  9.999994E-01 -1.083914E-03 -1.121815E-16  1.708994E-02 -4.544661E-03 -1.065171E-05  2.125827E-02  0.000000E+00
  9.900000E-01  1.099253E-02  3.666667E-01  9.999994E-01 -9.853246E-04 -2.243630E-16  6.501985E-03 -3.106346E-02 -7.608140E-04 -1.259371E-01  0.000000E+00
  9.900000E-01  1.114023E-02  3.666667E-01  9.999994E-01 -8.360816E-04 -1.121815E-16  6.568695E-04 -5.873702E-02 -1.543303E-03 -7.806604E-02  0.000000E+00
  9.900000E-01  1.133493E-02  3.666667E-01  9.999994E-01 -6.393486E-04 -3.365445E-16 -1.156350E-03 -3.331823E-02 -1.830822E-03 -3.435432E-02  0.000000E+00
  9.900000E-01  1.154960E-02  3.666667E-01  9.999994E-01 -4.224383E-04  1.121815E-16 -8.684016E-04  1.195900E-02 -1.548073E-03 -4.633158E-02  0.000000E+00
  9.900000E-01  1.174430E-02  3.666667E-01  9.999994E-01 -2.257054E-04 -1.121815E-16  7.292917E-04  2.418386E-02 -1.055361E-03 -9.086593E-02  0.000000E+00
  9.900000E-01  1.189200E-02  3.666667E-01  9.999994E-01 -7.646235E-05 -2.243630E-16  4.008876E-03  2.084414E-03 -7.209728E-04 -1.079437E-01  0.000000E+00
  9.900000E-01  1.198957E-02  3.666667E-01  9.999994E-01  2.212671E-05 -2.804538E-16  1.017195E-02 -8.885647E-03 -5.773064E-04 -2.305407E-02  0.000000E+00
  7.008801E-03  6.317835E-03  3.666667E-01  6.744671E-03 -5.708826E-03 -3.365445E-16  2.164788E-02 -7.866377E-03  8.681414E-05  4.958205E-01  0.000000E+00
  1.220231E-02  4.673988E-03  3.666667E-01  1.199240E-02 -7.369836E-03 -1.121815E-16  2.689509E-02 -6.703204E-03  9.892033E-05  4.867383E-01  0.000000E+00
  1.825510E-02  3.475043E-03  3.666667E-01  1.810840E-02 -8.581300E-03 -1.682723E-16  3.102354E-02 -4.999652E-03  1.070861E-04  3.409285E-01  0.000000E+00
  2.517288E-02  2.607952E-03  3.666667E-01  2.509841E-02 -9.457444E-03 -2.243630E-16  3.354809E-02 -3.336522E-03  1.164706E-04  2.648375E-01  0.000000E+00
  3.300629E-02  2.021201E-03  3.666667E-01  3.301360E-02 -1.005032E-02 -5.609075E-17  3.476186E-02 -1.873084E-03  1.250348E-04  2.382133E-01  0.000000E+00
  4.183175E-02  1.722236E-03  3.666667E-01  4.193121E-02 -1.035241E-02  1.121815E-16  3.495489E-02 -7.049619E-04  1.314929E-04  2.222365E-01  0.000000E+00
  5.172748E-02  1.656579E-03  3.666667E-01  5.193027E-02 -1.041875E-02 -2.243630E-16  3.448087E-02  1.319282E-04  1.364246E-04  2.140311E-01  0.000000E+00
  6.278438E-02  1.813302E-03  3.666667E-01  6.310261E-02 -1.026039E-02 -1.121815E-16  3.356954E-02  7.813650E-04  1.403414E-04  2.089865E-01  0.000000E+00