 Title= "ADflow Lift Distribution Data"
Variables = "eta" "CoordinateX" "CoordinateY" "CoordinateZ" "Lift" "Drag" "Moment" "Normalized Lift" "Normalized Drag" "Normalized Moment" "CL" "CD" "CM" "CLp" "CDp" "CMp" "CLv" "CDv" "CMv" "Elliptical" "thickness" "twist" "chord" "fx" "fy" "fz" 
Zone T= "LiftDist_01 allWalls: : z normal"
 I=          150
 DATAPACKING=BLOCK
  0.000000E+00
  6.711405E-03
  1.342281E-02
  2.013422E-02
  2.684563E-02
  3.355704E-02
  4.026845E-02
  4.697986E-02
  5.369127E-02
  6.040268E-02
  6.711409E-02
  7.382550E-02
  8.053691E-02
  8.724832E-02
  9.395973E-02
  1.006711E-01
  1.073825E-01
  1.140940E-01
  1.208054E-01
  1.275168E-01
  1.342282E-01
  1.409396E-01
  1.476510E-01
  1.543624E-01
  1.610738E-01
  1.677852E-01
  1.744966E-01
  1.812081E-01
  1.879195E-01
  1.946309E-01
  2.013423E-01
  2.080537E-01
  2.147651E-01
  2.214765E-01
  2.281879E-01
  2.348993E-01
  2.416107E-01
  2.483221E-01
  2.550336E-01
  2.617450E-01
  2.684564E-01
  2.751678E-01
  2.818792E-01
  2.885906E-01
  2.953020E-01
  3.020134E-01
  3.087248E-01
  3.154362E-01
  3.221476E-01
  3.288591E-01
  3.355705E-01
  3.422819E-01
  3.489933E-01
  3.557047E-01
  3.624161E-01
  3.691275E-01
  3.758389E-01
  3.825503E-01
  3.892617E-01
  3.959732E-01
  4.026846E-01
  4.093960E-01
  4.161074E-01
  4.228188E-01
  4.295302E-01
  4.362416E-01
  4.429530E-01
  4.496644E-01
  4.563758E-01
  4.630872E-01
  4.697987E-01
  4.765101E-01
  4.832215E-01
  4.899329E-01
  4.966443E-01
  5.033557E-01
  5.100671E-01
  5.167785E-01
  5.234899E-01
  5.302013E-01
  5.369128E-01
  5.436242E-01
  5.503356E-01
  5.570470E-01
  5.637584E-01
  5.704698E-01
  5.771812E-01
  5.838926E-01
  5.906040E-01
  5.973154E-01
  6.040268E-01
  6.107383E-01
  6.174497E-01
  6.241611E-01
  6.308725E-01
  6.375839E-01
  6.442953E-01
  6.510067E-01
  6.577181E-01
  6.644295E-01
  6.711409E-01
  6.778524E-01
  6.845638E-01
  6.912752E-01
  6.979866E-01
  7.046980E-01
  7.114094E-01
  7.181208E-01
  7.248322E-01
  7.315436E-01
  7.382550E-01
  7.449664E-01
  7.516779E-01
  7.583893E-01
  7.651007E-01
  7.718121E-01
  7.785235E-01
  7.852349E-01
  7.919463E-01
  7.986577E-01
  8.053691E-01
  8.120805E-01
  8.187919E-01
  8.255034E-01
  8.322148E-01
  8.389262E-01
  8.456376E-01
  8.523490E-01
  8.590604E-01
  8.657718E-01
  8.724832E-01
  8.791946E-01
  8.859060E-01
  8.926175E-01
  8.993289E-01
  9.060403E-01
  9.127517E-01
  9.194631E-01
  9.261745E-01
  9.328859E-01
  9.395973E-01
  9.463087E-01
  9.530201E-01
  9.597315E-01
  9.664430E-01
  9.731544E-01
  9.798658E-01
  9.865772E-01
  9.932886E-01
  1.000000E+00
  0.000000E+00
  0.000000E+00
  0.000000E+00
  0.000000E+00
  0.000000E+00
  0.000000E+00
  0.000000E+00
  0.000000E+00
  0.000000E+00
  0.000000E+00
  0.000000E+00
  0.000000E+00
  0.000000E+00
  0.000000E+00
  0.000000E+00
  0.000000E+00
  0.000000E+00
  0.000000E+00
  0.000000E+00
  0.000000E+00
  0.000000E+00
  0.000000E+00
  0.000000E+00
  0.000000E+00
  0.000000E+00
  0.000000E+00
  0.000000E+00
  0.000000E+00
  0.000000E+00
  0.000000E+00
  0.000000E+00
  0.000000E+00
  0.000000E+00
  0.000000E+00
  0.000000E+00
  0.000000E+00
  0.000000E+00
  0.000000E+00
  0.000000E+00
  0.000000E+00
  0.000000E+00
  0.000000E+00
  0.000000E+00
  0.000000E+00
  0.000000E+00
  0.000000E+00
  0.000000E+00
  0.000000E+00
  0.000000E+00
  0.000000E+00
  0.000000E+00
  0.000000E+00
  0.000000E+00
  0.000000E+00
  0.000000E+00
  0.000000E+00
  0.000000E+00
  0.000000E+00
  0.000000E+00
  0.000000E+00
  0.000000E+00
  0.000000E+00
  0.000000E+00
  0.000000E+00
  0.000000E+00
  0.000000E+00
  0.000000E+00
  0.000000E+00
  0.000000E+00
  0.000000E+00
  0.000000E+00
  0.000000E+00
  0.000000E+00
  0.000000E+00
  0.000000E+00
  0.000000E+00
  0.000000E+00
  0.000000E+00
  0.000000E+00
  0.000000E+00
  0.000000E+00
  0.000000E+00
  0.000000E+00
  0.000000E+00
  0.000000E+00
  0.000000E+00
  0.000000E+00
  0.000000E+00
  0.000000E+00
  0.000000E+00
  0.000000E+00
  0.000000E+00
  0.000000E+00
  0.000000E+00
  0.000000E+00
  0.000000E+00
  0.000000E+00
  0.000000E+00
  0.000000E+00
  0.000000E+00
  0.000000E+00
  0.000000E+00
  0.000000E+00
  0.000000E+00
  0.000000E+00
  0.000000E+00
  0.000000E+00
  0.000000E+00
  0.000000E+00
  0.000000E+00
  0.000000E+00
  0.000000E+00
  0.000000E+00
  0.000000E+00
  0.000000E+00
  0.000000E+00
  0.000000E+00
  0.000000E+00
  0.000000E+00
  0.000000E+00
  0.000000E+00
  0.000000E+00
  0.000000E+00
  0.000000E+00
  0.000000E+00
  0.000000E+00
  0.000000E+00
  0.000000E+00
  0.000000E+00
  0.000000E+00
  0.000000E+00
  0.000000E+00
  0.000000E+00
  0.000000E+00
  0.000000E+00
  0.000000E+00
  0.000000E+00
  0.000000E+00
  0.000000E+00
  0.000000E+00
  0.000000E+00
  0.000000E+00
  0.000000E+00
  0.000000E+00
  0.000000E+00
  0.000000E+00
  0.000000E+00
  0.000000E+00
  0.000000E+00
  0.000000E+00
  0.000000E+00
  0.000000E+00
  0.000000E+00
  0.000000E+00
  0.000000E+00
  0.000000E+00
  0.000000E+00
  0.000000E+00
  0.000000E+00
  0.000000E+00
  0.000000E+00
  0.000000E+00
  0.000000E+00
  0.000000E+00
  0.000000E+00
  0.000000E+00
  0.000000E+00
  0.000000E+00
  0.000000E+00
  0.000000E+00
  0.000000E+00
  0.000000E+00
  0.000000E+00
  0.000000E+00
  0.000000E+00
  0.000000E+00
  0.000000E+00
  0.000000E+00
  0.000000E+00
  0.000000E+00
  0.000000E+00
  0.000000E+00
  0.000000E+00
  0.000000E+00
  0.000000E+00
  0.000000E+00
  0.000000E+00
  0.000000E+00
  0.000000E+00
  0.000000E+00
  0.000000E+00
  0.000000E+00
  0.000000E+00
  0.000000E+00
  0.000000E+00
  0.000000E+00
  0.000000E+00
  0.000000E+00
  0.000000E+00
  0.000000E+00
  0.000000E+00
  0.000000E+00
  0.000000E+00
  0.000000E+00
  0.000000E+00
  0.000000E+00
  0.000000E+00
  0.000000E+00
  0.000000E+00
  0.000000E+00
  0.000000E+00
  0.000000E+00
  0.000000E+00
  0.000000E+00
  0.000000E+00
  0.000000E+00
  0.000000E+00
  0.000000E+00
  0.000000E+00
  0.000000E+00
  0.000000E+00
  0.000000E+00
  0.000000E+00
  0.000000E+00
  0.000000E+00
  0.000000E+00
  0.000000E+00
  0.000000E+00
  0.000000E+00
  0.000000E+00
  0.000000E+00
  0.000000E+00
  0.000000E+00
  0.000000E+00
  0.000000E+00
  0.000000E+00
  0.000000E+00
  0.000000E+00
  0.000000E+00
  0.000000E+00
  0.000000E+00
  0.000000E+00
  0.000000E+00
  0.000000E+00
  0.000000E+00
  0.000000E+00
  0.000000E+00
  0.000000E+00
  0.000000E+00
  0.000000E+00
  0.000000E+00
  0.000000E+00
  0.000000E+00
  0.000000E+00
  0.000000E+00
  0.000000E+00
  0.000000E+00
  0.000000E+00
  0.000000E+00
  0.000000E+00
  0.000000E+00
  0.000000E+00
  0.000000E+00
  0.000000E+00
  0.000000E+00
  0.000000E+00
  0.000000E+00
  0.000000E+00
  0.000000E+00
  0.000000E+00
  0.000000E+00
  0.000000E+00
  0.000000E+00
  0.000000E+00
  0.000000E+00
  0.000000E+00
  0.000000E+00
  0.000000E+00
  0.000000E+00
  0.000000E+00
  0.000000E+00
  0.000000E+00
  0.000000E+00
  0.000000E+00
  0.000000E+00
  0.000000E+00
  0.000000E+00
  0.000000E+00
  0.000000E+00
  0.000000E+00
  0.000000E+00
  0.000000E+00
  0.000000E+00
  0.000000E+00
  0.000000E+00
  0.000000E+00
  0.000000E+00
  0.000000E+00
  0.000000E+00
  0.000000E+00
  1.000000E-08
  1.690972E-02
  3.381945E-02
  5.072917E-02
  6.763890E-02
  8.454862E-02
  1.014583E-01
  1.183681E-01
  1.352778E-01
  1.521875E-01
  1.690972E-01
  1.860070E-01
  2.029167E-01
  2.198264E-01
  2.367361E-01
  2.536459E-01
  2.705556E-01
  2.874653E-01
  3.043750E-01
  3.212848E-01
  3.381945E-01
  3.551042E-01
  3.720139E-01
  3.889237E-01
  4.058334E-01
  4.227431E-01
  4.396528E-01
  4.565626E-01
  4.734723E-01
  4.903820E-01
  5.072917E-01
  5.242015E-01
  5.411112E-01
  5.580209E-01
  5.749306E-01
  5.918404E-01
  6.087501E-01
  6.256598E-01
  6.425695E-01
  6.594792E-01
  6.763890E-01
  6.932987E-01
  7.102084E-01
  7.271181E-01
  7.440279E-01
  7.609376E-01
  7.778473E-01
  7.947570E-01
  8.116668E-01
  8.285765E-01
  8.454862E-01
  8.623959E-01
  8.793057E-01
  8.962154E-01
  9.131251E-01
  9.300348E-01
  9.469446E-01
  9.638543E-01
  9.807640E-01
  9.976737E-01
  1.014583E+00
  1.031493E+00
  1.048403E+00
  1.065313E+00
  1.082222E+00
  1.099132E+00
  1.116042E+00
  1.132952E+00
  1.149861E+00
  1.166771E+00
  1.183681E+00
  1.200590E+00
  1.217500E+00
  1.234410E+00
  1.251320E+00
  1.268229E+00
  1.285139E+00
  1.302049E+00
  1.318958E+00
  1.335868E+00
  1.352778E+00
  1.369688E+00
  1.386597E+00
  1.403507E+00
  1.420417E+00
  1.437327E+00
  1.454236E+00
  1.471146E+00
  1.488056E+00
  1.504965E+00
  1.521875E+00
  1.538785E+00
  1.555695E+00
  1.572604E+00
  1.589514E+00
  1.606424E+00
  1.623334E+00
  1.640243E+00
  1.657153E+00
  1.674063E+00
  1.690972E+00
  1.707882E+00
  1.724792E+00
  1.741702E+00
  1.758611E+00
  1.775521E+00
  1.792431E+00
  1.809341E+00
  1.826250E+00
  1.843160E+00
  1.860070E+00
  1.876979E+00
  1.893889E+00
  1.910799E+00
  1.927709E+00
  1.944618E+00
  1.961528E+00
  1.978438E+00
  1.995347E+00
  2.012257E+00
  2.029167E+00
  2.046077E+00
  2.062986E+00
  2.079896E+00
  2.096806E+00
  2.113716E+00
  2.130625E+00
  2.147535E+00
  2.164445E+00
  2.181354E+00
  2.198264E+00
  2.215174E+00
  2.232084E+00
  2.248993E+00
  2.265903E+00
  2.282813E+00
  2.299723E+00
  2.316632E+00
  2.333542E+00
  2.350452E+00
  2.367361E+00
  2.384271E+00
  2.401181E+00
  2.418091E+00
  2.435000E+00
  2.451910E+00
  2.468820E+00
  2.485729E+00
  2.502639E+00
  2.519549E+00
  1.101277E+04
  1.101118E+04
  1.100959E+04
  1.100800E+04
  1.100640E+04
  1.100481E+04
  1.100322E+04
  1.100163E+04
  1.100004E+04
  1.099562E+04
  1.099108E+04
  1.098653E+04
  1.098198E+04
  1.097744E+04
  1.097289E+04
  1.096834E+04
  1.096296E+04
  1.095578E+04
  1.094859E+04
  1.094140E+04
  1.093421E+04
  1.092703E+04
  1.091984E+04
  1.091249E+04
  1.090235E+04
  1.089221E+04
  1.088208E+04
  1.087194E+04
  1.086180E+04
  1.085166E+04
  1.084101E+04
  1.082761E+04
  1.081421E+04
  1.080081E+04
  1.078742E+04
  1.077402E+04
  1.076062E+04
  1.074513E+04
  1.072829E+04
  1.071145E+04
  1.069461E+04
  1.067777E+04
  1.066093E+04
  1.064273E+04
  1.062233E+04
  1.060193E+04
  1.058153E+04
  1.056113E+04
  1.054073E+04
  1.051859E+04
  1.049451E+04
  1.047043E+04
  1.044634E+04
  1.042226E+04
  1.039818E+04
  1.037088E+04
  1.034302E+04
  1.031517E+04
  1.028732E+04
  1.025947E+04
  1.022969E+04
  1.019810E+04
  1.016651E+04
  1.013492E+04
  1.010334E+04
  1.007011E+04
  1.003485E+04
  9.999591E+03
  9.964335E+03
  9.929081E+03
  9.891518E+03
  9.852607E+03
  9.813698E+03
  9.774792E+03
  9.735685E+03
  9.693163E+03
  9.650644E+03
  9.608127E+03
  9.565611E+03
  9.520562E+03
  9.474477E+03
  9.428394E+03
  9.382314E+03
  9.334188E+03
  9.284585E+03
  9.234985E+03
  9.185389E+03
  9.133613E+03
  9.080706E+03
  9.027803E+03
  8.974905E+03
  8.919196E+03
  8.863286E+03
  8.807383E+03
  8.750317E+03
  8.691440E+03
  8.632577E+03
  8.573645E+03
  8.511740E+03
  8.449865E+03
  8.388020E+03
  8.323815E+03
  8.259176E+03
  8.194583E+03
  8.127581E+03
  8.060011E+03
  7.992498E+03
  7.921523E+03
  7.850273E+03
  7.778299E+03
  7.702670E+03
  7.627095E+03
  7.548829E+03
  7.468557E+03
  7.387842E+03
  7.302772E+03
  7.217737E+03
  7.129150E+03
  7.039402E+03
  6.947328E+03
  6.853101E+03
  6.757164E+03
  6.658645E+03
  6.558554E+03
  6.455951E+03
  6.351585E+03
  6.245254E+03
  6.136718E+03
  6.027031E+03
  5.914528E+03
  5.801038E+03
  5.685630E+03
  5.568445E+03
  5.450030E+03
  5.329883E+03
  5.207741E+03
  5.083956E+03
  4.958345E+03
  4.830807E+03
  4.701975E+03
  4.576149E+03
  4.462457E+03
  4.376011E+03
  4.343346E+03
  4.423411E+03
  4.582162E+03
  4.373202E+03
  4.565560E+03
  1.310295E+03
  2.249695E-03
  6.077105E+02
  6.076328E+02
  6.075552E+02
  6.074776E+02
  6.074000E+02
  6.073224E+02
  6.072447E+02
  6.071671E+02
  6.070895E+02
  6.069723E+02
  6.068533E+02
  6.067343E+02
  6.066153E+02
  6.064963E+02
  6.063773E+02
  6.062583E+02
  6.061637E+02
  6.061221E+02
  6.060806E+02
  6.060390E+02
  6.059975E+02
  6.059559E+02
  6.059144E+02
  6.058737E+02
  6.058476E+02
  6.058215E+02
  6.057954E+02
  6.057693E+02
  6.057433E+02
  6.057172E+02
  6.056833E+02
  6.056083E+02
  6.055332E+02
  6.054582E+02
  6.053831E+02
  6.053081E+02
  6.052331E+02
  6.051250E+02
  6.049954E+02
  6.048659E+02
  6.047365E+02
  6.046071E+02
  6.044777E+02
  6.043352E+02
  6.041717E+02
  6.040082E+02
  6.038448E+02
  6.036815E+02
  6.035183E+02
  6.033367E+02
  6.031346E+02
  6.029326E+02
  6.027308E+02
  6.025292E+02
  6.023278E+02
  6.020590E+02
  6.017789E+02
  6.014991E+02
  6.012197E+02
  6.009406E+02
  6.005958E+02
  6.001896E+02
  5.997839E+02
  5.993785E+02
  5.989736E+02
  5.984730E+02
  5.978540E+02
  5.972353E+02
  5.966170E+02
  5.959991E+02
  5.951670E+02
  5.942099E+02
  5.932530E+02
  5.922962E+02
  5.913157E+02
  5.899318E+02
  5.885477E+02
  5.871636E+02
  5.857793E+02
  5.840369E+02
  5.821477E+02
  5.802582E+02
  5.783687E+02
  5.761304E+02
  5.736401E+02
  5.711496E+02
  5.686589E+02
  5.657627E+02
  5.626556E+02
  5.595486E+02
  5.564417E+02
  5.527961E+02
  5.491118E+02
  5.454286E+02
  5.414819E+02
  5.371254E+02
  5.327726E+02
  5.284032E+02
  5.233245E+02
  5.182538E+02
  5.131910E+02
  5.077838E+02
  5.023170E+02
  4.968616E+02
  4.914258E+02
  4.860042E+02
  4.805944E+02
  4.754530E+02
  4.703460E+02
  4.653280E+02
  4.606941E+02
  4.560669E+02
  4.517800E+02
  4.477474E+02
  4.437826E+02
  4.404029E+02
  4.370243E+02
  4.341298E+02
  4.313955E+02
  4.289722E+02
  4.268362E+02
  4.248861E+02
  4.232157E+02
  4.216526E+02
  4.202611E+02
  4.189481E+02
  4.177234E+02
  4.165874E+02
  4.155007E+02
  4.145659E+02
  4.137168E+02
  4.130430E+02
  4.126380E+02
  4.124668E+02
  4.126880E+02
  4.134993E+02
  4.148877E+02
  4.170219E+02
  4.201516E+02
  4.250284E+02
  4.326679E+02
  4.451716E+02
  4.660221E+02
  5.011344E+02
  5.620565E+02
  6.478892E+02
  6.945738E+02
  8.062906E+02
  3.466185E+02
  5.009079E-04
  1.969558E+03
  1.969325E+03
  1.969091E+03
  1.968857E+03
  1.968623E+03
  1.968390E+03
  1.968156E+03
  1.967922E+03
  1.967689E+03
  1.967063E+03
  1.966419E+03
  1.965775E+03
  1.965132E+03
  1.964488E+03
  1.963844E+03
  1.963201E+03
  1.962418E+03
  1.961335E+03
  1.960252E+03
  1.959168E+03
  1.958085E+03
  1.957001E+03
  1.955918E+03
  1.954797E+03
  1.953042E+03
  1.951287E+03
  1.949532E+03
  1.947777E+03
  1.946022E+03
  1.944267E+03
  1.942373E+03
  1.939748E+03
  1.937123E+03
  1.934497E+03
  1.931872E+03
  1.929247E+03
  1.926621E+03
  1.923390E+03
  1.919767E+03
  1.916144E+03
  1.912520E+03
  1.908897E+03
  1.905274E+03
  1.901235E+03
  1.896527E+03
  1.891820E+03
  1.887112E+03
  1.882404E+03
  1.877697E+03
  1.872459E+03
  1.866623E+03
  1.860788E+03
  1.854952E+03
  1.849117E+03
  1.843282E+03
  1.836542E+03
  1.829647E+03
  1.822752E+03
  1.815858E+03
  1.808963E+03
  1.801629E+03
  1.793883E+03
  1.786137E+03
  1.778393E+03
  1.770648E+03
  1.762622E+03
  1.754248E+03
  1.745874E+03
  1.737501E+03
  1.729128E+03
  1.720514E+03
  1.711759E+03
  1.703004E+03
  1.694250E+03
  1.685497E+03
  1.676757E+03
  1.668018E+03
  1.659279E+03
  1.650541E+03
  1.641990E+03
  1.633517E+03
  1.625044E+03
  1.616572E+03
  1.608188E+03
  1.599868E+03
  1.591549E+03
  1.583231E+03
  1.574997E+03
  1.566808E+03
  1.558621E+03
  1.550435E+03
  1.542520E+03
  1.534627E+03
  1.526737E+03
  1.518873E+03
  1.511048E+03
  1.503228E+03
  1.495400E+03
  1.487067E+03
  1.478746E+03
  1.470436E+03
  1.461480E+03
  1.452378E+03
  1.443325E+03
  1.433488E+03
  1.423469E+03
  1.413473E+03
  1.402058E+03
  1.390530E+03
  1.378660E+03
  1.365082E+03
  1.351524E+03
  1.336676E+03
  1.320863E+03
  1.304840E+03
  1.286780E+03
  1.268731E+03
  1.249093E+03
  1.228932E+03
  1.207845E+03
  1.185900E+03
  1.163443E+03
  1.140213E+03
  1.116692E+03
  1.092706E+03
  1.068604E+03
  1.044373E+03
  1.020311E+03
  9.963412E+02
  9.730836E+02
  9.502486E+02
  9.283122E+02
  9.076344E+02
  8.879475E+02
  8.698390E+02
  8.537492E+02
  8.393680E+02
  8.270038E+02
  8.170874E+02
  8.112391E+02
  8.120995E+02
  8.256833E+02
  8.624638E+02
  9.388460E+02
  1.080686E+03
  1.274785E+03
  1.342459E+03
  1.414079E+03
 -7.889810E+01
  2.821972E-09
  1.237088E+00
  1.236910E+00
  1.236731E+00
  1.236552E+00
  1.236373E+00
  1.236195E+00
  1.236016E+00
  1.235837E+00
  1.235659E+00
  1.235162E+00
  1.234652E+00
  1.234141E+00
  1.233630E+00
  1.233119E+00
  1.232609E+00
  1.232098E+00
  1.231494E+00
  1.230686E+00
  1.229879E+00
  1.229072E+00
  1.228264E+00
  1.227457E+00
  1.226649E+00
  1.225824E+00
  1.224685E+00
  1.223546E+00
  1.222407E+00
  1.221269E+00
  1.220130E+00
  1.218991E+00
  1.217794E+00
  1.216289E+00
  1.214784E+00
  1.213279E+00
  1.211774E+00
  1.210269E+00
  1.208764E+00
  1.207024E+00
  1.205133E+00
  1.203241E+00
  1.201349E+00
  1.199457E+00
  1.197566E+00
  1.195521E+00
  1.193229E+00
  1.190938E+00
  1.188646E+00
  1.186354E+00
  1.184063E+00
  1.181577E+00
  1.178871E+00
  1.176166E+00
  1.173461E+00
  1.170755E+00
  1.168050E+00
  1.164984E+00
  1.161855E+00
  1.158726E+00
  1.155597E+00
  1.152469E+00
  1.149123E+00
  1.145575E+00
  1.142026E+00
  1.138478E+00
  1.134930E+00
  1.131198E+00
  1.127237E+00
  1.123276E+00
  1.119316E+00
  1.115355E+00
  1.111136E+00
  1.106765E+00
  1.102394E+00
  1.098024E+00
  1.093631E+00
  1.088854E+00
  1.084078E+00
  1.079302E+00
  1.074526E+00
  1.069466E+00
  1.064289E+00
  1.059112E+00
  1.053936E+00
  1.048530E+00
  1.042958E+00
  1.037386E+00
  1.031815E+00
  1.025999E+00
  1.020056E+00
  1.014113E+00
  1.008171E+00
  1.001913E+00
  9.956323E-01
  9.893526E-01
  9.829423E-01
  9.763285E-01
  9.697163E-01
  9.630963E-01
  9.561424E-01
  9.491918E-01
  9.422446E-01
  9.350324E-01
  9.277713E-01
  9.205154E-01
  9.129890E-01
  9.053987E-01
  8.978148E-01
  8.898420E-01
  8.818384E-01
  8.737533E-01
  8.652578E-01
  8.567683E-01
  8.479765E-01
  8.389593E-01
  8.298925E-01
  8.203363E-01
  8.107842E-01
  8.008330E-01
  7.907515E-01
  7.804085E-01
  7.698239E-01
  7.590470E-01
  7.479802E-01
  7.367367E-01
  7.252111E-01
  7.134875E-01
  7.015431E-01
  6.893510E-01
  6.770295E-01
  6.643919E-01
  6.516433E-01
  6.386792E-01
  6.255156E-01
  6.122138E-01
  5.987174E-01
  5.849969E-01
  5.710919E-01
  5.569818E-01
  5.426551E-01
  5.281832E-01
  5.140489E-01
  5.012776E-01
  4.915669E-01
  4.878975E-01
  4.968914E-01
  5.147243E-01
  4.912513E-01
  5.128594E-01
  1.471883E-01
  2.527132E-07
  1.109991E+00
  1.109849E+00
  1.109707E+00
  1.109566E+00
  1.109424E+00
  1.109282E+00
  1.109140E+00
  1.108999E+00
  1.108857E+00
  1.108643E+00
  1.108425E+00
  1.108208E+00
  1.107991E+00
  1.107773E+00
  1.107556E+00
  1.107339E+00
  1.107166E+00
  1.107090E+00
  1.107014E+00
  1.106938E+00
  1.106862E+00
  1.106786E+00
  1.106710E+00
  1.106636E+00
  1.106588E+00
  1.106541E+00
  1.106493E+00
  1.106445E+00
  1.106398E+00
  1.106350E+00
  1.106288E+00
  1.106151E+00
  1.106014E+00
  1.105877E+00
  1.105740E+00
  1.105603E+00
  1.105466E+00
  1.105269E+00
  1.105032E+00
  1.104795E+00
  1.104559E+00
  1.104323E+00
  1.104086E+00
  1.103826E+00
  1.103527E+00
  1.103229E+00
  1.102930E+00
  1.102632E+00
  1.102334E+00
  1.102002E+00
  1.101633E+00
  1.101264E+00
  1.100895E+00
  1.100527E+00
  1.100159E+00
  1.099668E+00
  1.099157E+00
  1.098646E+00
  1.098136E+00
  1.097626E+00
  1.096996E+00
  1.096254E+00
  1.095513E+00
  1.094773E+00
  1.094033E+00
  1.093119E+00
  1.091988E+00
  1.090858E+00
  1.089729E+00
  1.088600E+00
  1.087080E+00
  1.085332E+00
  1.083584E+00
  1.081837E+00
  1.080046E+00
  1.077518E+00
  1.074990E+00
  1.072462E+00
  1.069933E+00
  1.066751E+00
  1.063300E+00
  1.059849E+00
  1.056398E+00
  1.052310E+00
  1.047761E+00
  1.043212E+00
  1.038663E+00
  1.033373E+00
  1.027698E+00
  1.022023E+00
  1.016348E+00
  1.009689E+00
  1.002960E+00
  9.962324E-01
  9.890237E-01
  9.810664E-01
  9.731159E-01
  9.651352E-01
  9.558589E-01
  9.465972E-01
  9.373500E-01
  9.274735E-01
  9.174884E-01
  9.075241E-01
  8.975955E-01
  8.876929E-01
  8.778119E-01
  8.684210E-01
  8.590930E-01
  8.499276E-01
  8.414637E-01
  8.330121E-01
  8.251820E-01
  8.178163E-01
  8.105747E-01
  8.044015E-01
  7.982305E-01
  7.929437E-01
  7.879494E-01
  7.835233E-01
  7.796218E-01
  7.760599E-01
  7.730088E-01
  7.701539E-01
  7.676123E-01
  7.652140E-01
  7.629771E-01
  7.609023E-01
  7.589174E-01
  7.572100E-01
  7.556590E-01
  7.544284E-01
  7.536886E-01
  7.533758E-01
  7.537799E-01
  7.552618E-01
  7.577978E-01
  7.616959E-01
  7.674123E-01
  7.763199E-01
  7.902735E-01
  8.131117E-01
  8.511953E-01
  9.153284E-01
  1.026603E+00
  1.183378E+00
  1.268648E+00
  1.472700E+00
  6.331031E-01
  9.149147E-07
  1.247672E+00
  1.247524E+00
  1.247376E+00
  1.247227E+00
  1.247079E+00
  1.246931E+00
  1.246783E+00
  1.246635E+00
  1.246487E+00
  1.246091E+00
  1.245683E+00
  1.245275E+00
  1.244867E+00
  1.244460E+00
  1.244052E+00
  1.243644E+00
  1.243149E+00
  1.242462E+00
  1.241776E+00
  1.241090E+00
  1.240403E+00
  1.239717E+00
  1.239031E+00
  1.238321E+00
  1.237209E+00
  1.236097E+00
  1.234986E+00
  1.233874E+00
  1.232762E+00
  1.231650E+00
  1.230451E+00
  1.228788E+00
  1.227124E+00
  1.225461E+00
  1.223798E+00
  1.222135E+00
  1.220472E+00
  1.218425E+00
  1.216130E+00
  1.213835E+00
  1.211539E+00
  1.209244E+00
  1.206949E+00
  1.204390E+00
  1.201408E+00
  1.198426E+00
  1.195444E+00
  1.192462E+00
  1.189479E+00
  1.186161E+00
  1.182464E+00
  1.178768E+00
  1.175071E+00
  1.171375E+00
  1.167678E+00
  1.163409E+00
  1.159041E+00
  1.154673E+00
  1.150306E+00
  1.145938E+00
  1.141292E+00
  1.136385E+00
  1.131479E+00
  1.126572E+00
  1.121666E+00
  1.116582E+00
  1.111277E+00
  1.105973E+00
  1.100668E+00
  1.095364E+00
  1.089908E+00
  1.084361E+00
  1.078815E+00
  1.073270E+00
  1.067725E+00
  1.062189E+00
  1.056653E+00
  1.051117E+00
  1.045581E+00
  1.040165E+00
  1.034797E+00
  1.029430E+00
  1.024062E+00
  1.018751E+00
  1.013481E+00
  1.008211E+00
  1.002942E+00
  9.977258E-01
  9.925383E-01
  9.873517E-01
  9.821661E-01
  9.771520E-01
  9.721523E-01
  9.671543E-01
  9.621722E-01
  9.572153E-01
  9.522619E-01
  9.473029E-01
  9.420241E-01
  9.367528E-01
  9.314889E-01
  9.258150E-01
  9.200495E-01
  9.143147E-01
  9.080831E-01
  9.017363E-01
  8.954036E-01
  8.881726E-01
  8.808699E-01
  8.733504E-01
  8.647491E-01
  8.561607E-01
  8.467547E-01
  8.367377E-01
  8.265870E-01
  8.151465E-01
  8.037130E-01
  7.912728E-01
  7.785011E-01
  7.651429E-01
  7.512415E-01
  7.370152E-01
  7.222996E-01
  7.073995E-01
  6.922051E-01
  6.769370E-01
  6.615869E-01
  6.463445E-01
  6.311601E-01
  6.164270E-01
  6.019615E-01
  5.880652E-01
  5.749663E-01
  5.624951E-01
  5.510238E-01
  5.408312E-01
  5.317210E-01
  5.238886E-01
  5.176068E-01
  5.139020E-01
  5.144471E-01
  5.230521E-01
  5.463517E-01
  5.947381E-01
  6.845910E-01
  8.075481E-01
  8.504178E-01
  8.957879E-01
 -4.998020E-02
  1.787657E-12
  9.750776E-01
  9.749367E-01
  9.747959E-01
  9.746550E-01
  9.745141E-01
  9.743733E-01
  9.742324E-01
  9.740916E-01
  9.739507E-01
  9.735596E-01
  9.731570E-01
  9.727545E-01
  9.723519E-01
  9.719494E-01
  9.715468E-01
  9.711442E-01
  9.706680E-01
  9.700316E-01
  9.693952E-01
  9.687588E-01
  9.681224E-01
  9.674860E-01
  9.668496E-01
  9.661988E-01
  9.653012E-01
  9.644036E-01
  9.635060E-01
  9.626084E-01
  9.617108E-01
  9.608133E-01
  9.598698E-01
  9.586835E-01
  9.574971E-01
  9.563108E-01
  9.551245E-01
  9.539382E-01
  9.527519E-01
  9.513805E-01
  9.498894E-01
  9.483983E-01
  9.469072E-01
  9.454161E-01
  9.439251E-01
  9.423131E-01
  9.405067E-01
  9.387003E-01
  9.368939E-01
  9.350876E-01
  9.332813E-01
  9.313215E-01
  9.291889E-01
  9.270564E-01
  9.249239E-01
  9.227916E-01
  9.206593E-01
  9.182418E-01
  9.157753E-01
  9.133090E-01
  9.108429E-01
  9.083768E-01
  9.057396E-01
  9.029424E-01
  9.001454E-01
  8.973485E-01
  8.945519E-01
  8.916096E-01
  8.884873E-01
  8.853653E-01
  8.822434E-01
  8.791218E-01
  8.757957E-01
  8.723502E-01
  8.689050E-01
  8.654599E-01
  8.619972E-01
  8.582321E-01
  8.544671E-01
  8.507024E-01
  8.469378E-01
  8.429489E-01
  8.388683E-01
  8.347879E-01
  8.307078E-01
  8.264466E-01
  8.220547E-01
  8.176631E-01
  8.132719E-01
  8.086878E-01
  8.040037E-01
  7.993200E-01
  7.946367E-01
  7.897048E-01
  7.847552E-01
  7.798061E-01
  7.747543E-01
  7.695421E-01
  7.643313E-01
  7.591141E-01
  7.536339E-01
  7.481562E-01
  7.426809E-01
  7.369966E-01
  7.312733E-01
  7.255536E-01
  7.196205E-01
  7.136368E-01
  7.076578E-01
  7.013723E-01
  6.950623E-01
  6.886880E-01
  6.819903E-01
  6.752973E-01
  6.683663E-01
  6.612578E-01
  6.541103E-01
  6.465776E-01
  6.390482E-01
  6.312048E-01
  6.232589E-01
  6.151073E-01
  6.067654E-01
  5.982723E-01
  5.895509E-01
  5.806902E-01
  5.716073E-01
  5.623682E-01
  5.529551E-01
  5.433465E-01
  5.336358E-01
  5.236756E-01
  5.136278E-01
  5.034098E-01
  4.930339E-01
  4.825487E-01
  4.719099E-01
  4.610941E-01
  4.501325E-01
  4.390091E-01
  4.277147E-01
  4.163057E-01
  4.051625E-01
  3.950934E-01
  3.874364E-01
  3.845407E-01
  3.916253E-01
  4.056758E-01
  3.871710E-01
  4.041958E-01
  1.351390E-01
  3.991147E-02
  5.380707E-02
  5.380020E-02
  5.379333E-02
  5.378646E-02
  5.377959E-02
  5.377272E-02
  5.376584E-02
  5.375897E-02
  5.375210E-02
  5.374173E-02
  5.373119E-02
  5.372065E-02
  5.371011E-02
  5.369958E-02
  5.368904E-02
  5.367850E-02
  5.367013E-02
  5.366645E-02
  5.366277E-02
  5.365909E-02
  5.365541E-02
  5.365173E-02
  5.364805E-02
  5.364445E-02
  5.364214E-02
  5.363983E-02
  5.363752E-02
  5.363521E-02
  5.363290E-02
  5.363059E-02
  5.362759E-02
  5.362094E-02
  5.361429E-02
  5.360764E-02
  5.360100E-02
  5.359435E-02
  5.358771E-02
  5.357813E-02
  5.356666E-02
  5.355519E-02
  5.354372E-02
  5.353226E-02
  5.352080E-02
  5.350818E-02
  5.349369E-02
  5.347921E-02
  5.346474E-02
  5.345028E-02
  5.343582E-02
  5.341974E-02
  5.340183E-02
  5.338393E-02
  5.336605E-02
  5.334820E-02
  5.333035E-02
  5.330654E-02
  5.328173E-02
  5.325695E-02
  5.323220E-02
  5.320748E-02
  5.317693E-02
  5.314096E-02
  5.310502E-02
  5.306912E-02
  5.303326E-02
  5.298892E-02
  5.293409E-02
  5.287930E-02
  5.282454E-02
  5.276981E-02
  5.269613E-02
  5.261137E-02
  5.252663E-02
  5.244190E-02
  5.235507E-02
  5.223252E-02
  5.210996E-02
  5.198739E-02
  5.186482E-02
  5.171053E-02
  5.154324E-02
  5.137594E-02
  5.120862E-02
  5.101044E-02
  5.078994E-02
  5.056943E-02
  5.034891E-02
  5.009249E-02
  4.981740E-02
  4.954232E-02
  4.926726E-02
  4.894452E-02
  4.861835E-02
  4.829228E-02
  4.794288E-02
  4.755721E-02
  4.717186E-02
  4.678504E-02
  4.633542E-02
  4.588651E-02
  4.543828E-02
  4.495954E-02
  4.447550E-02
  4.399245E-02
  4.351111E-02
  4.303102E-02
  4.255196E-02
  4.209665E-02
  4.164438E-02
  4.119999E-02
  4.078961E-02
  4.037982E-02
  4.000018E-02
  3.964306E-02
  3.929196E-02
  3.899268E-02
  3.869351E-02
  3.843724E-02
  3.819516E-02
  3.798064E-02
  3.779157E-02
  3.761898E-02
  3.747116E-02
  3.733286E-02
  3.720975E-02
  3.709358E-02
  3.698524E-02
  3.688475E-02
  3.678861E-02
  3.670590E-02
  3.663076E-02
  3.657113E-02
  3.653525E-02
  3.652004E-02
  3.653955E-02
  3.661129E-02
  3.673409E-02
  3.692289E-02
  3.719980E-02
  3.763137E-02
  3.830749E-02
  3.941424E-02
  4.125993E-02
  4.436823E-02
  4.976149E-02
  5.736002E-02
  6.149244E-02
  7.138210E-02
  3.574895E-02
  8.886523E-03
  1.743860E-01
  1.743653E-01
  1.743446E-01
  1.743239E-01
  1.743032E-01
  1.742825E-01
  1.742618E-01
  1.742411E-01
  1.742204E-01
  1.741650E-01
  1.741080E-01
  1.740510E-01
  1.739940E-01
  1.739370E-01
  1.738801E-01
  1.738231E-01
  1.737538E-01
  1.736579E-01
  1.735620E-01
  1.734660E-01
  1.733701E-01
  1.732742E-01
  1.731783E-01
  1.730790E-01
  1.729236E-01
  1.727682E-01
  1.726128E-01
  1.724574E-01
  1.723020E-01
  1.721466E-01
  1.719790E-01
  1.717465E-01
  1.715141E-01
  1.712816E-01
  1.710491E-01
  1.708167E-01
  1.705842E-01
  1.702981E-01
  1.699773E-01
  1.696565E-01
  1.693357E-01
  1.690149E-01
  1.686941E-01
  1.683364E-01
  1.679196E-01
  1.675028E-01
  1.670859E-01
  1.666691E-01
  1.662522E-01
  1.657884E-01
  1.652717E-01
  1.647550E-01
  1.642383E-01
  1.637216E-01
  1.632050E-01
  1.626082E-01
  1.619977E-01
  1.613871E-01
  1.607767E-01
  1.601662E-01
  1.595168E-01
  1.588309E-01
  1.581451E-01
  1.574593E-01
  1.567736E-01
  1.560629E-01
  1.553214E-01
  1.545799E-01
  1.538385E-01
  1.530972E-01
  1.523344E-01
  1.515592E-01
  1.507840E-01
  1.500089E-01
  1.492338E-01
  1.484600E-01
  1.476862E-01
  1.469124E-01
  1.461387E-01
  1.453815E-01
  1.446313E-01
  1.438811E-01
  1.431309E-01
  1.423885E-01
  1.416519E-01
  1.409153E-01
  1.401788E-01
  1.394499E-01
  1.387249E-01
  1.380000E-01
  1.372752E-01
  1.365746E-01
  1.358759E-01
  1.351774E-01
  1.344812E-01
  1.337885E-01
  1.330963E-01
  1.324033E-01
  1.316657E-01
  1.309291E-01
  1.301934E-01
  1.294005E-01
  1.285946E-01
  1.277930E-01
  1.269218E-01
  1.260346E-01
  1.251492E-01
  1.241383E-01
  1.231174E-01
  1.220661E-01
  1.208636E-01
  1.196629E-01
  1.183480E-01
  1.169478E-01
  1.155289E-01
  1.139298E-01
  1.123316E-01
  1.105929E-01
  1.088079E-01
  1.069410E-01
  1.049982E-01
  1.030100E-01
  1.009535E-01
  9.887119E-02
  9.674775E-02
  9.461400E-02
  9.246879E-02
  9.033858E-02
  8.821647E-02
  8.615738E-02
  8.413565E-02
  8.219344E-02
  8.036257E-02
  7.861937E-02
  7.701588E-02
  7.559107E-02
  7.431749E-02
  7.322245E-02
  7.234410E-02
  7.182587E-02
  7.190156E-02
  7.310367E-02
  7.635946E-02
  8.312129E-02
  9.567824E-02
  1.128614E-01
  1.188514E-01
  1.251905E-01
 -8.137259E-03
  5.006414E-08
  9.752684E-01
  9.751275E-01
  9.749866E-01
  9.748458E-01
  9.747049E-01
  9.745641E-01
  9.744232E-01
  9.742824E-01
  9.741415E-01
  9.737504E-01
  9.733479E-01
  9.729453E-01
  9.725428E-01
  9.721402E-01
  9.717377E-01
  9.713352E-01
  9.708591E-01
  9.702228E-01
  9.695865E-01
  9.689502E-01
  9.683139E-01
  9.676777E-01
  9.670414E-01
  9.663906E-01
  9.654933E-01