 Title = "ADflow Slice Data"
Variables =  "CoordinateX"  "CoordinateY"  "CoordinateZ"  "XoC"  "YoC"  "ZoC" "VelocityX" "VelocityY" "VelocityZ" "CoefPressure" "Mach" 
Zone T= "Slice_0001 None Relative Regular z = 0.10000000"
 Nodes =          116  Elements=          112  ZONETYPE=FELINESEG
 DATAPACKING=POINT
  9.900000E-01  2.112110E-03  1.000000E-01  9.999397E-01 -9.890643E-03  5.608740E-17  1.221839E-02 -7.621456E-03 -7.370213E-04 -1.034815E-02  0.000000E+00
  9.845260E-01  3.435769E-03  1.000000E-01  9.944088E-01 -8.553242E-03  7.010925E-17  1.654376E-02 -3.972587E-03 -6.158756E-04  4.931206E-02  0.000000E+00
  9.783536E-01  4.907965E-03  1.000000E-01  9.881724E-01 -7.065764E-03  1.402185E-17  1.421642E-02 -3.217000E-03 -5.780953E-04  2.431855E-02  0.000000E+00
  9.713889E-01  6.472828E-03  1.000000E-01  9.811354E-01 -5.484657E-03  7.010925E-17  1.204317E-02 -2.647230E-03 -5.592708E-04  1.408701E-02  0.000000E+00
  9.635599E-01  8.199492E-03  1.000000E-01  9.732251E-01 -3.740069E-03  0.000000E+00  1.126178E-02 -2.403009E-03 -5.583720E-04 -1.572083E-03  0.000000E+00
  9.547713E-01  1.007569E-02  1.000000E-01  9.643453E-01 -1.844393E-03  5.608740E-17  1.157212E-02 -2.395146E-03 -5.715120E-04 -1.653530E-02  0.000000E+00
  9.449291E-01  1.211790E-02  1.000000E-01  9.544009E-01  2.190167E-04  1.402185E-17  1.235190E-02 -2.487861E-03 -5.910190E-04 -3.233601E-02  0.000000E+00
  9.339353E-01  1.434199E-02  1.000000E-01  9.432930E-01  2.466196E-03  9.815295E-17  1.322177E-02 -2.591121E-03 -6.120908E-04 -4.840894E-02  0.000000E+00
  9.216870E-01  1.674876E-02  1.000000E-01  9.309176E-01  4.897949E-03  5.608740E-17  1.401423E-02 -2.667555E-03 -6.322754E-04 -6.425172E-02  0.000000E+00
  9.080826E-01  1.934478E-02  1.000000E-01  9.171719E-01  7.520916E-03  1.402185E-17  1.467059E-02 -2.714522E-03 -6.500079E-04 -8.020038E-02  0.000000E+00
  8.930237E-01  2.214212E-02  1.000000E-01  9.019566E-01  1.034730E-02  5.608740E-17  1.517603E-02 -2.730585E-03 -6.638779E-04 -9.518807E-02  0.000000E+00
  8.764155E-01  2.513891E-02  1.000000E-01  8.851761E-01  1.337520E-02  0.000000E+00  1.551599E-02 -2.723814E-03 -6.725631E-04 -1.093157E-01  0.000000E+00
  8.581774E-01  2.836290E-02  1.000000E-01  8.667487E-01  1.663265E-02  4.907648E-16  1.569212E-02 -2.707502E-03 -6.750179E-04 -1.233013E-01  0.000000E+00
  8.382414E-01  3.183639E-02  1.000000E-01  8.466057E-01  2.014219E-02  4.486992E-16  1.573631E-02 -2.691309E-03 -6.705229E-04 -1.374988E-01  0.000000E+00
  8.165597E-01  3.559707E-02  1.000000E-01  8.246990E-01  2.394191E-02  5.608740E-17  1.570952E-02 -2.692223E-03 -6.586805E-04 -1.535179E-01  0.000000E+00
  7.931090E-01  3.969119E-02  1.000000E-01  8.010048E-01  2.807854E-02  1.402185E-17  1.571819E-02 -2.728899E-03 -6.393350E-04 -1.731240E-01  0.000000E+00
  7.678944E-01  4.416538E-02  1.000000E-01  7.755285E-01  3.259917E-02  2.804370E-17  1.591448E-02 -2.822760E-03 -6.123024E-04 -1.987185E-01  0.000000E+00
  7.409532E-01  4.905196E-02  1.000000E-01  7.483075E-01  3.753648E-02  4.907648E-16  1.649110E-02 -2.996779E-03 -5.766769E-04 -2.341733E-01  0.000000E+00
  7.123572E-01  5.434569E-02  1.000000E-01  7.194148E-01  4.288516E-02  5.608740E-17  1.765821E-02 -3.265446E-03 -5.296926E-04 -2.845072E-01  0.000000E+00
  6.822143E-01  5.997077E-02  1.000000E-01  6.889590E-01  4.856864E-02  5.608740E-17  1.958814E-02 -3.608505E-03 -4.659557E-04 -3.518097E-01  0.000000E+00
  6.506675E-01  6.573695E-02  1.000000E-01  6.570846E-01  5.439468E-02  2.804370E-17  2.232733E-02 -3.943348E-03 -3.783669E-04 -4.306834E-01  0.000000E+00
  6.178953E-01  7.133206E-02  1.000000E-01  6.239723E-01  6.004787E-02 -2.804370E-17  2.570007E-02 -4.163028E-03 -2.621967E-04 -5.133644E-01  0.000000E+00
  5.841133E-01  7.648859E-02  1.000000E-01  5.898396E-01  6.525792E-02  2.804370E-17  2.935458E-02 -4.188967E-03 -1.195777E-04 -5.945112E-01  0.000000E+00
  5.495706E-01  8.101809E-02  1.000000E-01  5.549383E-01  6.983444E-02  9.815295E-17  3.293507E-02 -3.986624E-03  3.909712E-05 -6.699629E-01  0.000000E+00
  5.145480E-01  8.481117E-02  1.000000E-01  5.195521E-01  7.366690E-02  2.804370E-17  3.620237E-02 -3.572480E-03  1.971491E-04 -7.370983E-01  0.000000E+00
  4.793451E-01  8.782486E-02  1.000000E-01  4.839838E-01  7.671187E-02  2.804370E-17  3.905113E-02 -2.998138E-03  3.358375E-04 -7.953678E-01  0.000000E+00
  4.442686E-01  9.007101E-02  1.000000E-01  4.485432E-01  7.898134E-02 -4.206555E-17  4.149412E-02 -2.325229E-03  4.388905E-04 -8.475569E-01  0.000000E+00
  4.096206E-01  9.159687E-02  1.000000E-01  4.135355E-01  8.052304E-02  7.010925E-17  4.367669E-02 -1.600198E-03  4.963918E-04 -9.005227E-01  0.000000E+00
  3.756882E-01  9.246063E-02  1.000000E-01  3.792508E-01  8.139576E-02  2.804370E-17  4.585839E-02 -8.309131E-04  5.069384E-04 -9.624972E-01  0.000000E+00
  3.427351E-01  9.270996E-02  1.000000E-01  3.459557E-01  8.164768E-02  2.804370E-17  4.837150E-02  7.852639E-05  4.784642E-04 -1.033255E+00  0.000000E+00
  3.109952E-01  9.229164E-02  1.000000E-01  3.138863E-01  8.122502E-02  0.000000E+00  5.140289E-02  1.280186E-03  4.248298E-04 -1.102834E+00  0.000000E+00
  2.806675E-01  9.113183E-02  1.000000E-01  2.832438E-01  8.005317E-02 -2.804370E-17  5.476570E-02  2.825688E-03  3.596441E-04 -1.161754E+00  0.000000E+00
  2.519134E-01  8.923118E-02  1.000000E-01  2.541912E-01  7.813279E-02  4.907648E-16  5.804794E-02  4.672851E-03  2.937282E-04 -1.203359E+00  0.000000E+00
  2.248544E-01  8.663738E-02  1.000000E-01  2.268513E-01  7.551207E-02 -4.206555E-17  6.084490E-02  6.717464E-03  2.342494E-04 -1.224446E+00  0.000000E+00
  1.995702E-01  8.345434E-02  1.000000E-01  2.013046E-01  7.229598E-02  9.815295E-17  6.292943E-02  8.857254E-03  1.846503E-04 -1.224165E+00  0.000000E+00
  1.761037E-01  7.977885E-02  1.000000E-01  1.775945E-01  6.858234E-02  4.486992E-16  6.420580E-02  1.094402E-02  1.451856E-04 -1.206974E+00  0.000000E+00
  1.544558E-01  7.576486E-02  1.000000E-01  1.557219E-01  6.452669E-02  4.206555E-16  6.476655E-02  1.290000E-02  1.144697E-04 -1.177602E+00  0.000000E+00
  1.346015E-01  7.151464E-02  1.000000E-01  1.356615E-01  6.023234E-02  5.608740E-17  6.481974E-02  1.474178E-02  9.089232E-05 -1.138648E+00  0.000000E+00
  1.164884E-01  6.713149E-02  1.000000E-01  1.173604E-01  5.580369E-02  1.402185E-17  6.448016E-02  1.641817E-02  7.269688E-05 -1.096987E+00  0.000000E+00
  1.000416E-01  6.271607E-02  1.000000E-01  1.007428E-01  5.134243E-02  2.804370E-17  6.390178E-02  1.796899E-02  5.849180E-05 -1.056338E+00  0.000000E+00
  8.517641E-02  5.832947E-02  1.000000E-01  8.572331E-02  4.691030E-02  2.804370E-17  6.321328E-02  1.948428E-02  4.727889E-05 -1.016449E+00  0.000000E+00
  7.179882E-02  5.401567E-02  1.000000E-01  7.220686E-02  4.255172E-02  1.402185E-17  6.244501E-02  2.102950E-02  3.834944E-05 -9.751235E-01  0.000000E+00
  5.981409E-02  4.979468E-02  1.000000E-01  6.009772E-02  3.828691E-02  5.608740E-17  6.150572E-02  2.253812E-02  3.118028E-05 -9.341692E-01  0.000000E+00
  4.911567E-02  4.570981E-02  1.000000E-01  4.928824E-02  3.415964E-02  2.804370E-17  6.034674E-02  2.401444E-02  2.538046E-05 -8.942884E-01  0.000000E+00
  3.960719E-02  4.176199E-02  1.000000E-01  3.968106E-02  3.017083E-02  2.804370E-17  5.894127E-02  2.555305E-02  2.065030E-05 -8.561482E-01  0.000000E+00
  3.119584E-02  3.794925E-02  1.000000E-01  3.118238E-02  2.631851E-02  8.413110E-17  5.717532E-02  2.712931E-02  1.667257E-05 -8.280612E-01  0.000000E+00
  2.379252E-02  3.426538E-02  1.000000E-01  2.370222E-02  2.259640E-02  0.000000E+00  5.506934E-02  2.876295E-02  1.323155E-05 -8.083906E-01  0.000000E+00
  1.731190E-02  3.071080E-02  1.000000E-01  1.715432E-02  1.900492E-02 -7.010925E-17  5.266152E-02  3.091273E-02  1.036320E-05 -7.559430E-01  0.000000E+00
  1.171490E-02  2.720520E-02  1.000000E-01  1.149922E-02  1.546294E-02  9.815295E-17  4.914184E-02  3.377086E-02  8.190871E-06 -6.521817E-01  0.000000E+00
  7.008801E-03  2.364673E-02  1.000000E-01  6.744269E-03  1.186752E-02  2.804370E-17  4.350475E-02  3.544477E-02  6.522708E-06 -6.398814E-01  0.000000E+00
  9.900000E-01  1.031137E-03  1.000000E-01  9.999397E-01 -1.098284E-02  1.402185E-17  1.727357E-02 -3.780934E-03  9.580646E-05  1.639923E-02  0.000000E+00
  9.900000E-01  1.127492E-03  1.000000E-01  9.999397E-01 -1.088548E-02  2.804370E-17  6.291715E-03 -3.099512E-02 -1.009836E-03 -1.163820E-01  0.000000E+00
  9.900000E-01  1.273352E-03  1.000000E-01  9.999397E-01 -1.073811E-02  4.206555E-17  7.302977E-04 -5.927085E-02 -2.174145E-03 -7.091579E-02  0.000000E+00
  9.900000E-01  1.465626E-03  1.000000E-01  9.999397E-01 -1.054384E-02  1.402185E-17 -1.331064E-03 -3.230813E-02 -2.066171E-03 -2.164462E-02  0.000000E+00
  9.900000E-01  1.677620E-03  1.000000E-01  9.999397E-01 -1.032964E-02  2.804370E-17 -1.047038E-03  1.808416E-02 -1.107448E-03 -3.286496E-02  0.000000E+00
  9.900000E-01  1.869895E-03  1.000000E-01  9.999397E-01 -1.013537E-02  2.804370E-17  8.275937E-04  3.286288E-02 -4.916590E-04 -8.216074E-02  0.000000E+00
  9.900000E-01  2.015755E-03  1.000000E-01  9.999397E-01 -9.987997E-03  0.000000E+00  4.593249E-03  7.393648E-03 -6.202414E-04 -1.033224E-01  0.000000E+00
  9.900000E-01  2.112110E-03  1.000000E-01  9.999397E-01 -9.890643E-03  7.010925E-17  1.221839E-02 -7.621456E-03 -7.370213E-04 -1.034815E-02  0.000000E+00
  7.008801E-03  6.418065E-03  1.000000E-01  6.744269E-03 -5.539988E-03  9.815295E-17  1.789148E-02 -6.289047E-03  1.381805E-06  5.880565E-01  0.000000E+00
  1.220231E-02  4.824450E-03  1.000000E-01  1.199169E-02 -7.150146E-03  2.804370E-17  2.365527E-02 -5.680550E-03  1.206286E-06  5.773460E-01  0.000000E+00
  1.825510E-02  3.662028E-03  1.000000E-01  1.810732E-02 -8.324635E-03  9.815295E-17  2.812301E-02 -4.391761E-03  7.427912E-07  4.288732E-01  0.000000E+00
  2.517288E-02  2.820754E-03  1.000000E-01  2.509691E-02 -9.174642E-03  7.010925E-17  3.089030E-02 -2.979894E-03 -7.517151E-08  3.483917E-01  0.000000E+00
  3.300629E-02  2.250494E-03  1.000000E-01  3.301163E-02 -9.750822E-03  2.804370E-17  3.236031E-02 -1.694561E-03 -1.323247E-06  3.157265E-01  0.000000E+00
  4.183175E-02  1.958694E-03  1.000000E-01  4.192871E-02 -1.004565E-02  1.402185E-17  3.283165E-02 -6.499852E-04 -3.088107E-06  2.930224E-01  0.000000E+00
  5.172748E-02  1.892253E-03  1.000000E-01  5.192716E-02 -1.011278E-02  0.000000E+00  3.261480E-02  1.106250E-04 -5.439423E-06  2.786844E-01  0.000000E+00
  6.278438E-02  2.040579E-03  1.000000E-01  6.309884E-02 -9.962916E-03  9.815295E-17  3.192762E-02  7.092736E-04 -8.415542E-06  2.684965E-01  0.000000E+00
  7.509844E-02  2.423589E-03  1.000000E-01  7.554073E-02 -9.575930E-03  7.010925E-17  3.097676E-02  1.152901E-03 -1.212156E-05  2.638536E-01  0.000000E+00
  8.876407E-02  3.017920E-03  1.000000E-01  8.934822E-02 -8.975429E-03  9.815295E-17  2.995942E-02  1.417619E-03 -1.668838E-05  2.661375E-01  0.000000E+00
  1.038747E-01  3.790668E-03  1.000000E-01  1.046157E-01 -8.194660E-03  2.804370E-17  2.894766E-02  1.572785E-03 -2.222372E-05  2.697068E-01  0.000000E+00
  1.205193E-01  4.748935E-03  1.000000E-01  1.214331E-01 -7.226445E-03  7.010925E-17  2.799392E-02  1.642775E-03 -2.893699E-05  2.739428E-01  0.000000E+00
  1.387771E-01  5.842260E-03  1.000000E-01  1.398805E-01 -6.121771E-03  4.627211E-16  2.716901E-02  1.620671E-03 -3.713306E-05  2.801182E-01  0.000000E+00
  1.587145E-01  7.027870E-03  1.000000E-01  1.600248E-01 -4.923853E-03  5.047866E-16  2.650626E-02  1.534989E-03 -4.721753E-05  2.855571E-01  0.000000E+00
  1.803796E-01  8.251182E-03  1.000000E-01  1.819148E-01 -3.687842E-03  5.608740E-17  2.603912E-02  1.400674E-03 -5.980962E-05  2.891797E-01  0.000000E+00
  2.037979E-01  9.453315E-03  1.000000E-01  2.055762E-01 -2.473230E-03  2.804370E-17  2.579617E-02  1.232278E-03 -7.570323E-05  2.902377E-01  0.000000E+00
  2.289667E-01  1.057517E-02  1.000000E-01  2.310062E-01 -1.339733E-03 -4.206555E-17  2.578016E-02  1.048915E-03 -9.567346E-05  2.877889E-01  0.000000E+00
  2.558504E-01  1.157997E-02  1.000000E-01  2.581691E-01 -3.244983E-04  4.206555E-16  2.594686E-02  8.742734E-04 -1.200613E-04  2.812021E-01  0.000000E+00
  2.843771E-01  1.245993E-02  1.000000E-01  2.869919E-01  5.645912E-04  0.000000E+00  2.619265E-02  7.384157E-04 -1.480925E-04  2.705989E-01  0.000000E+00
  3.144350E-01  1.326226E-02  1.000000E-01  3.173618E-01  1.375253E-03  5.608740E-17  2.636533E-02  6.758469E-04 -1.771801E-04  2.574238E-01  0.000000E+00
  3.458716E-01  1.408354E-02  1.000000E-01  3.491247E-01  2.205056E-03  2.804370E-17  2.629561E-02  7.208517E-04 -2.025330E-04  2.437024E-01  0.000000E+00
  3.784939E-01  1.508881E-02  1.000000E-01  3.820857E-01  3.220765E-03  9.815295E-17  2.588252E-02  8.544344E-04 -2.181188E-04  2.335578E-01  0.000000E+00
  4.120730E-01  1.636645E-02  1.000000E-01  4.160133E-01  4.511666E-03  0.000000E+00  2.516354E-02  9.858000E-04 -2.186752E-04  2.324892E-01  0.000000E+00
  4.463507E-01  1.786400E-02  1.000000E-01  4.506469E-01  6.024769E-03  0.000000E+00  2.426078E-02  1.046038E-03 -2.009798E-04  2.403822E-01  0.000000E+00
  4.810495E-01  1.946869E-02  1.000000E-01  4.857058E-01  7.646117E-03  9.815295E-17  2.332777E-02  1.014461E-03 -1.646898E-04  2.532268E-01  0.000000E+00
  5.158819E-01  2.102103E-02  1.000000E-01  5.208999E-01  9.214565E-03  0.000000E+00  2.252909E-02  8.887668E-04 -1.123475E-04  2.678776E-01  0.000000E+00
  5.505606E-01  2.234254E-02  1.000000E-01  5.559386E-01  1.054980E-02  4.206555E-17  2.200205E-02  6.793575E-04 -4.817228E-05  2.815979E-01  0.000000E+00
  5.848044E-01  2.327430E-02  1.000000E-01  5.905378E-01  1.149123E-02  5.608740E-17  2.181969E-02  4.030359E-04  2.321864E-05  2.916372E-01  0.000000E+00
  6.183442E-01  2.371099E-02  1.000000E-01  6.244258E-01  1.193245E-02  1.402185E-17  2.196859E-02  7.958304E-05  9.756676E-05  2.964051E-01  0.000000E+00
  6.509298E-01  2.361740E-02  1.000000E-01  6.573497E-01  1.183789E-02  1.402185E-17  2.232851E-02 -2.401161E-04  1.719966E-04  2.947440E-01  0.000000E+00
  6.823359E-01  2.310496E-02  1.000000E-01  6.890818E-01  1.132013E-02  1.402185E-17  2.269958E-02 -4.795510E-04  2.447289E-04  2.867025E-01  0.000000E+00
  7.123710E-01  2.237666E-02  1.000000E-01  7.194287E-01  1.058427E-02  7.010925E-17  2.291537E-02 -6.199198E-04  3.125445E-04  2.774642E-01  0.000000E+00
  7.408829E-01  2.155633E-02  1.000000E-01  7.482365E-01  9.755419E-03  4.206555E-16  2.291465E-02 -7.064789E-04  3.712524E-04  2.728013E-01  0.000000E+00
  7.677594E-01  2.068468E-02  1.000000E-01  7.753920E-01  8.874730E-03  2.804370E-17  2.272908E-02 -7.875565E-04  4.183830E-04  2.733420E-01  0.000000E+00
  7.929268E-01  1.975405E-02  1.000000E-01  8.008207E-01  7.934432E-03  2.804370E-17  2.245501E-02 -8.983618E-04  4.537968E-04  2.770772E-01  0.000000E+00
  8.163467E-01  1.873185E-02  1.000000E-01  8.244837E-01  6.901628E-03  1.402185E-17  2.221431E-02 -1.059088E-03  4.790934E-04  2.816994E-01  0.000000E+00
  8.380119E-01  1.758902E-02  1.000000E-01  8.463738E-01  5.746929E-03  4.486992E-16  2.211804E-02 -1.279308E-03  4.965977E-04  2.852526E-01  0.000000E+00
  8.579422E-01  1.630682E-02  1.000000E-01  8.665110E-01  4.451424E-03  4.486992E-16  2.224098E-02 -1.558630E-03  5.085716E-04  2.862773E-01  0.000000E+00
  8.761813E-01  1.489234E-02  1.000000E-01  8.849395E-01  3.022255E-03  0.000000E+00  2.260076E-02 -1.875005E-03  5.170227E-04  2.832139E-01  0.000000E+00
  8.927940E-01  1.339027E-02  1.000000E-01  9.017247E-01  1.504592E-03  7.010925E-17  2.316385E-02 -2.201569E-03  5.232706E-04  2.754906E-01  0.000000E+00
  9.078617E-01  1.185405E-02  1.000000E-01  9.169487E-01 -4.757187E-05  2.804370E-17  2.388165E-02 -2.540788E-03  5.273234E-04  2.652596E-01  0.000000E+00
  9.214750E-01  1.031021E-02  1.000000E-01  9.307034E-01 -1.607435E-03  2.804370E-17  2.467382E-02 -2.869100E-03  5.287784E-04  2.527033E-01  0.000000E+00
  9.337349E-01  8.813136E-03  1.000000E-01  9.430906E-01 -3.120054E-03  5.608740E-17  2.543078E-02 -3.140053E-03  5.274710E-04  2.369816E-01  0.000000E+00
  9.447451E-01  7.403509E-03  1.000000E-01  9.542150E-01 -4.544315E-03  2.804370E-17  2.610494E-02 -3.360564E-03  5.236526E-04  2.206246E-01  0.000000E+00
  9.546071E-01  6.093171E-03  1.000000E-01  9.641794E-01 -5.868255E-03  2.804370E-17  2.677430E-02 -3.561438E-03  5.199033E-04  2.048289E-01  0.000000E+00
  9.634201E-01  4.887691E-03  1.000000E-01  9.730838E-01 -7.086249E-03  2.804370E-17  2.762016E-02 -3.775457E-03  5.214673E-04  1.892591E-01  0.000000E+00
  9.712788E-01  3.784163E-03  1.000000E-01  9.810241E-01 -8.201232E-03  2.804370E-17  2.860661E-02 -3.994192E-03  5.291482E-04  1.713981E-01  0.000000E+00
  9.782737E-01  2.782559E-03  1.000000E-01  9.880917E-01 -9.213234E-03  1.402185E-17  2.880678E-02 -4.172666E-03  5.183318E-04  1.494873E-01  0.000000E+00
  9.844874E-01  1.863127E-03  1.000000E-01  9.943699E-01 -1.014221E-02  2.804370E-17  2.652678E-02 -3.815593E-03  4.300623E-04  1.449002E-01  0.000000E+00
  9.900000E-01  1.031137E-03  1.000000E-01  9.999397E-01 -1.098284E-02  2.804370E-17  1.727357E-02 -3.780934E-03  9.580646E-05  1.639923E-02  0.000000E+00
  7.008801E-03  2.364673E-02  1.000000E-01  6.744269E-03  1.186752E-02  1.402185E-17  4.350475E-02  3.544477E-02  6.522708E-06 -6.398814E-01  0.000000E+00
  5.408827E-03  2.222376E-02  1.000000E-01  5.127686E-03  1.042978E-02  0.000000E+00  3.835466E-02  3.638235E-02  4.982731E-06 -7.347148E-01  0.000000E+00
  3.121616E-03  1.990554E-02  1.000000E-01  2.816732E-03  8.087502E-03  7.010925E-17  3.081085E-02  3.772228E-02  3.495613E-06 -5.964297E-01  0.000000E+00
  7.410024E-04  1.634269E-02  1.000000E-01  4.114057E-04  4.487667E-03  2.804370E-17  1.405794E-02  3.496437E-02  2.541763E-06  1.693510E-01  0.000000E+00
  3.338236E-04  1.190113E-02  1.000000E-01  0.000000E+00  0.000000E+00  0.000000E+00 -1.236145E-03  1.975067E-02  2.107736E-06  1.005031E+00  0.000000E+00
  2.687700E-03  8.797542E-03  1.000000E-01  2.378311E-03 -3.135811E-03 -4.206555E-17  5.560745E-04  1.546573E-03  1.721883E-06  1.015978E+00  0.000000E+00
  5.170152E-03  7.152503E-03  1.000000E-01  4.886534E-03 -4.797926E-03  5.608740E-17  1.077158E-02 -5.539297E-03  1.465165E-06  6.421931E-01  0.000000E+00
  7.008801E-03  6.418065E-03  1.000000E-01  6.744269E-03 -5.539988E-03  1.121748E-16  1.789148E-02 -6.289047E-03  1.381805E-06  5.880565E-01  0.000000E+00
    1    2
    2    3
    3    4
    4    5
    5    6
    6    7
    7    8
    8    9
    9   10
   10   11
   11   12
   12   13
   13   14
   14   15
   15   16
   16   17
   17   18
   18   19
   19   20
   20   21
   21   22
   22   23
   23   24
   24   25
   25   26
   26   27
   27   28
   28   29
   29   30
   30   31
   31   32
   32   33
   33   34
   34   35
   35   36
   36   37
   37   38
   38   39
   39   40
   40   41
   41   42
   42   43
   43   44
   44   45
   45   46
   46   47
   47   48
   48   49
   49   50
   51   52
   52   53
   53   54
   54   55
   55   56
   56   57
   57   58
   59   60
   60   61
   61   62
   62   63
   63   64
   64   65
   65   66
   66   67
   67   68
   68   69
   69   70
   70   71
   71   72
   72   73
   73   74
   74   75
   75   76
   76   77
   77   78
   78   79
   79   80
   80   81
   81   82
   82   83
   83   84
   84   85
   85   86
   86   87
   87   88
   88   89
   89   90
   90   91
   91   92
   92   93
   93   94
   94   95
   95   96
   96   97
   97   98
   98   99
   99  100
  100  101
  101  102
  102  103
  103  104
  104  105
  105  106
  106  107
  107  108
  109  110
  110  111
  111  112
  112  113
  113  114
  114  115
  115  116
Zone T= "Slice_0002 None Relative Regular z = 0.36666667"
 Nodes =          116  Elements=          112  ZONETYPE=FELINESEG
 DATAPACKING=POINT
  9.900000E-01 -2.522485E-03  3.666667E-01  9.998774E-01 -1.457146E-02 -2.804195E-16  1.261694E-02 -6.627691E-03 -1.680635E-03 -4.924855E-03  0.000000E+00
  9.845260E-01 -1.410285E-03  3.666667E-01  9.943469E-01 -1.344778E-02 -1.121678E-16  1.750717E-02 -3.570493E-03 -1.533824E-03  5.849474E-02  0.000000E+00
  9.783536E-01 -1.733151E-04  3.666667E-01  9.881108E-01 -1.219805E-02 -2.243356E-16  1.561879E-02 -2.978860E-03 -1.451893E-03  3.463184E-02  0.000000E+00
  9.713889E-01  1.130458E-03  3.666667E-01  9.810742E-01 -1.088082E-02 -1.682517E-16  1.356012E-02 -2.501803E-03 -1.403196E-03  2.560655E-02  0.000000E+00
  9.635599E-01  2.568982E-03  3.666667E-01  9.731645E-01 -9.427455E-03 -5.608390E-17  1.273063E-02 -2.275844E-03 -1.392654E-03  1.187405E-02  0.000000E+00
  9.547713E-01  4.128674E-03  3.666667E-01  9.642852E-01 -7.851671E-03 -2.243356E-16  1.295527E-02 -2.242578E-03 -1.415148E-03 -6.100398E-04  0.000000E+00
  9.449291E-01  5.825340E-03  3.666667E-01  9.543414E-01 -6.137499E-03 -1.682517E-16  1.364745E-02 -2.298232E-03 -1.453756E-03 -1.369489E-02  0.000000E+00
  9.339353E-01  7.674897E-03  3.666667E-01  9.432342E-01 -4.268858E-03 -1.682517E-16  1.442626E-02 -2.365268E-03 -1.496874E-03 -2.673263E-02  0.000000E+00
  9.216870E-01  9.679126E-03  3.666667E-01  9.308596E-01 -2.243950E-03 -1.121678E-16  1.510911E-02 -2.409460E-03 -1.537805E-03 -3.922103E-02  0.000000E+00
  9.080826E-01  1.184697E-02  3.666667E-01  9.171147E-01 -5.373973E-05  5.608390E-17  1.562525E-02 -2.429370E-03 -1.572205E-03 -5.156732E-02  0.000000E+00
  8.930237E-01  1.419470E-02  3.666667E-01  9.019004E-01  2.318212E-03 -5.608390E-17  1.595754E-02 -2.424033E-03 -1.597319E-03 -6.275505E-02  0.000000E+00
  8.764155E-01  1.672690E-02  3.666667E-01  8.851209E-01  4.876546E-03 -1.121678E-16  1.609470E-02 -2.403011E-03 -1.610713E-03 -7.296091E-02  0.000000E+00
  8.581774E-01  1.948088E-02  3.666667E-01  8.666947E-01  7.658933E-03  3.045356E-14  1.604234E-02 -2.380369E-03 -1.610444E-03 -8.299710E-02  0.000000E+00
  8.382414E-01  2.249211E-02  3.666667E-01  8.465530E-01  1.070123E-02  3.050964E-14  1.583502E-02 -2.364524E-03 -1.595488E-03 -9.328136E-02  0.000000E+00
  8.165597E-01  2.581599E-02  3.666667E-01  8.246476E-01  1.405941E-02 -5.608390E-17  1.553438E-02 -2.370306E-03 -1.565401E-03 -1.054656E-01  0.000000E+00
  7.931090E-01  2.952173E-02  3.666667E-01  8.009549E-01  1.780339E-02 -2.243356E-16  1.524383E-02 -2.412995E-03 -1.520453E-03 -1.213432E-01  0.000000E+00
  7.678944E-01  3.368470E-02  3.666667E-01  7.754801E-01  2.200931E-02 -1.121678E-16  1.510648E-02 -2.510564E-03 -1.460825E-03 -1.432659E-01  0.000000E+00
  7.409532E-01  3.837171E-02  3.666667E-01  7.482609E-01  2.674468E-02  3.050964E-14  1.530258E-02 -2.685060E-03 -1.385021E-03 -1.749802E-01  0.000000E+00
  7.123572E-01  4.361613E-02  3.666667E-01  7.193699E-01  3.204321E-02 -1.121678E-16  1.603936E-02 -2.957653E-03 -1.287456E-03 -2.215761E-01  0.000000E+00
  6.822143E-01  4.938064E-02  3.666667E-01  6.889160E-01  3.786720E-02 -1.682517E-16  1.750977E-02 -3.327461E-03 -1.156625E-03 -2.857146E-01  0.000000E+00
  6.506675E-01  5.550427E-02  3.666667E-01  6.570437E-01  4.405401E-02 -1.682517E-16  1.980352E-02 -3.740666E-03 -9.764692E-04 -3.630826E-01  0.000000E+00
  6.178953E-01  6.168233E-02  3.666667E-01  6.239334E-01  5.029582E-02  0.000000E+00  2.280430E-02 -4.112482E-03 -7.336078E-04 -4.474644E-01  0.000000E+00
  5.841133E-01  6.763900E-02  3.666667E-01  5.898028E-01  5.631394E-02 -1.682517E-16  2.622936E-02 -4.364868E-03 -4.280383E-04 -5.352589E-01  0.000000E+00
  5.495706E-01  7.315984E-02  3.666667E-01  5.549037E-01  6.189174E-02 -3.365034E-16  2.978097E-02 -4.435442E-03 -7.900206E-05 -6.232352E-01  0.000000E+00
  5.145480E-01  7.808125E-02  3.666667E-01  5.195197E-01  6.686394E-02 -1.121678E-16  3.325115E-02 -4.291529E-03  2.782709E-04 -7.082135E-01  0.000000E+00
  4.793451E-01  8.228258E-02  3.666667E-01  4.839536E-01  7.110861E-02 -5.608390E-17  3.655714E-02 -3.934910E-03  6.018020E-04 -7.877264E-01  0.000000E+00
  4.442686E-01  8.568806E-02  3.666667E-01  4.485152E-01  7.454923E-02  1.121678E-16  3.970413E-02 -3.389698E-03  8.529955E-04 -8.616899E-01  0.000000E+00
  4.096206E-01  8.826497E-02  3.666667E-01  4.135097E-01  7.715272E-02 -1.121678E-16  4.274580E-02 -2.682553E-03  1.005102E-03 -9.336375E-01  0.000000E+00
  3.756882E-01  9.001303E-02  3.666667E-01  3.792272E-01  7.891882E-02 -2.243356E-16  4.579444E-02 -1.824866E-03  1.049748E-03 -1.008683E+00  0.000000E+00
  3.427351E-01  9.094970E-02  3.666667E-01  3.459341E-01  7.986516E-02 -1.682517E-16  4.903638E-02 -7.552878E-04  1.000735E-03 -1.085526E+00  0.000000E+00
  3.109952E-01  9.103643E-02  3.666667E-01  3.138667E-01  7.995278E-02  0.000000E+00  5.256217E-02  6.286746E-04  8.878889E-04 -1.155663E+00  0.000000E+00
  2.806675E-01  9.024130E-02  3.666667E-01  2.832262E-01  7.914945E-02 -1.682517E-16  5.617409E-02  2.347255E-03  7.438291E-04 -1.211532E+00  0.000000E+00
  2.519134E-01  8.860267E-02  3.666667E-01  2.541754E-01  7.749391E-02  3.056573E-14  5.951740E-02  4.345975E-03  5.960126E-04 -1.247958E+00  0.000000E+00
  2.248544E-01  8.619751E-02  3.666667E-01  2.268371E-01  7.506394E-02 -2.804195E-16  6.226205E-02  6.515169E-03  4.627107E-04 -1.262981E+00  0.000000E+00
  1.995702E-01  8.315105E-02  3.666667E-01  2.012920E-01  7.198604E-02 -1.121678E-16  6.424243E-02  8.753502E-03  3.525020E-04 -1.256635E+00  0.000000E+00
  1.761037E-01  7.957504E-02  3.666667E-01  1.775834E-01  6.837314E-02  3.039748E-14  6.540160E-02  1.091628E-02  2.661197E-04 -1.233929E+00  0.000000E+00
  1.544558E-01  7.563388E-02  3.666667E-01  1.557122E-01  6.439131E-02  3.045356E-14  6.585138E-02  1.293059E-02  2.002666E-04 -1.199838E+00  0.000000E+00
  1.346015E-01  7.143705E-02  3.666667E-01  1.356531E-01  6.015118E-02 -1.121678E-16  6.580837E-02  1.481845E-02  1.509791E-04 -1.157004E+00  0.000000E+00
  1.164884E-01  6.709295E-02  3.666667E-01  1.173530E-01  5.576225E-02 -2.804195E-16  6.538743E-02  1.653150E-02  1.141579E-04 -1.112232E+00  0.000000E+00
  1.000416E-01  6.270584E-02  3.666667E-01  1.007365E-01  5.132988E-02 -5.608390E-17  6.474146E-02  1.811259E-02  8.655132E-05 -1.069104E+00  0.000000E+00
  8.517641E-02  5.833944E-02  3.666667E-01  8.571797E-02  4.691843E-02 -3.365034E-16  6.399745E-02  1.965464E-02  6.581646E-05 -1.027209E+00  0.000000E+00
  7.179882E-02  5.403961E-02  3.666667E-01  7.220236E-02  4.257424E-02  0.000000E+00  6.318328E-02  2.122510E-02  5.029086E-05 -9.842151E-01  0.000000E+00
  5.981409E-02  4.982776E-02  3.666667E-01  6.009398E-02  3.831893E-02 -1.682517E-16  6.220469E-02  2.275743E-02  3.875919E-05 -9.418495E-01  0.000000E+00
  4.911567E-02  4.574833E-02  3.666667E-01  4.928517E-02  3.419741E-02 -1.121678E-16  6.101156E-02  2.425680E-02  3.030904E-05 -9.007727E-01  0.000000E+00
  3.960719E-02  4.180303E-02  3.666667E-01  3.967858E-02  3.021141E-02 -5.608390E-17  5.957670E-02  2.582005E-02  2.425439E-05 -8.616186E-01  0.000000E+00
  3.119584E-02  3.799052E-02  3.666667E-01  3.118044E-02  2.635955E-02  0.000000E+00  5.778327E-02  2.742236E-02  1.997909E-05 -8.326098E-01  0.000000E+00
  2.379252E-02  3.430505E-02  3.666667E-01  2.370074E-02  2.263606E-02 -1.682517E-16  5.564407E-02  2.907988E-02  1.702163E-05 -8.119519E-01  0.000000E+00
  1.731190E-02  3.074744E-02  3.666667E-01  1.715325E-02  1.904174E-02 -2.243356E-16  5.318450E-02  3.124855E-02  1.511916E-05 -7.583842E-01  0.000000E+00
  1.171490E-02  2.723746E-02  3.666667E-01  1.149851E-02  1.549555E-02 -1.121678E-16  4.958724E-02  3.412031E-02  1.391052E-05 -6.535247E-01  0.000000E+00
  7.008801E-03  2.367318E-02  3.666667E-01  6.743848E-03  1.189449E-02  5.608390E-17  4.386450E-02  3.579510E-02  1.274923E-05 -6.403457E-01  0.000000E+00
  9.900000E-01 -3.600573E-03  3.666667E-01  9.998774E-01 -1.566067E-02 -1.121678E-16  1.722154E-02 -3.124086E-03  2.087990E-04  1.621515E-02  0.000000E+00
  9.900000E-01 -3.504476E-03  3.666667E-01  9.998774E-01 -1.556358E-02 -2.243356E-16  6.131236E-03 -3.043524E-02 -1.877790E-03 -1.132845E-01  0.000000E+00
  9.900000E-01 -3.359004E-03  3.666667E-01  9.998774E-01 -1.541661E-02 -1.121678E-16  7.600533E-04 -5.945167E-02 -4.051563E-03 -6.895870E-02  0.000000E+00
  9.900000E-01 -3.167243E-03  3.666667E-01  9.998774E-01 -1.522287E-02 -3.365034E-16 -1.299186E-03 -3.329070E-02 -4.531151E-03 -1.696275E-02  0.000000E+00
  9.900000E-01 -2.955815E-03  3.666667E-01  9.998774E-01 -1.500926E-02  1.121678E-16 -1.077401E-03  1.832263E-02 -3.439526E-03 -2.588332E-02  0.000000E+00
  9.900000E-01 -2.764054E-03  3.666667E-01  9.998774E-01 -1.481552E-02 -1.121678E-16  7.957966E-04  3.498548E-02 -2.186480E-03 -7.654714E-02  0.000000E+00
  9.900000E-01 -2.618583E-03  3.666667E-01  9.998774E-01 -1.466854E-02 -2.243356E-16  4.663568E-03  9.539624E-03 -1.748384E-03 -9.999973E-02  0.000000E+00
  9.900000E-01 -2.522485E-03  3.666667E-01  9.998774E-01 -1.457146E-02 -2.804195E-16  1.261694E-02 -6.627691E-03 -1.680635E-03 -4.924855E-03  0.000000E+00
  7.008801E-03  6.399303E-03  3.666667E-01  6.743848E-03 -5.557614E-03 -3.365034E-16  1.794717E-02 -6.329172E-03  2.893798E-05  5.897366E-01  0.000000E+00
  1.220231E-02  4.799323E-03  3.666667E-01  1.199094E-02 -7.174102E-03 -1.121678E-16  2.377591E-02 -5.731692E-03  3.122635E-05  5.790191E-01  0.000000E+00
  1.825510E-02  3.631380E-03  3.666667E-01  1.810619E-02 -8.354096E-03 -1.682517E-16  2.828809E-02 -4.438402E-03  3.171914E-05  4.308240E-01  0.000000E+00
  2.517288E-02  2.785010E-03  3.666667E-01  2.509534E-02 -9.209199E-03 -2.243356E-16  3.107381E-02 -3.017227E-03  3.187499E-05  3.507443E-01  0.000000E+00
  3.300629E-02  2.209753E-03  3.666667E-01  3.300957E-02 -9.790391E-03 -5.608390E-17  3.254108E-02 -1.722550E-03  3.101815E-05  3.185385E-01  0.000000E+00
  4.183175E-02  1.912785E-03  3.666667E-01  4.192609E-02 -1.009042E-02  1.121678E-16  3.299683E-02 -6.713410E-04  2.855986E-05  2.963412E-01  0.000000E+00
  5.172748E-02  1.840503E-03  3.666667E-01  5.192393E-02 -1.016345E-02 -2.243356E-16  3.275794E-02  9.232429E-05  2.445346E-05  2.825651E-01  0.000000E+00
  6.278438E-02  1.981761E-03  3.666667E-01  6.309491E-02 -1.002073E-02 -1.121678E-16  3.204475E-02  6.914001E-04  1.869097E-05  2.730026E-01  0.000000E+00