 Title= "ADflow Lift Distribution Data"
Variables = "eta" "CoordinateX" "CoordinateY" "CoordinateZ" "Lift" "Drag" "Moment" "Normalized Lift" "Normalized Drag" "Normalized Moment" "CL" "CD" "CM" "CLp" "CDp" "CMp" "CLv" "CDv" "CMv" "Elliptical" "thickness" "twist" "chord" "fx" "fy" "fz" 
Zone T= "LiftDist_01 allWalls: : z normal"
 I=          150
 DATAPACKING=BLOCK
  0.000000E+00
  6.711405E-03
  1.342281E-02
  2.013422E-02
  2.684563E-02
  3.355704E-02
  4.026845E-02
  4.697986E-02
  5.369127E-02
  6.040268E-02
  6.711409E-02
  7.382550E-02
  8.053691E-02
  8.724832E-02
  9.395973E-02
  1.006711E-01
  1.073825E-01
  1.140940E-01
  1.208054E-01
  1.275168E-01
  1.342282E-01
  1.409396E-01
  1.476510E-01
  1.543624E-01
  1.610738E-01
  1.677852E-01
  1.744966E-01
  1.812081E-01
  1.879195E-01
  1.946309E-01
  2.013423E-01
  2.080537E-01
  2.147651E-01
  2.214765E-01
  2.281879E-01
  2.348993E-01
  2.416107E-01
  2.483221E-01
  2.550336E-01
  2.617450E-01
  2.684564E-01
  2.751678E-01
  2.818792E-01
  2.885906E-01
  2.953020E-01
  3.020134E-01
  3.087248E-01
  3.154362E-01
  3.221476E-01
  3.288591E-01
  3.355705E-01
  3.422819E-01
  3.489933E-01
  3.557047E-01
  3.624161E-01
  3.691275E-01
  3.758389E-01
  3.825503E-01
  3.892617E-01
  3.959732E-01
  4.026846E-01
  4.093960E-01
  4.161074E-01
  4.228188E-01
  4.295302E-01
  4.362416E-01
  4.429530E-01
  4.496644E-01
  4.563758E-01
  4.630872E-01
  4.697987E-01
  4.765101E-01
  4.832215E-01
  4.899329E-01
  4.966443E-01
  5.033557E-01
  5.100671E-01
  5.167785E-01
  5.234899E-01
  5.302013E-01
  5.369128E-01
  5.436242E-01
  5.503356E-01
  5.570470E-01
  5.637584E-01
  5.704698E-01
  5.771812E-01
  5.838926E-01
  5.906040E-01
  5.973154E-01
  6.040268E-01
  6.107383E-01
  6.174497E-01
  6.241611E-01
  6.308725E-01
  6.375839E-01
  6.442953E-01
  6.510067E-01
  6.577181E-01
  6.644295E-01
  6.711409E-01
  6.778524E-01
  6.845638E-01
  6.912752E-01
  6.979866E-01
  7.046980E-01
  7.114094E-01
  7.181208E-01
  7.248322E-01
  7.315436E-01
  7.382550E-01
  7.449664E-01
  7.516779E-01
  7.583893E-01
  7.651007E-01
  7.718121E-01
  7.785235E-01
  7.852349E-01
  7.919463E-01
  7.986577E-01
  8.053691E-01
  8.120805E-01
  8.187919E-01
  8.255034E-01
  8.322148E-01
  8.389262E-01
  8.456376E-01
  8.523490E-01
  8.590604E-01
  8.657718E-01
  8.724832E-01
  8.791946E-01
  8.859060E-01
  8.926175E-01
  8.993289E-01
  9.060403E-01
  9.127517E-01
  9.194631E-01
  9.261745E-01
  9.328859E-01
  9.395973E-01
  9.463087E-01
  9.530201E-01
  9.597315E-01
  9.664430E-01
  9.731544E-01
  9.798658E-01
  9.865772E-01
  9.932886E-01
  1.000000E+00
  0.000000E+00
  0.000000E+00
  0.000000E+00
  0.000000E+00
  0.000000E+00
  0.000000E+00
  0.000000E+00
  0.000000E+00
  0.000000E+00
  0.000000E+00
  0.000000E+00
  0.000000E+00
  0.000000E+00
  0.000000E+00
  0.000000E+00
  0.000000E+00
  0.000000E+00
  0.000000E+00
  0.000000E+00
  0.000000E+00
  0.000000E+00
  0.000000E+00
  0.000000E+00
  0.000000E+00
  0.000000E+00
  0.000000E+00
  0.000000E+00
  0.000000E+00
  0.000000E+00
  0.000000E+00
  0.000000E+00
  0.000000E+00
  0.000000E+00
  0.000000E+00
  0.000000E+00
  0.000000E+00
  0.000000E+00
  0.000000E+00
  0.000000E+00
  0.000000E+00
  0.000000E+00
  0.000000E+00
  0.000000E+00
  0.000000E+00
  0.000000E+00
  0.000000E+00
  0.000000E+00
  0.000000E+00
  0.000000E+00
  0.000000E+00
  0.000000E+00
  0.000000E+00
  0.000000E+00
  0.000000E+00
  0.000000E+00
  0.000000E+00
  0.000000E+00
  0.000000E+00
  0.000000E+00
  0.000000E+00
  0.000000E+00
  0.000000E+00
  0.000000E+00
  0.000000E+00
  0.000000E+00
  0.000000E+00
  0.000000E+00
  0.000000E+00
  0.000000E+00
  0.000000E+00
  0.000000E+00
  0.000000E+00
  0.000000E+00
  0.000000E+00
  0.000000E+00
  0.000000E+00
  0.000000E+00
  0.000000E+00
  0.000000E+00
  0.000000E+00
  0.000000E+00
  0.000000E+00
  0.000000E+00
  0.000000E+00
  0.000000E+00
  0.000000E+00
  0.000000E+00
  0.000000E+00
  0.000000E+00
  0.000000E+00
  0.000000E+00
  0.000000E+00
  0.000000E+00
  0.000000E+00
  0.000000E+00
  0.000000E+00
  0.000000E+00
  0.000000E+00
  0.000000E+00
  0.000000E+00
  0.000000E+00
  0.000000E+00
  0.000000E+00
  0.000000E+00
  0.000000E+00
  0.000000E+00
  0.000000E+00
  0.000000E+00
  0.000000E+00
  0.000000E+00
  0.000000E+00
  0.000000E+00
  0.000000E+00
  0.000000E+00
  0.000000E+00
  0.000000E+00
  0.000000E+00
  0.000000E+00
  0.000000E+00
  0.000000E+00
  0.000000E+00
  0.000000E+00
  0.000000E+00
  0.000000E+00
  0.000000E+00
  0.000000E+00
  0.000000E+00
  0.000000E+00
  0.000000E+00
  0.000000E+00
  0.000000E+00
  0.000000E+00
  0.000000E+00
  0.000000E+00
  0.000000E+00
  0.000000E+00
  0.000000E+00
  0.000000E+00
  0.000000E+00
  0.000000E+00
  0.000000E+00
  0.000000E+00
  0.000000E+00
  0.000000E+00
  0.000000E+00
  0.000000E+00
  0.000000E+00
  0.000000E+00
  0.000000E+00
  0.000000E+00
  0.000000E+00
  0.000000E+00
  0.000000E+00
  0.000000E+00
  0.000000E+00
  0.000000E+00
  0.000000E+00
  0.000000E+00
  0.000000E+00
  0.000000E+00
  0.000000E+00
  0.000000E+00
  0.000000E+00
  0.000000E+00
  0.000000E+00
  0.000000E+00
  0.000000E+00
  0.000000E+00
  0.000000E+00
  0.000000E+00
  0.000000E+00
  0.000000E+00
  0.000000E+00
  0.000000E+00
  0.000000E+00
  0.000000E+00
  0.000000E+00
  0.000000E+00
  0.000000E+00
  0.000000E+00
  0.000000E+00
  0.000000E+00
  0.000000E+00
  0.000000E+00
  0.000000E+00
  0.000000E+00
  0.000000E+00
  0.000000E+00
  0.000000E+00
  0.000000E+00
  0.000000E+00
  0.000000E+00
  0.000000E+00
  0.000000E+00
  0.000000E+00
  0.000000E+00
  0.000000E+00
  0.000000E+00
  0.000000E+00
  0.000000E+00
  0.000000E+00
  0.000000E+00
  0.000000E+00
  0.000000E+00
  0.000000E+00
  0.000000E+00
  0.000000E+00
  0.000000E+00
  0.000000E+00
  0.000000E+00
  0.000000E+00
  0.000000E+00
  0.000000E+00
  0.000000E+00
  0.000000E+00
  0.000000E+00
  0.000000E+00
  0.000000E+00
  0.000000E+00
  0.000000E+00
  0.000000E+00
  0.000000E+00
  0.000000E+00
  0.000000E+00
  0.000000E+00
  0.000000E+00
  0.000000E+00
  0.000000E+00
  0.000000E+00
  0.000000E+00
  0.000000E+00
  0.000000E+00
  0.000000E+00
  0.000000E+00
  0.000000E+00
  0.000000E+00
  0.000000E+00
  0.000000E+00
  0.000000E+00
  0.000000E+00
  0.000000E+00
  0.000000E+00
  0.000000E+00
  0.000000E+00
  0.000000E+00
  0.000000E+00
  0.000000E+00
  0.000000E+00
  0.000000E+00
  0.000000E+00
  0.000000E+00
  0.000000E+00
  0.000000E+00
  0.000000E+00
  0.000000E+00
  0.000000E+00
  0.000000E+00
  0.000000E+00
  0.000000E+00
  0.000000E+00
  0.000000E+00
  0.000000E+00
  0.000000E+00
  0.000000E+00
  0.000000E+00
  0.000000E+00
  0.000000E+00
  0.000000E+00
  0.000000E+00
  0.000000E+00
  0.000000E+00
  0.000000E+00
  0.000000E+00
  0.000000E+00
  0.000000E+00
  0.000000E+00
  0.000000E+00
  0.000000E+00
  0.000000E+00
  0.000000E+00
  0.000000E+00
  0.000000E+00
  0.000000E+00
  0.000000E+00
  0.000000E+00
  0.000000E+00
  0.000000E+00
  0.000000E+00
  0.000000E+00
  0.000000E+00
  0.000000E+00
  0.000000E+00
  0.000000E+00
  0.000000E+00
  0.000000E+00
  0.000000E+00
  0.000000E+00
  0.000000E+00
  0.000000E+00
  0.000000E+00
  1.000000E-08
  1.690972E-02
  3.381945E-02
  5.072917E-02
  6.763890E-02
  8.454862E-02
  1.014583E-01
  1.183681E-01
  1.352778E-01
  1.521875E-01
  1.690972E-01
  1.860070E-01
  2.029167E-01
  2.198264E-01
  2.367361E-01
  2.536459E-01
  2.705556E-01
  2.874653E-01
  3.043750E-01
  3.212848E-01
  3.381945E-01
  3.551042E-01
  3.720139E-01
  3.889237E-01
  4.058334E-01
  4.227431E-01
  4.396528E-01
  4.565626E-01
  4.734723E-01
  4.903820E-01
  5.072917E-01
  5.242015E-01
  5.411112E-01
  5.580209E-01
  5.749306E-01
  5.918404E-01
  6.087501E-01
  6.256598E-01
  6.425695E-01
  6.594792E-01
  6.763890E-01
  6.932987E-01
  7.102084E-01
  7.271181E-01
  7.440279E-01
  7.609376E-01
  7.778473E-01
  7.947570E-01
  8.116668E-01
  8.285765E-01
  8.454862E-01
  8.623959E-01
  8.793057E-01
  8.962154E-01
  9.131251E-01
  9.300348E-01
  9.469446E-01
  9.638543E-01
  9.807640E-01
  9.976737E-01
  1.014583E+00
  1.031493E+00
  1.048403E+00
  1.065313E+00
  1.082222E+00
  1.099132E+00
  1.116042E+00
  1.132952E+00
  1.149861E+00
  1.166771E+00
  1.183681E+00
  1.200590E+00
  1.217500E+00
  1.234410E+00
  1.251320E+00
  1.268229E+00
  1.285139E+00
  1.302049E+00
  1.318958E+00
  1.335868E+00
  1.352778E+00
  1.369688E+00
  1.386597E+00
  1.403507E+00
  1.420417E+00
  1.437327E+00
  1.454236E+00
  1.471146E+00
  1.488056E+00
  1.504965E+00
  1.521875E+00
  1.538785E+00
  1.555695E+00
  1.572604E+00
  1.589514E+00
  1.606424E+00
  1.623334E+00
  1.640243E+00
  1.657153E+00
  1.674063E+00
  1.690972E+00
  1.707882E+00
  1.724792E+00
  1.741702E+00
  1.758611E+00
  1.775521E+00
  1.792431E+00
  1.809341E+00
  1.826250E+00
  1.843160E+00
  1.860070E+00
  1.876979E+00
  1.893889E+00
  1.910799E+00
  1.927709E+00
  1.944618E+00
  1.961528E+00
  1.978438E+00
  1.995347E+00
  2.012257E+00
  2.029167E+00
  2.046077E+00
  2.062986E+00
  2.079896E+00
  2.096806E+00
  2.113716E+00
  2.130625E+00
  2.147535E+00
  2.164445E+00
  2.181354E+00
  2.198264E+00
  2.215174E+00
  2.232084E+00
  2.248993E+00
  2.265903E+00
  2.282813E+00
  2.299723E+00
  2.316632E+00
  2.333542E+00
  2.350452E+00
  2.367361E+00
  2.384271E+00
  2.401181E+00
  2.418091E+00
  2.435000E+00
  2.451910E+00
  2.468820E+00
  2.485729E+00
  2.502639E+00
  2.519549E+00
  1.132824E+04
  1.132657E+04
  1.132491E+04
  1.132324E+04
  1.132158E+04
  1.131991E+04
  1.131825E+04
  1.131658E+04
  1.131491E+04
  1.131013E+04
  1.130521E+04
  1.130029E+04
  1.129536E+04
  1.129044E+04
  1.128552E+04
  1.128059E+04
  1.127475E+04
  1.126689E+04
  1.125903E+04
  1.125117E+04
  1.124331E+04
  1.123545E+04
  1.122759E+04
  1.121956E+04
  1.120866E+04
  1.119777E+04
  1.118687E+04
  1.117598E+04
  1.116508E+04
  1.115418E+04
  1.114276E+04
  1.112853E+04
  1.111430E+04
  1.110007E+04
  1.108584E+04
  1.107161E+04
  1.105738E+04
  1.104096E+04
  1.102312E+04
  1.100527E+04
  1.098743E+04
  1.096959E+04
  1.095175E+04
  1.093239E+04
  1.091059E+04
  1.088879E+04
  1.086699E+04
  1.084519E+04
  1.082339E+04
  1.079945E+04
  1.077310E+04
  1.074675E+04
  1.072040E+04
  1.069405E+04
  1.066769E+04
  1.063676E+04
  1.060503E+04
  1.057330E+04
  1.054158E+04
  1.050985E+04
  1.047485E+04
  1.043678E+04
  1.039871E+04
  1.036065E+04
  1.032259E+04
  1.028117E+04
  1.023562E+04
  1.019007E+04
  1.014452E+04
  1.009898E+04
  1.004800E+04
  9.993848E+03
  9.939706E+03
  9.885574E+03
  9.830951E+03
  9.767905E+03
  9.704883E+03
  9.641885E+03
  9.578910E+03
  9.510318E+03
  9.439457E+03
  9.368639E+03
  9.297863E+03
  9.223466E+03
  9.146472E+03
  9.069534E+03
  8.992650E+03
  8.913005E+03
  8.831951E+03
  8.750953E+03
  8.670010E+03
  8.587448E+03
  8.504810E+03
  8.422221E+03
  8.339716E+03
  8.257309E+03
  8.174936E+03
  8.092624E+03
  8.011245E+03
  7.929888E+03
  7.848552E+03
  7.768339E+03
  7.688364E+03
  7.608404E+03
  7.529602E+03
  7.451103E+03
  7.372619E+03
  7.294933E+03
  7.217334E+03
  7.139762E+03
  7.062264E+03
  6.984780E+03
  6.906993E+03
  6.828982E+03
  6.750873E+03
  6.671776E+03
  6.592691E+03
  6.512408E+03
  6.431734E+03
  6.350035E+03
  6.267386E+03
  6.183837E+03
  6.098932E+03
  6.013089E+03
  5.925750E+03
  5.837222E+03
  5.747371E+03
  5.655849E+03
  5.563452E+03
  5.468683E+03
  5.372995E+03
  5.275495E+03
  5.176119E+03
  5.075393E+03
  4.972703E+03
  4.867750E+03
  4.761039E+03
  4.652499E+03
  4.542243E+03
  4.431346E+03
  4.324265E+03
  4.229909E+03
  4.162433E+03
  4.147149E+03
  4.244003E+03
  4.418883E+03
  4.230735E+03
  4.525712E+03
  1.017094E+03
  2.238795E-03
  6.558575E+02
  6.558078E+02
  6.557581E+02
  6.557084E+02
  6.556587E+02
  6.556091E+02
  6.555594E+02
  6.555097E+02
  6.554600E+02
  6.553689E+02
  6.552760E+02
  6.551831E+02
  6.550902E+02
  6.549972E+02
  6.549043E+02
  6.548114E+02
  6.547261E+02
  6.546574E+02
  6.545888E+02
  6.545201E+02
  6.544515E+02
  6.543828E+02
  6.543142E+02
  6.542435E+02
  6.541375E+02
  6.540315E+02
  6.539255E+02
  6.538196E+02
  6.537136E+02
  6.536076E+02
  6.534773E+02
  6.532180E+02
  6.529587E+02
  6.526994E+02
  6.524401E+02
  6.521808E+02
  6.519215E+02
  6.515084E+02
  6.509959E+02
  6.504833E+02
  6.499708E+02
  6.494583E+02
  6.489458E+02
  6.482927E+02
  6.474135E+02
  6.465344E+02
  6.456552E+02
  6.447760E+02
  6.438968E+02
  6.427817E+02
  6.414009E+02
  6.400201E+02
  6.386393E+02
  6.372584E+02
  6.358776E+02
  6.339633E+02
  6.319571E+02
  6.299509E+02
  6.279447E+02
  6.259385E+02
  6.235826E+02
  6.208997E+02
  6.182169E+02
  6.155341E+02
  6.128514E+02
  6.098910E+02
  6.065878E+02
  6.032850E+02
  5.999827E+02
  5.966808E+02
  5.930643E+02
  5.892655E+02
  5.854685E+02
  5.816736E+02
  5.778643E+02
  5.737839E+02
  5.697090E+02
  5.656395E+02
  5.615754E+02
  5.575699E+02
  5.535959E+02
  5.496322E+02
  5.456786E+02
  5.418852E+02
  5.382134E+02
  5.345549E+02
  5.309096E+02
  5.273497E+02
  5.238414E+02
  5.203468E+02
  5.168659E+02
  5.133063E+02
  5.097522E+02
  5.062101E+02
  5.025458E+02
  4.986826E+02
  4.948286E+02
  4.909665E+02
  4.865092E+02
  4.820580E+02
  4.776130E+02
  4.726515E+02
  4.675890E+02
  4.625306E+02
  4.572656E+02
  4.519498E+02
  4.466364E+02
  4.414039E+02
  4.361800E+02
  4.310089E+02
  4.260826E+02
  4.211562E+02
  4.164799E+02
  4.119900E+02
  4.075505E+02
  4.035761E+02
  3.995999E+02
  3.960286E+02
  3.925902E+02
  3.894295E+02
  3.865253E+02
  3.838232E+02
  3.814257E+02
  3.792065E+02
  3.772718E+02
  3.755472E+02
  3.740568E+02
  3.728674E+02
  3.718360E+02
  3.712686E+02
  3.708994E+02
  3.709305E+02
  3.714359E+02
  3.723060E+02
  3.737424E+02
  3.759289E+02
  3.787983E+02
  3.825194E+02
  3.873378E+02
  3.939958E+02
  4.034239E+02
  4.175776E+02
  4.396614E+02
  4.751455E+02
  5.347023E+02
  6.159498E+02
  6.599978E+02
  7.691614E+02
  2.930736E+02
  5.299656E-04
  2.021733E+03
  2.021500E+03
  2.021268E+03
  2.021036E+03
  2.020803E+03
  2.020571E+03
  2.020339E+03
  2.020106E+03
  2.019874E+03
  2.019260E+03
  2.018628E+03
  2.017996E+03
  2.017364E+03
  2.016733E+03
  2.016101E+03
  2.015469E+03
  2.014738E+03
  2.013789E+03
  2.012840E+03
  2.011892E+03
  2.010943E+03
  2.009995E+03
  2.009046E+03
  2.008074E+03
  2.006700E+03
  2.005326E+03
  2.003952E+03
  2.002578E+03
  2.001203E+03
  1.999829E+03
  1.998357E+03
  1.996369E+03
  1.994380E+03
  1.992392E+03
  1.990403E+03
  1.988414E+03
  1.986426E+03
  1.983944E+03
  1.981144E+03
  1.978344E+03
  1.975545E+03
  1.972745E+03
  1.969945E+03
  1.966742E+03
  1.962891E+03
  1.959041E+03
  1.955190E+03
  1.951340E+03
  1.947489E+03
  1.942995E+03
  1.937775E+03
  1.932555E+03
  1.927335E+03
  1.922116E+03
  1.916896E+03
  1.910028E+03
  1.902876E+03
  1.895724E+03
  1.888572E+03
  1.881421E+03
  1.872766E+03
  1.862706E+03
  1.852647E+03
  1.842587E+03
  1.832528E+03
  1.820610E+03
  1.806396E+03
  1.792182E+03
  1.777969E+03
  1.763757E+03
  1.746102E+03
  1.726436E+03
  1.706837E+03
  1.687178E+03
  1.667167E+03
  1.641166E+03
  1.615175E+03
  1.589193E+03
  1.563221E+03
  1.533171E+03
  1.501466E+03
  1.469779E+03
  1.438109E+03
  1.404348E+03
  1.369084E+03
  1.333845E+03
  1.298629E+03
  1.262661E+03
  1.226315E+03
  1.189995E+03
  1.153700E+03
  1.118398E+03
  1.083191E+03
  1.048008E+03
  1.014017E+03
  9.818682E+02
  9.497376E+02
  9.177421E+02
  8.899248E+02
  8.621194E+02
  8.343256E+02
  8.103231E+02
  7.870890E+02
  7.638622E+02
  7.438941E+02
  7.247585E+02
  7.056276E+02
  6.896026E+02
  6.738741E+02
  6.586229E+02
  6.456209E+02
  6.326211E+02
  6.208260E+02
  6.099329E+02
  5.991970E+02
  5.898714E+02
  5.805465E+02
  5.720754E+02
  5.638877E+02
  5.561468E+02
  5.488187E+02
  5.417843E+02
  5.351904E+02
  5.288716E+02
  5.229901E+02
  5.174711E+02
  5.123556E+02
  5.078209E+02
  5.035908E+02
  5.003386E+02
  4.975201E+02
  4.955847E+02
  4.947010E+02
  4.946141E+02
  4.957513E+02
  4.984492E+02
  5.025325E+02
  5.083423E+02
  5.164080E+02
  5.285723E+02
  5.476704E+02
  5.797233E+02
  6.349702E+02
  7.295734E+02
  8.902922E+02
  1.108826E+03
  1.217305E+03
  1.345099E+03
 -1.022843E+02
  2.822367E-09
  1.280029E+00
  1.279841E+00
  1.279653E+00
  1.279464E+00
  1.279276E+00
  1.279088E+00
  1.278900E+00
  1.278711E+00
  1.278523E+00
  1.277983E+00
  1.277427E+00
  1.276871E+00
  1.276314E+00
  1.275758E+00
  1.275202E+00
  1.274645E+00
  1.273985E+00
  1.273097E+00
  1.272208E+00
  1.271320E+00
  1.270432E+00
  1.269544E+00
  1.268656E+00
  1.267749E+00
  1.266517E+00
  1.265286E+00
  1.264055E+00
  1.262824E+00
  1.261593E+00
  1.260362E+00
  1.259071E+00
  1.257463E+00
  1.255855E+00
  1.254247E+00
  1.252639E+00
  1.251031E+00
  1.249424E+00
  1.247568E+00
  1.245552E+00
  1.243536E+00
  1.241519E+00
  1.239503E+00
  1.237487E+00
  1.235300E+00
  1.232837E+00
  1.230373E+00
  1.227910E+00
  1.225447E+00
  1.222984E+00
  1.220278E+00
  1.217301E+00
  1.214323E+00
  1.211346E+00
  1.208369E+00
  1.205391E+00
  1.201895E+00
  1.198310E+00
  1.194725E+00
  1.191140E+00
  1.187555E+00
  1.183600E+00
  1.179299E+00
  1.174998E+00
  1.170697E+00
  1.166396E+00
  1.161716E+00
  1.156569E+00
  1.151422E+00
  1.146276E+00
  1.141130E+00
  1.135369E+00
  1.129250E+00
  1.123132E+00
  1.117016E+00
  1.110844E+00
  1.103720E+00
  1.096599E+00
  1.089480E+00
  1.082364E+00
  1.074614E+00
  1.066607E+00
  1.058605E+00
  1.050608E+00
  1.042201E+00
  1.033501E+00
  1.024808E+00
  1.016120E+00
  1.007121E+00
  9.979621E-01
  9.888097E-01
  9.796636E-01
  9.703345E-01
  9.609970E-01
  9.516648E-01
  9.423422E-01
  9.330306E-01
  9.237230E-01
  9.144221E-01
  9.052268E-01
  8.960339E-01
  8.868434E-01
  8.777798E-01
  8.687430E-01
  8.597080E-01
  8.508037E-01
  8.419339E-01
  8.330655E-01
  8.242874E-01
  8.155192E-01
  8.067540E-01
  7.979972E-01
  7.892419E-01
  7.804524E-01
  7.716376E-01
  7.628117E-01
  7.538742E-01
  7.449380E-01
  7.358665E-01
  7.267508E-01
  7.175192E-01
  7.081803E-01
  6.987397E-01
  6.891460E-01
  6.794461E-01
  6.695773E-01
  6.595742E-01
  6.494214E-01
  6.390800E-01
  6.286396E-01
  6.179312E-01
  6.071190E-01
  5.961021E-01
  5.848730E-01
  5.734916E-01
  5.618883E-01
  5.500291E-01
  5.379713E-01
  5.257069E-01
  5.132485E-01
  5.007178E-01
  4.886183E-01
  4.779566E-01
  4.703322E-01
  4.686051E-01
  4.795491E-01
  4.993095E-01
  4.780499E-01
  5.113806E-01
  1.149260E-01
  2.529716E-07
  1.196837E+00
  1.196746E+00
  1.196656E+00
  1.196565E+00
  1.196474E+00
  1.196384E+00
  1.196293E+00
  1.196202E+00
  1.196112E+00
  1.195946E+00
  1.195776E+00
  1.195606E+00
  1.195437E+00
  1.195267E+00
  1.195098E+00
  1.194928E+00
  1.194772E+00
  1.194647E+00
  1.194522E+00
  1.194397E+00
  1.194271E+00
  1.194146E+00
  1.194021E+00
  1.193892E+00
  1.193698E+00
  1.193505E+00
  1.193312E+00
  1.193118E+00
  1.192925E+00
  1.192731E+00
  1.192494E+00
  1.192020E+00
  1.191547E+00
  1.191074E+00
  1.190601E+00
  1.190128E+00
  1.189654E+00
  1.188901E+00
  1.187965E+00
  1.187030E+00
  1.186095E+00
  1.185160E+00
  1.184224E+00
  1.183033E+00
  1.181428E+00
  1.179824E+00
  1.178219E+00
  1.176615E+00
  1.175011E+00
  1.172976E+00
  1.170456E+00
  1.167936E+00
  1.165417E+00
  1.162897E+00
  1.160377E+00
  1.156884E+00
  1.153223E+00
  1.149562E+00
  1.145901E+00
  1.142240E+00
  1.137940E+00
  1.133045E+00
  1.128149E+00
  1.123253E+00
  1.118358E+00
  1.112955E+00
  1.106928E+00
  1.100901E+00
  1.094874E+00
  1.088849E+00
  1.082249E+00
  1.075317E+00
  1.068388E+00
  1.061463E+00
  1.054512E+00
  1.047066E+00
  1.039630E+00
  1.032203E+00
  1.024787E+00
  1.017478E+00
  1.010226E+00
  1.002993E+00
  9.957778E-01
  9.888556E-01
  9.821550E-01
  9.754789E-01
  9.688268E-01
  9.623306E-01
  9.559284E-01
  9.495514E-01
  9.431993E-01
  9.367036E-01
  9.302178E-01
  9.237540E-01
  9.170673E-01
  9.100176E-01
  9.029845E-01
  8.959368E-01
  8.878030E-01
  8.796803E-01
  8.715689E-01
  8.625148E-01
  8.532766E-01
  8.440458E-01
  8.344381E-01
  8.247375E-01
  8.150415E-01
  8.054930E-01
  7.959602E-01
  7.865236E-01
  7.775339E-01
  7.685440E-01
  7.600105E-01
  7.518171E-01
  7.437158E-01
  7.364631E-01
  7.292071E-01
  7.226901E-01
  7.164155E-01
  7.106477E-01
  7.053481E-01
  7.004173E-01
  6.960422E-01
  6.919924E-01
  6.884620E-01
  6.853147E-01
  6.825950E-01
  6.804245E-01
  6.785423E-01
  6.775069E-01
  6.768333E-01
  6.768901E-01
  6.778123E-01
  6.794000E-01
  6.820213E-01
  6.860113E-01
  6.912476E-01
  6.980380E-01
  7.068307E-01
  7.189807E-01
  7.361854E-01
  7.620136E-01
  8.023131E-01
  8.670661E-01
  9.757479E-01
  1.124012E+00
  1.204392E+00
  1.403599E+00
  5.348134E-01
  9.671041E-07
  1.456689E+00
  1.456522E+00
  1.456355E+00
  1.456187E+00
  1.456020E+00
  1.455853E+00
  1.455685E+00
  1.455518E+00
  1.455350E+00
  1.454908E+00
  1.454453E+00
  1.453997E+00
  1.453542E+00
  1.453087E+00
  1.452632E+00
  1.452177E+00
  1.451649E+00
  1.450966E+00
  1.450283E+00
  1.449599E+00
  1.448916E+00
  1.448232E+00
  1.447549E+00
  1.446848E+00
  1.445858E+00
  1.444868E+00
  1.443878E+00
  1.442888E+00
  1.441898E+00
  1.440908E+00
  1.439847E+00
  1.438415E+00
  1.436982E+00
  1.435549E+00
  1.434116E+00
  1.432683E+00
  1.431250E+00
  1.429463E+00
  1.427445E+00
  1.425428E+00
  1.423410E+00
  1.421393E+00
  1.419375E+00
  1.417068E+00
  1.414293E+00
  1.411519E+00
  1.408745E+00
  1.405970E+00
  1.403196E+00
  1.399957E+00
  1.396197E+00
  1.392436E+00
  1.388675E+00
  1.384914E+00
  1.381153E+00
  1.376204E+00
  1.371051E+00
  1.365898E+00
  1.360745E+00
  1.355592E+00
  1.349357E+00
  1.342109E+00
  1.334860E+00
  1.327612E+00
  1.320365E+00
  1.311777E+00
  1.301536E+00
  1.291295E+00
  1.281054E+00
  1.270814E+00
  1.258093E+00
  1.243924E+00
  1.229802E+00
  1.215638E+00
  1.201219E+00
  1.182486E+00
  1.163759E+00
  1.145038E+00
  1.126325E+00
  1.104674E+00
  1.081829E+00
  1.058998E+00
  1.036180E+00
  1.011854E+00
  9.864462E-01
  9.610557E-01
  9.356823E-01
  9.097667E-01
  8.835788E-01
  8.574095E-01
  8.312583E-01
  8.058229E-01
  7.804562E-01
  7.551060E-01
  7.306147E-01
  7.074512E-01
  6.843005E-01
  6.612473E-01
  6.412046E-01
  6.211703E-01
  6.011445E-01
  5.838503E-01
  5.671097E-01
  5.503745E-01
  5.359872E-01
  5.221997E-01
  5.084155E-01
  4.968693E-01
  4.855367E-01
  4.745479E-01
  4.651798E-01
  4.558132E-01
  4.473147E-01
  4.394661E-01
  4.317307E-01
  4.250114E-01
  4.182927E-01
  4.121891E-01
  4.062898E-01
  4.007123E-01
  3.954323E-01
  3.903639E-01
  3.856129E-01
  3.810602E-01
  3.768224E-01
  3.728459E-01
  3.691601E-01
  3.658927E-01
  3.628449E-01
  3.605017E-01
  3.584709E-01
  3.570764E-01
  3.564397E-01
  3.563771E-01
  3.571965E-01
  3.591403E-01
  3.620824E-01
  3.662684E-01
  3.720799E-01
  3.808445E-01
  3.946049E-01
  4.176996E-01
  4.575058E-01
  5.256689E-01
  6.414693E-01
  7.989262E-01
  8.770873E-01
  9.691643E-01
 -7.369740E-02
  2.033559E-12
  1.003010E+00
  1.002862E+00
  1.002715E+00
  1.002567E+00
  1.002420E+00
  1.002272E+00
  1.002125E+00
  1.001977E+00
  1.001830E+00
  1.001407E+00
  1.000971E+00
  1.000535E+00
  1.000099E+00
  9.996632E-01
  9.992273E-01
  9.987914E-01
  9.982736E-01
  9.975777E-01
  9.968817E-01
  9.961858E-01
  9.954899E-01
  9.947939E-01
  9.940980E-01
  9.933872E-01
  9.924225E-01
  9.914577E-01
  9.904930E-01
  9.895283E-01
  9.885636E-01
  9.875989E-01
  9.865873E-01
  9.853274E-01
  9.840675E-01
  9.828076E-01
  9.815477E-01
  9.802878E-01
  9.790279E-01
  9.775738E-01
  9.759940E-01
  9.744142E-01
  9.728344E-01
  9.712547E-01
  9.696749E-01
  9.679608E-01
  9.660307E-01
  9.641005E-01
  9.621703E-01
  9.602401E-01
  9.583100E-01
  9.561903E-01
  9.538572E-01
  9.515241E-01
  9.491910E-01
  9.468579E-01
  9.445248E-01
  9.417856E-01
  9.389765E-01
  9.361674E-01
  9.333583E-01
  9.305492E-01
  9.274500E-01
  9.240796E-01
  9.207093E-01
  9.173390E-01
  9.139688E-01
  9.103021E-01
  9.062689E-01
  9.022360E-01
  8.982034E-01
  8.941711E-01
  8.896572E-01
  8.848627E-01
  8.800688E-01
  8.752758E-01
  8.704393E-01
  8.648569E-01
  8.592766E-01
  8.536983E-01
  8.481220E-01
  8.420482E-01
  8.357732E-01
  8.295020E-01
  8.232345E-01
  8.166461E-01
  8.098276E-01
  8.030139E-01
  7.962048E-01
  7.891512E-01
  7.819727E-01
  7.747991E-01
  7.676302E-01
  7.603182E-01
  7.529995E-01
  7.456850E-01
  7.383781E-01
  7.310803E-01
  7.237856E-01
  7.164961E-01
  7.092903E-01
  7.020864E-01
  6.948844E-01
  6.877826E-01
  6.807019E-01
  6.736226E-01
  6.666462E-01
  6.596969E-01
  6.527488E-01
  6.458716E-01
  6.390022E-01
  6.321351E-01
  6.252747E-01
  6.184154E-01
  6.115292E-01
  6.046232E-01
  5.977085E-01
  5.907062E-01
  5.837048E-01
  5.765974E-01
  5.694552E-01
  5.622221E-01
  5.549050E-01
  5.475080E-01
  5.399909E-01
  5.323906E-01
  5.246579E-01
  5.168198E-01
  5.088645E-01
  5.007613E-01
  4.925805E-01
  4.841897E-01
  4.757175E-01
  4.670848E-01
  4.582860E-01
  4.493676E-01
  4.402754E-01
  4.309827E-01
  4.215344E-01
  4.119242E-01
  4.021620E-01
  3.923431E-01
  3.828620E-01
  3.745076E-01
  3.685330E-01
  3.671794E-01
  3.757542E-01
  3.912372E-01
  3.745787E-01
  4.006946E-01
  1.049073E-01
  3.971123E-02
  5.807006E-02
  5.806566E-02
  5.806126E-02
  5.805686E-02
  5.805246E-02
  5.804806E-02
  5.804366E-02
  5.803926E-02
  5.803486E-02
  5.802680E-02
  5.801857E-02
  5.801035E-02
  5.800212E-02
  5.799389E-02
  5.798566E-02
  5.797744E-02
  5.796988E-02
  5.796381E-02
  5.795773E-02
  5.795165E-02
  5.794557E-02
  5.793949E-02
  5.793341E-02
  5.792715E-02
  5.791777E-02
  5.790839E-02
  5.789900E-02
  5.788962E-02
  5.788024E-02
  5.787085E-02
  5.785931E-02
  5.783635E-02
  5.781340E-02
  5.779044E-02
  5.776748E-02
  5.774452E-02
  5.772156E-02
  5.768499E-02
  5.763961E-02
  5.759423E-02
  5.754885E-02
  5.750347E-02
  5.745809E-02
  5.740027E-02
  5.732243E-02
  5.724458E-02
  5.716674E-02
  5.708890E-02
  5.701105E-02
  5.691232E-02
  5.679006E-02
  5.666780E-02
  5.654555E-02
  5.642329E-02
  5.630103E-02
  5.613153E-02
  5.595390E-02
  5.577627E-02
  5.559864E-02
  5.542101E-02
  5.521242E-02
  5.497488E-02
  5.473735E-02
  5.449981E-02
  5.426228E-02
  5.400017E-02
  5.370771E-02
  5.341528E-02
  5.312289E-02
  5.283055E-02
  5.251035E-02
  5.217400E-02
  5.183781E-02
  5.150180E-02
  5.116451E-02
  5.080321E-02
  5.044240E-02
  5.008206E-02
  4.972219E-02
  4.936751E-02
  4.901561E-02
  4.866460E-02
  4.831448E-02
  4.797854E-02
  4.765335E-02
  4.732933E-02
  4.700648E-02
  4.669117E-02
  4.638043E-02
  4.607090E-02
  4.576257E-02
  4.544728E-02
  4.513247E-02
  4.481873E-02
  4.449418E-02
  4.415204E-02
  4.381071E-02
  4.346867E-02
  4.307399E-02
  4.267984E-02
  4.228625E-02
  4.184697E-02
  4.139876E-02
  4.095091E-02
  4.048480E-02
  4.001419E-02
  3.954380E-02
  3.908059E-02
  3.861814E-02
  3.816035E-02
  3.772425E-02
  3.728814E-02
  3.687416E-02
  3.647669E-02
  3.608369E-02
  3.573185E-02
  3.537984E-02
  3.506369E-02
  3.475929E-02
  3.447947E-02
  3.422237E-02
  3.398315E-02
  3.377090E-02
  3.357442E-02
  3.340314E-02
  3.325044E-02
  3.311849E-02
  3.301318E-02
  3.292185E-02
  3.287161E-02
  3.283892E-02
  3.284166E-02
  3.288639E-02
  3.296341E-02
  3.309057E-02
  3.328414E-02
  3.353817E-02
  3.386761E-02
  3.429419E-02
  3.488365E-02
  3.571836E-02
  3.697147E-02
  3.892668E-02
  4.206833E-02
  4.734130E-02
  5.453471E-02
  5.843454E-02
  6.809953E-02
  3.022883E-02
  9.400408E-03
  1.790055E-01
  1.789850E-01
  1.789644E-01
  1.789438E-01
  1.789233E-01
  1.789027E-01
  1.788821E-01
  1.788616E-01
  1.788410E-01
  1.787866E-01
  1.787307E-01
  1.786747E-01
  1.786188E-01
  1.785628E-01
  1.785069E-01
  1.784510E-01
  1.783862E-01
  1.783022E-01
  1.782182E-01
  1.781342E-01
  1.780503E-01
  1.779663E-01
  1.778823E-01
  1.777962E-01
  1.776745E-01
  1.775529E-01
  1.774312E-01
  1.773095E-01
  1.771879E-01
  1.770662E-01
  1.769359E-01
  1.767598E-01
  1.765838E-01
  1.764077E-01
  1.762316E-01
  1.760555E-01
  1.758795E-01
  1.756598E-01
  1.754119E-01
  1.751639E-01
  1.749160E-01
  1.746681E-01
  1.744202E-01
  1.741366E-01
  1.737957E-01
  1.734548E-01
  1.731138E-01
  1.727729E-01
  1.724320E-01
  1.720340E-01
  1.715719E-01
  1.711097E-01
  1.706476E-01
  1.701854E-01
  1.697232E-01
  1.691151E-01
  1.684819E-01
  1.678487E-01
  1.672155E-01
  1.665822E-01
  1.658160E-01
  1.649253E-01
  1.640346E-01
  1.631439E-01
  1.622533E-01
  1.611981E-01
  1.599395E-01
  1.586811E-01
  1.574227E-01
  1.561644E-01
  1.546011E-01
  1.528600E-01
  1.511246E-01
  1.493839E-01
  1.476121E-01
  1.453100E-01
  1.430086E-01
  1.407081E-01
  1.384084E-01
  1.357477E-01
  1.329404E-01
  1.301347E-01
  1.273305E-01
  1.243410E-01
  1.212185E-01
  1.180982E-01
  1.149800E-01
  1.117951E-01
  1.085768E-01
  1.053607E-01
  1.021469E-01
  9.902107E-02
  9.590369E-02
  9.278835E-02
  8.977857E-02
  8.693202E-02
  8.408706E-02
  8.125408E-02
  7.879113E-02
  7.632924E-02
  7.386838E-02
  7.174327E-02
  6.968621E-02
  6.762980E-02
  6.586195E-02
  6.416780E-02
  6.247407E-02
  6.105536E-02
  5.966290E-02
  5.831267E-02
  5.716161E-02
  5.601072E-02
  5.496650E-02
  5.400213E-02
  5.305167E-02
  5.222607E-02
  5.140053E-02
  5.065057E-02
  4.992569E-02
  4.924037E-02
  4.859158E-02
  4.796880E-02
  4.738500E-02
  4.682557E-02
  4.630484E-02
  4.581620E-02
  4.536328E-02
  4.496178E-02
  4.458725E-02
  4.429930E-02
  4.404973E-02
  4.387836E-02
  4.380010E-02
  4.379239E-02
  4.389305E-02
  4.413189E-02
  4.449339E-02
  4.500774E-02
  4.572183E-02
  4.679880E-02
  4.848966E-02
  5.132752E-02
  5.621891E-02
  6.459481E-02
  7.882441E-02
  9.817278E-02
  1.077772E-01
  1.190915E-01
 -1.055003E-02
  5.006250E-08
  1.003233E+00
  1.003086E+00
  1.002938E+00
  1.002791E+00
  1.002643E+00
  1.002496E+00
  1.002348E+00
  1.002201E+00
  1.002054E+00
  1.001630E+00
  1.001194E+00
  1.000759E+00
  1.000323E+00
  9.998869E-01
  9.994510E-01
  9.990152E-01
  9.984975E-01
  9.978016E-01
  9.971058E-01
  9.964100E-01
  9.957141E-01
  9.950183E-01
  9.943225E-01
  9.936118E-01
  9.926472E-01