 Title= "ADflow Lift Distribution Data"
Variables = "eta" "CoordinateX" "CoordinateY" "CoordinateZ" "Lift" "Drag" "Moment" "Normalized Lift" "Normalized Drag" "Normalized Moment" "CL" "CD" "CM" "CLp" "CDp" "CMp" "CLv" "CDv" "CMv" "Elliptical" "thickness" "twist" "chord" "fx" "fy" "fz" 
Zone T= "LiftDist_01 allWalls: : z normal"
 I=          150
 DATAPACKING=BLOCK
  0.000000E+00
  6.711405E-03
  1.342281E-02
  2.013422E-02
  2.684563E-02
  3.355704E-02
  4.026845E-02
  4.697986E-02
  5.369127E-02
  6.040268E-02
  6.711409E-02
  7.382550E-02
  8.053691E-02
  8.724832E-02
  9.395973E-02
  1.006711E-01
  1.073825E-01
  1.140940E-01
  1.208054E-01
  1.275168E-01
  1.342282E-01
  1.409396E-01
  1.476510E-01
  1.543624E-01
  1.610738E-01
  1.677852E-01
  1.744966E-01
  1.812081E-01
  1.879195E-01
  1.946309E-01
  2.013423E-01
  2.080537E-01
  2.147651E-01
  2.214765E-01
  2.281879E-01
  2.348993E-01
  2.416107E-01
  2.483221E-01
  2.550336E-01
  2.617450E-01
  2.684564E-01
  2.751678E-01
  2.818792E-01
  2.885906E-01
  2.953020E-01
  3.020134E-01
  3.087248E-01
  3.154362E-01
  3.221476E-01
  3.288591E-01
  3.355705E-01
  3.422819E-01
  3.489933E-01
  3.557047E-01
  3.624161E-01
  3.691275E-01
  3.758389E-01
  3.825503E-01
  3.892617E-01
  3.959732E-01
  4.026846E-01
  4.093960E-01
  4.161074E-01
  4.228188E-01
  4.295302E-01
  4.362416E-01
  4.429530E-01
  4.496644E-01
  4.563758E-01
  4.630872E-01
  4.697987E-01
  4.765101E-01
  4.832215E-01
  4.899329E-01
  4.966443E-01
  5.033557E-01
  5.100671E-01
  5.167785E-01
  5.234899E-01
  5.302013E-01
  5.369128E-01
  5.436242E-01
  5.503356E-01
  5.570470E-01
  5.637584E-01
  5.704698E-01
  5.771812E-01
  5.838926E-01
  5.906040E-01
  5.973154E-01
  6.040268E-01
  6.107383E-01
  6.174497E-01
  6.241611E-01
  6.308725E-01
  6.375839E-01
  6.442953E-01
  6.510067E-01
  6.577181E-01
  6.644295E-01
  6.711409E-01
  6.778524E-01
  6.845638E-01
  6.912752E-01
  6.979866E-01
  7.046980E-01
  7.114094E-01
  7.181208E-01
  7.248322E-01
  7.315436E-01
  7.382550E-01
  7.449664E-01
  7.516779E-01
  7.583893E-01
  7.651007E-01
  7.718121E-01
  7.785235E-01
  7.852349E-01
  7.919463E-01
  7.986577E-01
  8.053691E-01
  8.120805E-01
  8.187919E-01
  8.255034E-01
  8.322148E-01
  8.389262E-01
  8.456376E-01
  8.523490E-01
  8.590604E-01
  8.657718E-01
  8.724832E-01
  8.791946E-01
  8.859060E-01
  8.926175E-01
  8.993289E-01
  9.060403E-01
  9.127517E-01
  9.194631E-01
  9.261745E-01
  9.328859E-01
  9.395973E-01
  9.463087E-01
  9.530201E-01
  9.597315E-01
  9.664430E-01
  9.731544E-01
  9.798658E-01
  9.865772E-01
  9.932886E-01
  1.000000E+00
  0.000000E+00
  0.000000E+00
  0.000000E+00
  0.000000E+00
  0.000000E+00
  0.000000E+00
  0.000000E+00
  0.000000E+00
  0.000000E+00
  0.000000E+00
  0.000000E+00
  0.000000E+00
  0.000000E+00
  0.000000E+00
  0.000000E+00
  0.000000E+00
  0.000000E+00
  0.000000E+00
  0.000000E+00
  0.000000E+00
  0.000000E+00
  0.000000E+00
  0.000000E+00
  0.000000E+00
  0.000000E+00
  0.000000E+00
  0.000000E+00
  0.000000E+00
  0.000000E+00
  0.000000E+00
  0.000000E+00
  0.000000E+00
  0.000000E+00
  0.000000E+00
  0.000000E+00
  0.000000E+00
  0.000000E+00
  0.000000E+00
  0.000000E+00
  0.000000E+00
  0.000000E+00
  0.000000E+00
  0.000000E+00
  0.000000E+00
  0.000000E+00
  0.000000E+00
  0.000000E+00
  0.000000E+00
  0.000000E+00
  0.000000E+00
  0.000000E+00
  0.000000E+00
  0.000000E+00
  0.000000E+00
  0.000000E+00
  0.000000E+00
  0.000000E+00
  0.000000E+00
  0.000000E+00
  0.000000E+00
  0.000000E+00
  0.000000E+00
  0.000000E+00
  0.000000E+00
  0.000000E+00
  0.000000E+00
  0.000000E+00
  0.000000E+00
  0.000000E+00
  0.000000E+00
  0.000000E+00
  0.000000E+00
  0.000000E+00
  0.000000E+00
  0.000000E+00
  0.000000E+00
  0.000000E+00
  0.000000E+00
  0.000000E+00
  0.000000E+00
  0.000000E+00
  0.000000E+00
  0.000000E+00
  0.000000E+00
  0.000000E+00
  0.000000E+00
  0.000000E+00
  0.000000E+00
  0.000000E+00
  0.000000E+00
  0.000000E+00
  0.000000E+00
  0.000000E+00
  0.000000E+00
  0.000000E+00
  0.000000E+00
  0.000000E+00
  0.000000E+00
  0.000000E+00
  0.000000E+00
  0.000000E+00
  0.000000E+00
  0.000000E+00
  0.000000E+00
  0.000000E+00
  0.000000E+00
  0.000000E+00
  0.000000E+00
  0.000000E+00
  0.000000E+00
  0.000000E+00
  0.000000E+00
  0.000000E+00
  0.000000E+00
  0.000000E+00
  0.000000E+00
  0.000000E+00
  0.000000E+00
  0.000000E+00
  0.000000E+00
  0.000000E+00
  0.000000E+00
  0.000000E+00
  0.000000E+00
  0.000000E+00
  0.000000E+00
  0.000000E+00
  0.000000E+00
  0.000000E+00
  0.000000E+00
  0.000000E+00
  0.000000E+00
  0.000000E+00
  0.000000E+00
  0.000000E+00
  0.000000E+00
  0.000000E+00
  0.000000E+00
  0.000000E+00
  0.000000E+00
  0.000000E+00
  0.000000E+00
  0.000000E+00
  0.000000E+00
  0.000000E+00
  0.000000E+00
  0.000000E+00
  0.000000E+00
  0.000000E+00
  0.000000E+00
  0.000000E+00
  0.000000E+00
  0.000000E+00
  0.000000E+00
  0.000000E+00
  0.000000E+00
  0.000000E+00
  0.000000E+00
  0.000000E+00
  0.000000E+00
  0.000000E+00
  0.000000E+00
  0.000000E+00
  0.000000E+00
  0.000000E+00
  0.000000E+00
  0.000000E+00
  0.000000E+00
  0.000000E+00
  0.000000E+00
  0.000000E+00
  0.000000E+00
  0.000000E+00
  0.000000E+00
  0.000000E+00
  0.000000E+00
  0.000000E+00
  0.000000E+00
  0.000000E+00
  0.000000E+00
  0.000000E+00
  0.000000E+00
  0.000000E+00
  0.000000E+00
  0.000000E+00
  0.000000E+00
  0.000000E+00
  0.000000E+00
  0.000000E+00
  0.000000E+00
  0.000000E+00
  0.000000E+00
  0.000000E+00
  0.000000E+00
  0.000000E+00
  0.000000E+00
  0.000000E+00
  0.000000E+00
  0.000000E+00
  0.000000E+00
  0.000000E+00
  0.000000E+00
  0.000000E+00
  0.000000E+00
  0.000000E+00
  0.000000E+00
  0.000000E+00
  0.000000E+00
  0.000000E+00
  0.000000E+00
  0.000000E+00
  0.000000E+00
  0.000000E+00
  0.000000E+00
  0.000000E+00
  0.000000E+00
  0.000000E+00
  0.000000E+00
  0.000000E+00
  0.000000E+00
  0.000000E+00
  0.000000E+00
  0.000000E+00
  0.000000E+00
  0.000000E+00
  0.000000E+00
  0.000000E+00
  0.000000E+00
  0.000000E+00
  0.000000E+00
  0.000000E+00
  0.000000E+00
  0.000000E+00
  0.000000E+00
  0.000000E+00
  0.000000E+00
  0.000000E+00
  0.000000E+00
  0.000000E+00
  0.000000E+00
  0.000000E+00
  0.000000E+00
  0.000000E+00
  0.000000E+00
  0.000000E+00
  0.000000E+00
  0.000000E+00
  0.000000E+00
  0.000000E+00
  0.000000E+00
  0.000000E+00
  0.000000E+00
  0.000000E+00
  0.000000E+00
  0.000000E+00
  0.000000E+00
  0.000000E+00
  0.000000E+00
  0.000000E+00
  0.000000E+00
  0.000000E+00
  0.000000E+00
  0.000000E+00
  0.000000E+00
  0.000000E+00
  0.000000E+00
  0.000000E+00
  0.000000E+00
  0.000000E+00
  0.000000E+00
  0.000000E+00
  0.000000E+00
  0.000000E+00
  0.000000E+00
  0.000000E+00
  0.000000E+00
  0.000000E+00
  0.000000E+00
  0.000000E+00
  0.000000E+00
  0.000000E+00
  0.000000E+00
  0.000000E+00
  0.000000E+00
  0.000000E+00
  0.000000E+00
  0.000000E+00
  0.000000E+00
  0.000000E+00
  0.000000E+00
  0.000000E+00
  0.000000E+00
  0.000000E+00
  0.000000E+00
  0.000000E+00
  0.000000E+00
  0.000000E+00
  0.000000E+00
  0.000000E+00
  0.000000E+00
  1.000000E-08
  1.690972E-02
  3.381945E-02
  5.072917E-02
  6.763890E-02
  8.454862E-02
  1.014583E-01
  1.183681E-01
  1.352778E-01
  1.521875E-01
  1.690972E-01
  1.860070E-01
  2.029167E-01
  2.198264E-01
  2.367361E-01
  2.536459E-01
  2.705556E-01
  2.874653E-01
  3.043750E-01
  3.212848E-01
  3.381945E-01
  3.551042E-01
  3.720139E-01
  3.889237E-01
  4.058334E-01
  4.227431E-01
  4.396528E-01
  4.565626E-01
  4.734723E-01
  4.903820E-01
  5.072917E-01
  5.242015E-01
  5.411112E-01
  5.580209E-01
  5.749306E-01
  5.918404E-01
  6.087501E-01
  6.256598E-01
  6.425695E-01
  6.594792E-01
  6.763890E-01
  6.932987E-01
  7.102084E-01
  7.271181E-01
  7.440279E-01
  7.609376E-01
  7.778473E-01
  7.947570E-01
  8.116668E-01
  8.285765E-01
  8.454862E-01
  8.623959E-01
  8.793057E-01
  8.962154E-01
  9.131251E-01
  9.300348E-01
  9.469446E-01
  9.638543E-01
  9.807640E-01
  9.976737E-01
  1.014583E+00
  1.031493E+00
  1.048403E+00
  1.065313E+00
  1.082222E+00
  1.099132E+00
  1.116042E+00
  1.132952E+00
  1.149861E+00
  1.166771E+00
  1.183681E+00
  1.200590E+00
  1.217500E+00
  1.234410E+00
  1.251320E+00
  1.268229E+00
  1.285139E+00
  1.302049E+00
  1.318958E+00
  1.335868E+00
  1.352778E+00
  1.369688E+00
  1.386597E+00
  1.403507E+00
  1.420417E+00
  1.437327E+00
  1.454236E+00
  1.471146E+00
  1.488056E+00
  1.504965E+00
  1.521875E+00
  1.538785E+00
  1.555695E+00
  1.572604E+00
  1.589514E+00
  1.606424E+00
  1.623334E+00
  1.640243E+00
  1.657153E+00
  1.674063E+00
  1.690972E+00
  1.707882E+00
  1.724792E+00
  1.741702E+00
  1.758611E+00
  1.775521E+00
  1.792431E+00
  1.809341E+00
  1.826250E+00
  1.843160E+00
  1.860070E+00
  1.876979E+00
  1.893889E+00
  1.910799E+00
  1.927709E+00
  1.944618E+00
  1.961528E+00
  1.978438E+00
  1.995347E+00
  2.012257E+00
  2.029167E+00
  2.046077E+00
  2.062986E+00
  2.079896E+00
  2.096806E+00
  2.113716E+00
  2.130625E+00
  2.147535E+00
  2.164445E+00
  2.181354E+00
  2.198264E+00
  2.215174E+00
  2.232084E+00
  2.248993E+00
  2.265903E+00
  2.282813E+00
  2.299723E+00
  2.316632E+00
  2.333542E+00
  2.350452E+00
  2.367361E+00
  2.384271E+00
  2.401181E+00
  2.418091E+00
  2.435000E+00
  2.451910E+00
  2.468820E+00
  2.485729E+00
  2.502639E+00
  2.519549E+00
  1.092117E+04
  1.091952E+04
  1.091788E+04
  1.091624E+04
  1.091460E+04
  1.091296E+04
  1.091131E+04
  1.090968E+04
  1.090804E+04
  1.090478E+04
  1.090146E+04
  1.089813E+04
  1.089480E+04
  1.089148E+04
  1.088815E+04
  1.088483E+04
  1.088118E+04
  1.087684E+04
  1.087249E+04
  1.086815E+04
  1.086380E+04
  1.085946E+04
  1.085512E+04
  1.085062E+04
  1.084355E+04
  1.083649E+04
  1.082942E+04
  1.082235E+04
  1.081529E+04
  1.080822E+04
  1.080065E+04
  1.079044E+04
  1.078023E+04
  1.077001E+04
  1.075980E+04
  1.074958E+04
  1.073937E+04
  1.072730E+04
  1.071403E+04
  1.070076E+04
  1.068749E+04
  1.067421E+04
  1.066094E+04
  1.064646E+04
  1.063002E+04
  1.061358E+04
  1.059714E+04
  1.058070E+04
  1.056426E+04
  1.054620E+04
  1.052632E+04
  1.050644E+04
  1.048656E+04
  1.046668E+04
  1.044680E+04
  1.042373E+04
  1.040011E+04
  1.037649E+04
  1.035287E+04
  1.032925E+04
  1.030355E+04
  1.027590E+04
  1.024826E+04
  1.022061E+04
  1.019296E+04
  1.016335E+04
  1.013133E+04
  1.009930E+04
  1.006727E+04
  1.003524E+04
  1.000021E+04
  9.963418E+03
  9.926632E+03
  9.889846E+03
  9.852784E+03
  9.811039E+03
  9.769297E+03
  9.727558E+03
  9.685821E+03
  9.640567E+03
  9.593877E+03
  9.547191E+03
  9.500510E+03
  9.451053E+03
  9.399592E+03
  9.348136E+03
  9.296685E+03
  9.242422E+03
  9.186698E+03
  9.130979E+03
  9.075264E+03
  9.016204E+03
  8.956902E+03
  8.897608E+03
  8.837047E+03
  8.774516E+03
  8.711999E+03
  8.649408E+03
  8.583716E+03
  8.518058E+03
  8.452433E+03
  8.384342E+03
  8.315801E+03
  8.247314E+03
  8.176253E+03
  8.104588E+03
  8.032988E+03
  7.957590E+03
  7.881894E+03
  7.805391E+03
  7.724823E+03
  7.644314E+03
  7.560801E+03
  7.475047E+03
  7.388801E+03
  7.297698E+03
  7.206637E+03
  7.111702E+03
  7.015505E+03
  6.916917E+03
  6.816118E+03
  6.713669E+03
  6.608728E+03
  6.502359E+03
  6.393702E+03
  6.283577E+03
  6.171814E+03
  6.058354E+03
  5.944012E+03
  5.827608E+03
  5.710505E+03
  5.592043E+03
  5.472335E+03
  5.351751E+03
  5.229916E+03
  5.106589E+03
  4.982048E+03
  4.856221E+03
  4.729192E+03
  4.602146E+03
  4.479778E+03
  4.371716E+03
  4.293609E+03
  4.272450E+03
  4.367688E+03
  4.546510E+03
  4.354594E+03
  4.534251E+03
  1.390279E+03
  2.224017E-03
  6.075791E+02
  6.072425E+02
  6.069062E+02
  6.065701E+02
  6.062342E+02
  6.058985E+02
  6.055630E+02
  6.052278E+02
  6.048927E+02
  6.045076E+02
  6.041204E+02
  6.037334E+02
  6.033468E+02
  6.029604E+02
  6.025742E+02
  6.021884E+02
  6.019375E+02
  6.019801E+02
  6.020229E+02
  6.020659E+02
  6.021091E+02
  6.021525E+02
  6.021961E+02
  6.022457E+02
  6.023957E+02
  6.025459E+02
  6.026962E+02
  6.028466E+02
  6.029973E+02
  6.031481E+02
  6.033004E+02
  6.034598E+02
  6.036194E+02
  6.037791E+02
  6.039389E+02
  6.040989E+02
  6.042590E+02
  6.044270E+02
  6.046000E+02
  6.047732E+02
  6.049464E+02
  6.051197E+02
  6.052932E+02
  6.054670E+02
  6.056412E+02
  6.058155E+02
  6.059899E+02
  6.061644E+02
  6.063388E+02
  6.064933E+02
  6.066252E+02
  6.067572E+02
  6.068892E+02
  6.070212E+02
  6.071532E+02
  6.071870E+02
  6.072038E+02
  6.072207E+02
  6.072375E+02
  6.072544E+02
  6.071673E+02
  6.069831E+02
  6.067988E+02
  6.066144E+02
  6.064299E+02
  6.061078E+02
  6.056155E+02
  6.051230E+02
  6.046303E+02
  6.041374E+02
  6.033795E+02
  6.024666E+02
  6.015534E+02
  6.006400E+02
  5.996996E+02
  5.983099E+02
  5.969201E+02
  5.955300E+02
  5.941398E+02
  5.923732E+02
  5.904525E+02
  5.885320E+02
  5.866115E+02
  5.843096E+02
  5.817321E+02
  5.791548E+02
  5.765778E+02
  5.735157E+02
  5.702015E+02
  5.668881E+02
  5.635754E+02
  5.595679E+02
  5.555111E+02
  5.514564E+02
  5.470620E+02
  5.421388E+02
  5.372211E+02
  5.322831E+02
  5.264434E+02
  5.206147E+02
  5.147970E+02
  5.085443E+02
  5.022172E+02
  4.959052E+02
  4.896467E+02
  4.834136E+02
  4.771958E+02
  4.713797E+02
  4.656129E+02
  4.599703E+02
  4.548692E+02
  4.497764E+02
  4.451402E+02
  4.408454E+02
  4.366379E+02
  4.331817E+02
  4.297278E+02
  4.268659E+02
  4.242010E+02
  4.219129E+02
  4.199734E+02
  4.182551E+02
  4.168685E+02
  4.155874E+02
  4.144738E+02
  4.134102E+02
  4.124033E+02
  4.114360E+02
  4.104935E+02
  4.096311E+02
  4.088299E+02
  4.081537E+02
  4.077022E+02
  4.074579E+02
  4.075718E+02
  4.082564E+02
  4.095255E+02
  4.115720E+02
  4.146885E+02
  4.197306E+02
  4.278048E+02
  4.411301E+02
  4.633522E+02
  5.006721E+02
  5.653454E+02
  6.571881E+02
  7.080880E+02
  8.209152E+02
  3.717075E+02
  4.848961E-04
  1.830826E+03
  1.831240E+03
  1.831654E+03
  1.832069E+03
  1.832484E+03
  1.832900E+03
  1.833316E+03
  1.833732E+03
  1.834149E+03
  1.835614E+03
  1.837128E+03
  1.838642E+03
  1.840156E+03
  1.841671E+03
  1.843186E+03
  1.844701E+03
  1.846392E+03
  1.848465E+03
  1.850537E+03
  1.852610E+03
  1.854684E+03
  1.856757E+03
  1.858831E+03
  1.860884E+03
  1.862580E+03
  1.864277E+03
  1.865974E+03
  1.867672E+03
  1.869369E+03
  1.871067E+03
  1.872667E+03
  1.873745E+03
  1.874824E+03
  1.875903E+03
  1.876982E+03
  1.878062E+03
  1.879142E+03
  1.879829E+03
  1.880263E+03
  1.880696E+03
  1.881130E+03
  1.881565E+03
  1.881999E+03
  1.882144E+03
  1.881822E+03
  1.881501E+03
  1.881180E+03
  1.880859E+03
  1.880538E+03
  1.879804E+03
  1.878603E+03
  1.877403E+03
  1.876202E+03
  1.875002E+03
  1.873801E+03
  1.871767E+03
  1.869588E+03
  1.867410E+03
  1.865232E+03
  1.863054E+03
  1.860313E+03
  1.857045E+03
  1.853777E+03
  1.850509E+03
  1.847242E+03
  1.843409E+03
  1.838878E+03
  1.834347E+03
  1.829816E+03
  1.825285E+03
  1.819866E+03
  1.813926E+03
  1.807987E+03
  1.802048E+03
  1.796034E+03
  1.788750E+03
  1.781467E+03
  1.774184E+03
  1.766901E+03
  1.758776E+03
  1.750307E+03
  1.741840E+03
  1.733373E+03
  1.724275E+03
  1.714720E+03
  1.705167E+03
  1.695616E+03
  1.685538E+03
  1.675187E+03
  1.664839E+03
  1.654493E+03
  1.643812E+03
  1.633110E+03
  1.622412E+03
  1.611578E+03
  1.600534E+03
  1.589497E+03
  1.578445E+03
  1.566621E+03
  1.554811E+03
  1.542986E+03
  1.530306E+03
  1.517468E+03
  1.504651E+03
  1.490733E+03
  1.476554E+03
  1.462401E+03
  1.446340E+03
  1.430123E+03
  1.413459E+03
  1.394578E+03
  1.375719E+03
  1.355211E+03
  1.333469E+03
  1.311459E+03
  1.286877E+03
  1.262307E+03
  1.235783E+03
  1.208615E+03
  1.180403E+03
  1.151225E+03
  1.121582E+03
  1.091238E+03
  1.060770E+03
  1.030103E+03
  9.996417E+02
  9.694107E+02
  9.398948E+02
  9.107653E+02
  8.831651E+02
  8.563090E+02
  8.309845E+02
  8.075407E+02
  7.855173E+02
  7.656641E+02
  7.484598E+02
  7.334685E+02
  7.210811E+02
  7.118513E+02
  7.077704E+02
  7.116739E+02
  7.298612E+02
  7.731075E+02
  8.580492E+02
  1.010754E+03
  1.218370E+03
  1.296968E+03
  1.363526E+03
 -5.233185E+01
  2.785914E-09
  1.226310E+00
  1.226125E+00
  1.225940E+00
  1.225756E+00
  1.225571E+00
  1.225387E+00
  1.225203E+00
  1.225019E+00
  1.224835E+00
  1.224469E+00
  1.224096E+00
  1.223722E+00
  1.223349E+00
  1.222976E+00
  1.222602E+00
  1.222229E+00
  1.221820E+00
  1.221332E+00
  1.220844E+00
  1.220356E+00
  1.219868E+00
  1.219380E+00
  1.218893E+00
  1.218388E+00
  1.217594E+00
  1.216801E+00
  1.216007E+00
  1.215214E+00
  1.214420E+00
  1.213627E+00
  1.212777E+00
  1.211630E+00
  1.210483E+00
  1.209336E+00
  1.208190E+00
  1.207043E+00
  1.205896E+00
  1.204541E+00
  1.203050E+00
  1.201560E+00
  1.200070E+00
  1.198580E+00
  1.197089E+00
  1.195463E+00
  1.193617E+00
  1.191771E+00
  1.189925E+00
  1.188079E+00
  1.186233E+00
  1.184205E+00
  1.181973E+00
  1.179741E+00
  1.177508E+00
  1.175276E+00
  1.173044E+00
  1.170453E+00
  1.167801E+00
  1.165149E+00
  1.162497E+00
  1.159845E+00
  1.156959E+00
  1.153854E+00
  1.150750E+00
  1.147645E+00
  1.144541E+00
  1.141217E+00
  1.137620E+00
  1.134024E+00
  1.130427E+00
  1.126831E+00
  1.122897E+00
  1.118766E+00
  1.114636E+00
  1.110505E+00
  1.106343E+00
  1.101656E+00
  1.096969E+00
  1.092282E+00
  1.087595E+00
  1.082514E+00
  1.077271E+00
  1.072029E+00
  1.066787E+00
  1.061234E+00
  1.055456E+00
  1.049678E+00
  1.043900E+00
  1.037807E+00
  1.031550E+00
  1.025294E+00
  1.019038E+00
  1.012406E+00
  1.005747E+00
  9.990891E-01
  9.922889E-01
  9.852674E-01
  9.782475E-01
  9.712194E-01
  9.638430E-01
  9.564704E-01
  9.491016E-01
  9.414559E-01
  9.337596E-01
  9.260693E-01
  9.180901E-01
  9.100430E-01
  9.020032E-01
  8.935370E-01
  8.850372E-01
  8.764470E-01
  8.674002E-01
  8.583600E-01
  8.489826E-01
  8.393535E-01
  8.296691E-01
  8.194395E-01
  8.092144E-01
  7.985544E-01
  7.877527E-01
  7.766825E-01
  7.653641E-01
  7.538604E-01
  7.420768E-01
  7.301329E-01
  7.179320E-01
  7.055664E-01
  6.930169E-01
  6.802768E-01
  6.674376E-01
  6.543669E-01
  6.412176E-01
  6.279159E-01
  6.144742E-01
  6.009342E-01
  5.872536E-01
  5.734055E-01
  5.594212E-01
  5.452924E-01
  5.310286E-01
  5.167629E-01
  5.030226E-01
  4.908885E-01
  4.821182E-01
  4.797423E-01
  4.904362E-01
  5.105158E-01
  4.889660E-01
  5.091392E-01
  1.561108E-01
  2.497291E-07
  1.108210E+00
  1.107596E+00
  1.106983E+00
  1.106370E+00
  1.105757E+00
  1.105145E+00
  1.104533E+00
  1.103921E+00
  1.103310E+00
  1.102607E+00
  1.101901E+00
  1.101196E+00
  1.100490E+00
  1.099785E+00
  1.099081E+00
  1.098377E+00
  1.097920E+00
  1.097997E+00
  1.098076E+00
  1.098154E+00
  1.098233E+00
  1.098312E+00
  1.098391E+00
  1.098482E+00
  1.098756E+00
  1.099029E+00
  1.099304E+00
  1.099578E+00
  1.099853E+00
  1.100128E+00
  1.100406E+00
  1.100696E+00
  1.100987E+00
  1.101279E+00
  1.101570E+00
  1.101862E+00
  1.102154E+00
  1.102461E+00
  1.102776E+00
  1.103092E+00
  1.103408E+00
  1.103724E+00
  1.104040E+00
  1.104357E+00
  1.104675E+00
  1.104993E+00
  1.105311E+00
  1.105629E+00
  1.105948E+00
  1.106229E+00
  1.106470E+00
  1.106711E+00
  1.106951E+00
  1.107192E+00
  1.107433E+00
  1.107495E+00
  1.107525E+00
  1.107556E+00
  1.107587E+00
  1.107618E+00
  1.107459E+00
  1.107123E+00
  1.106787E+00
  1.106450E+00
  1.106114E+00
  1.105526E+00
  1.104628E+00
  1.103730E+00
  1.102831E+00
  1.101932E+00
  1.100550E+00
  1.098885E+00
  1.097219E+00
  1.095553E+00
  1.093838E+00
  1.091303E+00
  1.088768E+00
  1.086233E+00
  1.083697E+00
  1.080475E+00
  1.076971E+00
  1.073468E+00
  1.069966E+00
  1.065767E+00
  1.061066E+00
  1.056365E+00
  1.051664E+00
  1.046079E+00
  1.040034E+00
  1.033990E+00
  1.027948E+00
  1.020639E+00
  1.013239E+00
  1.005843E+00
  9.978281E-01
  9.888483E-01
  9.798785E-01
  9.708718E-01
  9.602202E-01
  9.495889E-01
  9.389775E-01
  9.275728E-01
  9.160323E-01
  9.045193E-01
  8.931039E-01
  8.817350E-01
  8.703938E-01
  8.597854E-01
  8.492669E-01
  8.389750E-01
  8.296706E-01
  8.203815E-01
  8.119252E-01
  8.040915E-01
  7.964172E-01
  7.901132E-01
  7.838134E-01
  7.785933E-01
  7.737325E-01
  7.695592E-01
  7.660216E-01
  7.628874E-01
  7.603582E-01
  7.580215E-01
  7.559903E-01
  7.540504E-01
  7.522139E-01
  7.504495E-01
  7.487305E-01
  7.471575E-01
  7.456961E-01
  7.444627E-01
  7.436392E-01
  7.431935E-01
  7.434013E-01
  7.446501E-01
  7.469648E-01
  7.506976E-01
  7.563819E-01
  7.655786E-01
  7.803058E-01
  8.046109E-01
  8.451435E-01
  9.132141E-01
  1.031177E+00
  1.198696E+00
  1.291536E+00
  1.497330E+00
  6.779857E-01
  8.844390E-07
  1.166863E+00
  1.167126E+00
  1.167391E+00
  1.167655E+00
  1.167920E+00
  1.168184E+00
  1.168450E+00
  1.168715E+00
  1.168980E+00
  1.169914E+00
  1.170879E+00
  1.171844E+00
  1.172809E+00
  1.173775E+00
  1.174740E+00
  1.175706E+00
  1.176784E+00
  1.178105E+00
  1.179426E+00
  1.180747E+00
  1.182068E+00
  1.183390E+00
  1.184711E+00
  1.186020E+00
  1.187101E+00
  1.188183E+00
  1.189264E+00
  1.190346E+00
  1.191428E+00
  1.192510E+00
  1.193530E+00
  1.194217E+00
  1.194905E+00
  1.195592E+00
  1.196280E+00
  1.196968E+00
  1.197656E+00
  1.198095E+00
  1.198371E+00
  1.198647E+00
  1.198924E+00
  1.199201E+00
  1.199478E+00
  1.199570E+00
  1.199365E+00
  1.199160E+00
  1.198956E+00
  1.198751E+00
  1.198547E+00
  1.198078E+00
  1.197313E+00
  1.196548E+00
  1.195783E+00
  1.195018E+00
  1.194253E+00
  1.192956E+00
  1.191568E+00
  1.190179E+00
  1.188791E+00
  1.187403E+00
  1.185656E+00
  1.183573E+00
  1.181491E+00
  1.179408E+00
  1.177325E+00
  1.174882E+00
  1.171995E+00
  1.169107E+00
  1.166219E+00
  1.163332E+00
  1.159877E+00
  1.156092E+00
  1.152307E+00
  1.148521E+00
  1.144688E+00
  1.140046E+00
  1.135404E+00
  1.130762E+00
  1.126121E+00
  1.120942E+00
  1.115545E+00
  1.110148E+00
  1.104752E+00
  1.098953E+00
  1.092864E+00
  1.086775E+00
  1.080687E+00
  1.074265E+00
  1.067668E+00
  1.061072E+00
  1.054478E+00
  1.047671E+00
  1.040850E+00
  1.034032E+00
  1.027127E+00
  1.020088E+00
  1.013054E+00
  1.006010E+00
  9.984737E-01
  9.909467E-01
  9.834099E-01
  9.753287E-01
  9.671463E-01
  9.589780E-01
  9.501069E-01
  9.410701E-01
  9.320499E-01
  9.218138E-01
  9.114779E-01
  9.008570E-01
  8.888233E-01
  8.768038E-01
  8.637330E-01
  8.498762E-01
  8.358480E-01
  8.201810E-01
  8.045217E-01
  7.876165E-01
  7.703014E-01
  7.523206E-01
  7.337242E-01
  7.148316E-01
  6.954921E-01
  6.760739E-01
  6.565279E-01
  6.371139E-01
  6.178464E-01
  5.990347E-01
  5.804692E-01
  5.628785E-01
  5.457619E-01
  5.296216E-01
  5.146798E-01
  5.006434E-01
  4.879901E-01
  4.770251E-01
  4.674705E-01
  4.595755E-01
  4.536930E-01
  4.510920E-01
  4.535799E-01
  4.651714E-01
  4.927341E-01
  5.468710E-01
  6.441963E-01
  7.765190E-01
  8.266126E-01
  8.690330E-01
 -3.335330E-02
  1.775581E-12
  9.669491E-01
  9.668041E-01
  9.666591E-01
  9.665142E-01
  9.663693E-01
  9.662245E-01
  9.660798E-01
  9.659351E-01
  9.657905E-01
  9.655028E-01
  9.652087E-01
  9.649146E-01
  9.646205E-01
  9.643266E-01
  9.640327E-01
  9.637388E-01
  9.634165E-01
  9.630320E-01
  9.626476E-01
  9.622633E-01
  9.618790E-01
  9.614947E-01
  9.611105E-01
  9.607129E-01
  9.600874E-01
  9.594619E-01
  9.588365E-01
  9.582111E-01
  9.575857E-01
  9.569604E-01
  9.562908E-01
  9.553866E-01
  9.544825E-01
  9.535784E-01
  9.526743E-01
  9.517702E-01
  9.508662E-01
  9.497977E-01
  9.486227E-01
  9.474478E-01
  9.462729E-01
  9.450980E-01
  9.439231E-01
  9.426407E-01
  9.411853E-01
  9.397298E-01
  9.382743E-01
  9.368189E-01
  9.353635E-01
  9.337647E-01
  9.320046E-01
  9.302444E-01
  9.284842E-01
  9.267241E-01
  9.249639E-01
  9.229213E-01
  9.208300E-01
  9.187388E-01
  9.166475E-01
  9.145563E-01
  9.122807E-01
  9.098328E-01
  9.073849E-01
  9.049370E-01
  9.024891E-01
  8.998676E-01
  8.970317E-01
  8.941958E-01
  8.913599E-01
  8.885240E-01
  8.854221E-01
  8.821648E-01
  8.789076E-01
  8.756505E-01
  8.723689E-01
  8.686727E-01
  8.649767E-01
  8.612809E-01
  8.575854E-01
  8.535785E-01
  8.494444E-01
  8.453107E-01
  8.411773E-01
  8.367984E-01
  8.322420E-01
  8.276860E-01
  8.231304E-01
  8.183261E-01
  8.133924E-01
  8.084592E-01
  8.035263E-01
  7.982976E-01
  7.930474E-01
  7.877978E-01
  7.824363E-01
  7.769002E-01
  7.713655E-01
  7.658241E-01
  7.600082E-01
  7.541951E-01
  7.483845E-01
  7.423552E-01
  7.362858E-01
  7.302209E-01
  7.239279E-01
  7.175813E-01
  7.112402E-01
  7.045629E-01
  6.978591E-01
  6.910839E-01
  6.839490E-01
  6.768194E-01
  6.694242E-01
  6.618310E-01
  6.541943E-01
  6.461284E-01
  6.380662E-01
  6.296617E-01
  6.211456E-01
  6.124180E-01
  6.034950E-01
  5.944259E-01
  5.851362E-01
  5.757198E-01
  5.661006E-01
  5.563513E-01
  5.464565E-01
  5.364111E-01
  5.262868E-01
  5.159795E-01
  5.056099E-01
  4.951198E-01
  4.845190E-01
  4.738404E-01
  4.630507E-01
  4.521288E-01
  4.410992E-01
  4.299556E-01
  4.187055E-01
  4.074539E-01
  3.966165E-01
  3.870456E-01
  3.801268E-01
  3.782497E-01
  3.866773E-01
  4.025044E-01
  3.855097E-01
  4.014101E-01
  1.433798E-01
  3.945634E-02
  5.379443E-02
  5.376466E-02
  5.373491E-02
  5.370518E-02
  5.367547E-02
  5.364578E-02
  5.361610E-02
  5.358645E-02
  5.355681E-02
  5.352273E-02
  5.348848E-02
  5.345424E-02
  5.342003E-02
  5.338584E-02
  5.335168E-02
  5.331753E-02
  5.329534E-02
  5.329914E-02
  5.330295E-02
  5.330678E-02
  5.331062E-02
  5.331448E-02
  5.331836E-02
  5.332277E-02
  5.333607E-02
  5.334938E-02
  5.336271E-02
  5.337605E-02
  5.338940E-02
  5.340277E-02
  5.341627E-02
  5.343040E-02
  5.344454E-02
  5.345869E-02
  5.347286E-02
  5.348703E-02
  5.350122E-02
  5.351610E-02
  5.353143E-02
  5.354677E-02
  5.356212E-02
  5.357748E-02
  5.359284E-02
  5.360824E-02
  5.362367E-02
  5.363911E-02
  5.365456E-02
  5.367001E-02
  5.368547E-02
  5.369915E-02
  5.371083E-02
  5.372252E-02
  5.373421E-02
  5.374590E-02
  5.375759E-02
  5.376058E-02
  5.376208E-02
  5.376357E-02
  5.376506E-02
  5.376656E-02
  5.375885E-02
  5.374254E-02
  5.372622E-02
  5.370989E-02
  5.369355E-02
  5.366503E-02
  5.362144E-02
  5.357783E-02
  5.353421E-02
  5.349056E-02
  5.342345E-02
  5.334262E-02
  5.326176E-02
  5.318088E-02
  5.309761E-02
  5.297456E-02
  5.285149E-02
  5.272841E-02
  5.260531E-02
  5.244888E-02
  5.227882E-02
  5.210877E-02
  5.193872E-02
  5.173490E-02
  5.150668E-02
  5.127849E-02
  5.105032E-02
  5.077921E-02
  5.048578E-02
  5.019241E-02
  4.989912E-02
  4.954432E-02
  4.918515E-02
  4.882618E-02
  4.843712E-02
  4.800125E-02
  4.756587E-02
  4.712869E-02
  4.661166E-02
  4.609561E-02
  4.558049E-02
  4.502685E-02
  4.446659E-02
  4.390767E-02
  4.335346E-02
  4.280151E-02
  4.225088E-02
  4.173583E-02
  4.122514E-02
  4.072545E-02
  4.027372E-02
  3.982272E-02
  3.941218E-02
  3.903188E-02
  3.865932E-02
  3.835333E-02
  3.804754E-02
  3.779420E-02
  3.755831E-02
  3.735582E-02
  3.718420E-02
  3.703216E-02
  3.690950E-02
  3.679617E-02
  3.669766E-02
  3.660356E-02
  3.651446E-02
  3.642885E-02
  3.634537E-02
  3.626896E-02
  3.619793E-02
  3.613795E-02
  3.609784E-02
  3.607604E-02
  3.608593E-02
  3.614633E-02
  3.625845E-02
  3.643938E-02
  3.671501E-02
  3.716111E-02
  3.787563E-02
  3.905502E-02
  4.102204E-02
  4.432564E-02
  5.005079E-02
  5.818113E-02
  6.268663E-02
  7.267433E-02
  3.833429E-02
  8.602553E-03
  1.620994E-01
  1.621362E-01
  1.621730E-01
  1.622098E-01
  1.622466E-01
  1.622835E-01
  1.623204E-01
  1.623574E-01
  1.623943E-01
  1.625242E-01
  1.626582E-01
  1.627924E-01
  1.629265E-01
  1.630607E-01
  1.631949E-01
  1.633292E-01
  1.634789E-01
  1.636625E-01
  1.638461E-01
  1.640297E-01
  1.642133E-01
  1.643970E-01
  1.645806E-01
  1.647625E-01
  1.649127E-01
  1.650630E-01
  1.652133E-01
  1.653637E-01
  1.655140E-01
  1.656644E-01
  1.658061E-01
  1.659016E-01
  1.659972E-01
  1.660927E-01
  1.661883E-01
  1.662840E-01
  1.663796E-01
  1.664405E-01
  1.664789E-01
  1.665174E-01
  1.665558E-01
  1.665943E-01
  1.666328E-01
  1.666456E-01
  1.666172E-01
  1.665888E-01
  1.665604E-01
  1.665320E-01
  1.665036E-01
  1.664385E-01
  1.663322E-01
  1.662260E-01
  1.661197E-01
  1.660134E-01
  1.659071E-01
  1.657270E-01
  1.655341E-01
  1.653413E-01
  1.651484E-01
  1.649556E-01
  1.647129E-01
  1.644235E-01
  1.641342E-01
  1.638449E-01
  1.635555E-01
  1.632162E-01
  1.628150E-01
  1.624138E-01
  1.620127E-01
  1.616115E-01
  1.611316E-01
  1.606057E-01
  1.600798E-01
  1.595540E-01
  1.590215E-01
  1.583765E-01
  1.577316E-01
  1.570868E-01
  1.564419E-01
  1.557225E-01
  1.549727E-01
  1.542229E-01
  1.534732E-01
  1.526677E-01
  1.518217E-01
  1.509759E-01
  1.501302E-01
  1.492379E-01
  1.483215E-01
  1.474053E-01
  1.464893E-01
  1.455437E-01
  1.445962E-01
  1.436490E-01
  1.426899E-01
  1.417121E-01
  1.407350E-01
  1.397565E-01
  1.387097E-01
  1.376641E-01
  1.366170E-01
  1.354943E-01
  1.343575E-01
  1.332225E-01
  1.319899E-01
  1.307343E-01
  1.294809E-01
  1.280586E-01
  1.266224E-01
  1.251466E-01
  1.234747E-01
  1.218047E-01
  1.199887E-01
  1.180636E-01
  1.161147E-01
  1.139383E-01
  1.117630E-01
  1.094147E-01
  1.070095E-01
  1.045119E-01
  1.019288E-01
  9.930447E-02
  9.661811E-02
  9.392077E-02
  9.120565E-02
  8.850882E-02
  8.583227E-02
  8.321897E-02
  8.063977E-02
  7.819591E-02
  7.581788E-02
  7.357542E-02
  7.149942E-02
  6.954916E-02
  6.779101E-02
  6.626736E-02
  6.493962E-02
  6.384241E-02
  6.302474E-02
  6.266291E-02
  6.300794E-02
  6.461755E-02
  6.844565E-02
  7.596504E-02
  8.948341E-02
  1.078628E-01
  1.148198E-01
  1.207109E-01
 -5.396997E-03
  4.942496E-08
  9.671482E-01
  9.670031E-01
  9.668580E-01
  9.667129E-01
  9.665679E-01
  9.664230E-01
  9.662782E-01
  9.661334E-01
  9.659887E-01
  9.657008E-01
  9.654064E-01
  9.651121E-01
  9.648179E-01
  9.645237E-01
  9.642296E-01
  9.639355E-01
  9.636130E-01
  9.632285E-01
  9.628440E-01
  9.624595E-01
  9.620751E-01
  9.616907E-01
  9.613064E-01
  9.609088E-01
  9.602833E-01