 Title = "ADflow Slice Data"
Variables =  "CoordinateX"  "CoordinateY"  "CoordinateZ"  "XoC"  "YoC"  "ZoC" "VelocityX" "VelocityY" "VelocityZ" "CoefPressure" "Mach" 
Zone T= "Slice_0001 None Relative Regular z = 0.10000000"
 Nodes =          116  Elements=          112  ZONETYPE=FELINESEG
 DATAPACKING=POINT
  9.900000E-01  1.216770E-02  1.000000E-01  9.999996E-01  2.020145E-04  5.609076E-17  1.010669E-02 -9.015912E-03 -1.650657E-04 -2.304793E-02  0.000000E+00
  9.845260E-01  1.391265E-02  1.000000E-01  9.944684E-01  1.965184E-03  7.011345E-17  1.283451E-02 -4.099073E-03 -1.451812E-04  2.070098E-02  0.000000E+00
  9.783536E-01  1.584471E-02  1.000000E-01  9.882315E-01  3.917421E-03  1.402269E-17  1.030307E-02 -3.109212E-03 -1.344850E-04 -1.189096E-02  0.000000E+00
  9.713889E-01  1.790767E-02  1.000000E-01  9.811942E-01  6.001917E-03  7.011345E-17  8.771338E-03 -2.574443E-03 -1.309134E-04 -2.912806E-02  0.000000E+00
  9.635599E-01  2.016954E-02  1.000000E-01  9.732834E-01  8.287409E-03  0.000000E+00  8.889822E-03 -2.517094E-03 -1.320724E-04 -5.518783E-02  0.000000E+00
  9.547713E-01  2.261473E-02  1.000000E-01  9.644031E-01  1.075813E-02  5.609076E-17  1.017606E-02 -2.776985E-03 -1.360466E-04 -8.309733E-02  0.000000E+00
  9.449291E-01  2.525412E-02  1.000000E-01  9.544581E-01  1.342508E-02  1.402269E-17  1.201553E-02 -3.160087E-03 -1.410310E-04 -1.137042E-01  0.000000E+00
  9.339353E-01  2.809489E-02  1.000000E-01  9.433495E-01  1.629551E-02  9.815883E-17  1.407433E-02 -3.555244E-03 -1.462298E-04 -1.464902E-01  0.000000E+00
  9.216870E-01  3.112514E-02  1.000000E-01  9.309734E-01  1.935739E-02  5.609076E-17  1.620134E-02 -3.911014E-03 -1.511413E-04 -1.805489E-01  0.000000E+00
  9.080826E-01  3.433390E-02  1.000000E-01  9.172268E-01  2.259966E-02  1.402269E-17  1.829157E-02 -4.203585E-03 -1.550140E-04 -2.156501E-01  0.000000E+00
  8.930237E-01  3.770990E-02  1.000000E-01  9.020107E-01  2.601090E-02  5.609076E-17  2.026436E-02 -4.409700E-03 -1.572346E-04 -2.498603E-01  0.000000E+00
  8.764155E-01  4.122085E-02  1.000000E-01  8.852291E-01  2.955852E-02  0.000000E+00  2.205577E-02 -4.527335E-03 -1.575068E-04 -2.824638E-01  0.000000E+00
  8.581774E-01  4.485647E-02  1.000000E-01  8.668006E-01  3.323210E-02  4.907942E-16  2.363466E-02 -4.568663E-03 -1.557892E-04 -3.133490E-01  0.000000E+00
  8.382414E-01  4.859253E-02  1.000000E-01  8.466564E-01  3.700717E-02  4.487261E-16  2.500006E-02 -4.544412E-03 -1.521905E-04 -3.418628E-01  0.000000E+00
  8.165597E-01  5.241212E-02  1.000000E-01  8.247484E-01  4.086664E-02  5.609076E-17  2.616424E-02 -4.474830E-03 -1.468352E-04 -3.687499E-01  0.000000E+00
  7.931090E-01  5.630060E-02  1.000000E-01  8.010528E-01  4.479572E-02  1.402269E-17  2.716896E-02 -4.378205E-03 -1.399431E-04 -3.950014E-01  0.000000E+00
  7.678944E-01  6.024229E-02  1.000000E-01  7.755749E-01  4.877857E-02  2.804538E-17  2.807717E-02 -4.268130E-03 -1.318418E-04 -4.217983E-01  0.000000E+00
  7.409532E-01  6.421597E-02  1.000000E-01  7.483524E-01  5.279374E-02  4.907942E-16  2.896190E-02 -4.151803E-03 -1.229927E-04 -4.500686E-01  0.000000E+00
  7.123572E-01  6.819018E-02  1.000000E-01  7.194578E-01  5.680944E-02  5.609076E-17  2.989457E-02 -4.030111E-03 -1.140114E-04 -4.804279E-01  0.000000E+00
  6.822143E-01  7.212084E-02  1.000000E-01  6.890002E-01  6.078115E-02  5.609076E-17  3.093673E-02 -3.898619E-03 -1.056236E-04 -5.138905E-01  0.000000E+00
  6.506675E-01  7.594971E-02  1.000000E-01  6.571240E-01  6.464999E-02  2.804538E-17  3.213245E-02 -3.753160E-03 -9.849623E-05 -5.526819E-01  0.000000E+00
  6.178953E-01  7.961943E-02  1.000000E-01  6.240096E-01  6.835803E-02 -2.804538E-17  3.352000E-02 -3.569750E-03 -9.310009E-05 -5.967414E-01  0.000000E+00
  5.841133E-01  8.302762E-02  1.000000E-01  5.898749E-01  7.180180E-02  2.804538E-17  3.510513E-02 -3.299395E-03 -8.960956E-05 -6.414110E-01  0.000000E+00
  5.495706E-01  8.603538E-02  1.000000E-01  5.549716E-01  7.484097E-02  9.815883E-17  3.678945E-02 -2.929683E-03 -8.775285E-05 -6.833317E-01  0.000000E+00
  5.145480E-01  8.856382E-02  1.000000E-01  5.195832E-01  7.739581E-02  2.804538E-17  3.843081E-02 -2.485796E-03 -8.694965E-05 -7.220981E-01  0.000000E+00
  4.793451E-01  9.057590E-02  1.000000E-01  4.840128E-01  7.942890E-02  2.804538E-17  3.995717E-02 -1.990245E-03 -8.659594E-05 -7.581995E-01  0.000000E+00
  4.442686E-01  9.206351E-02  1.000000E-01  4.485700E-01  8.093204E-02 -4.206807E-17  4.140100E-02 -1.459893E-03 -8.618993E-05 -7.941264E-01  0.000000E+00
  4.096206E-01  9.303431E-02  1.000000E-01  4.135602E-01  8.191298E-02  7.011345E-17  4.289505E-02 -8.971737E-04 -8.537502E-05 -8.347838E-01  0.000000E+00
  3.756882E-01  9.349793E-02  1.000000E-01  3.792736E-01  8.238144E-02  2.804538E-17  4.463255E-02 -2.793087E-04 -8.392661E-05 -8.857079E-01  0.000000E+00
  3.427351E-01  9.345603E-02  1.000000E-01  3.459764E-01  8.233910E-02  2.804538E-17  4.683403E-02  4.881035E-04 -8.183091E-05 -9.458662E-01  0.000000E+00
  3.109952E-01  9.283631E-02  1.000000E-01  3.139051E-01  8.171291E-02  0.000000E+00  4.959404E-02  1.533378E-03 -7.918644E-05 -1.006869E+00  0.000000E+00
  2.806675E-01  9.155904E-02  1.000000E-01  2.832608E-01  8.042231E-02 -2.804538E-17  5.272125E-02  2.902329E-03 -7.597156E-05 -1.060719E+00  0.000000E+00
  2.519134E-01  8.961066E-02  1.000000E-01  2.542064E-01  7.845358E-02  4.907942E-16  5.585509E-02  4.568830E-03 -7.214765E-05 -1.101252E+00  0.000000E+00
  2.248544E-01  8.702083E-02  1.000000E-01  2.268649E-01  7.583671E-02 -4.206807E-17  5.863410E-02  6.451277E-03 -6.776441E-05 -1.124971E+00  0.000000E+00
  1.995702E-01  8.387551E-02  1.000000E-01  2.013167E-01  7.265855E-02  9.815883E-17  6.083782E-02  8.467744E-03 -6.300040E-05 -1.130005E+00  0.000000E+00
  1.761037E-01  8.025572E-02  1.000000E-01  1.776051E-01  6.900096E-02  4.487261E-16  6.234425E-02  1.048355E-02 -5.799934E-05 -1.119483E+00  0.000000E+00
  1.544558E-01  7.630313E-02  1.000000E-01  1.557313E-01  6.500710E-02  4.206807E-16  6.319912E-02  1.242217E-02 -5.292149E-05 -1.096869E+00  0.000000E+00
  1.346015E-01  7.211088E-02  1.000000E-01  1.356696E-01  6.077108E-02  5.609076E-17  6.356195E-02  1.429115E-02 -4.795901E-05 -1.063770E+00  0.000000E+00
  1.164884E-01  6.777633E-02  1.000000E-01  1.173674E-01  5.639127E-02  1.402269E-17  6.351550E-02  1.602880E-02 -4.313302E-05 -1.026443E+00  0.000000E+00
  1.000416E-01  6.339690E-02  1.000000E-01  1.007488E-01  5.196611E-02  2.804538E-17  6.319370E-02  1.766315E-02 -3.846224E-05 -9.883460E-01  0.000000E+00
  8.517641E-02  5.903212E-02  1.000000E-01  8.572845E-02  4.755576E-02  2.804538E-17  6.271567E-02  1.927449E-02 -3.397369E-05 -9.492120E-01  0.000000E+00
  7.179882E-02  5.472571E-02  1.000000E-01  7.221119E-02  4.320439E-02  1.402269E-17  6.211001E-02  2.092214E-02 -2.967654E-05 -9.069008E-01  0.000000E+00
  5.981409E-02  5.049804E-02  1.000000E-01  6.010132E-02  3.893258E-02  5.609076E-17  6.128746E-02  2.253388E-02 -2.552000E-05 -8.632435E-01  0.000000E+00
  4.911567E-02  4.639404E-02  1.000000E-01  4.929119E-02  3.478572E-02  2.804538E-17  6.019774E-02  2.410803E-02 -2.148036E-05 -8.185643E-01  0.000000E+00
  3.960719E-02  4.241581E-02  1.000000E-01  3.968343E-02  3.076596E-02  2.804538E-17  5.880099E-02  2.572865E-02 -1.757313E-05 -7.728948E-01  0.000000E+00
  3.119584E-02  3.856270E-02  1.000000E-01  3.118425E-02  2.687262E-02  8.413614E-17  5.695312E-02  2.734742E-02 -1.372017E-05 -7.348546E-01  0.000000E+00
  2.379252E-02  3.482979E-02  1.000000E-01  2.370364E-02  2.310072E-02  0.000000E+00  5.464248E-02  2.895342E-02 -9.871800E-06 -7.039623E-01  0.000000E+00
  1.731190E-02  3.121892E-02  1.000000E-01  1.715535E-02  1.945215E-02 -7.011345E-17  5.191401E-02  3.099076E-02 -6.293119E-06 -6.370710E-01  0.000000E+00
  1.171490E-02  2.764889E-02  1.000000E-01  1.149991E-02  1.584485E-02  9.815883E-17  4.803818E-02  3.364965E-02 -3.517601E-06 -5.110990E-01  0.000000E+00
  7.008801E-03  2.401589E-02  1.000000E-01  6.744673E-03  1.217392E-02  2.804538E-17  4.210185E-02  3.504292E-02 -1.495297E-06 -4.729342E-01  0.000000E+00
  9.900000E-01  1.106377E-02  1.000000E-01  9.999996E-01 -9.134411E-04  1.402269E-17  1.700265E-02 -4.382617E-03 -5.328472E-06  2.257746E-02  0.000000E+00
  9.900000E-01  1.116217E-02  1.000000E-01  9.999996E-01 -8.140127E-04  2.804538E-17  6.496774E-03 -3.074502E-02 -2.143843E-04 -1.249772E-01  0.000000E+00
  9.900000E-01  1.131113E-02  1.000000E-01  9.999996E-01 -6.634993E-04  4.206807E-17  6.732925E-04 -5.863447E-02 -4.331655E-04 -7.744941E-02  0.000000E+00
  9.900000E-01  1.150749E-02  1.000000E-01  9.999996E-01 -4.650916E-04  1.402269E-17 -1.168039E-03 -3.348854E-02 -5.281875E-04 -3.407056E-02  0.000000E+00
  9.900000E-01  1.172398E-02  1.000000E-01  9.999996E-01 -2.463349E-04  2.804538E-17 -8.765767E-04  1.157919E-02 -4.619931E-04 -4.622638E-02  0.000000E+00
  9.900000E-01  1.192034E-02  1.000000E-01  9.999996E-01 -4.792725E-05  2.804538E-17  7.363365E-04  2.368998E-02 -3.199294E-04 -9.020387E-02  0.000000E+00
  9.900000E-01  1.206930E-02  1.000000E-01  9.999996E-01  1.025862E-04  0.000000E+00  3.992759E-03  1.719009E-03 -2.115257E-04 -1.070409E-01  0.000000E+00
  9.900000E-01  1.216770E-02  1.000000E-01  9.999996E-01  2.020145E-04  7.011345E-17  1.010669E-02 -9.015912E-03 -1.650657E-04 -2.304793E-02  0.000000E+00
  7.008801E-03  6.317943E-03  1.000000E-01  6.744673E-03 -5.708820E-03  9.815883E-17  2.130641E-02 -7.742160E-03  2.683740E-05  5.021831E-01  0.000000E+00
  1.220231E-02  4.674103E-03  1.000000E-01  1.199240E-02 -7.369825E-03  2.804538E-17  2.653279E-02 -6.611021E-03  3.059087E-05  4.927792E-01  0.000000E+00
  1.825510E-02  3.475165E-03  1.000000E-01  1.810840E-02 -8.581281E-03  9.815883E-17  3.063548E-02 -4.937124E-03  3.313850E-05  3.465497E-01  0.000000E+00
  2.517288E-02  2.608085E-03  1.000000E-01  2.509841E-02 -9.457415E-03  7.011345E-17  3.314744E-02 -3.296323E-03  3.606199E-05  2.700957E-01  0.000000E+00
  3.300629E-02  2.021346E-03  1.000000E-01  3.301361E-02 -1.005028E-02  2.804538E-17  3.436720E-02 -1.851427E-03  3.873553E-05  2.430423E-01  0.000000E+00
  4.183175E-02  1.722396E-03  1.000000E-01  4.193122E-02 -1.035235E-02  1.402269E-17  3.457688E-02 -6.971402E-04  4.076211E-05  2.266059E-01  0.000000E+00
  5.172748E-02  1.656758E-03  1.000000E-01  5.193028E-02 -1.041867E-02  0.000000E+00  3.412139E-02  1.307065E-04  4.231926E-05  2.180118E-01  0.000000E+00
  6.278438E-02  1.813505E-03  1.000000E-01  6.310262E-02 -1.026029E-02  9.815883E-17  3.322858E-02  7.735688E-04  4.356828E-05  2.126536E-01  0.000000E+00
  7.509844E-02  2.212777E-03  1.000000E-01  7.554525E-02 -9.856850E-03  7.011345E-17  3.210813E-02  1.245082E-03  4.465325E-05  2.123815E-01  0.000000E+00
  8.876407E-02  2.830570E-03  1.000000E-01  8.935358E-02 -9.232607E-03  9.815883E-17  3.095950E-02  1.524144E-03  4.567588E-05  2.187664E-01  0.000000E+00
  1.038747E-01  3.633340E-03  1.000000E-01  1.046220E-01 -8.421454E-03  2.804538E-17  2.984896E-02  1.686618E-03  4.664705E-05  2.258995E-01  0.000000E+00
  1.205193E-01  4.628287E-03  1.000000E-01  1.214404E-01 -7.416119E-03  7.011345E-17  2.882577E-02  1.760114E-03  4.762326E-05  2.331417E-01  0.000000E+00
  1.387771E-01  5.764497E-03  1.000000E-01  1.398888E-01 -6.268046E-03  4.627488E-16  2.796145E-02  1.738997E-03  4.866372E-05  2.418745E-01  0.000000E+00
  1.587145E-01  6.999401E-03  1.000000E-01  1.600344E-01 -5.020247E-03  5.048168E-16  2.728774E-02  1.654198E-03  4.977014E-05  2.493750E-01  0.000000E+00
  1.803796E-01  8.279282E-03  1.000000E-01  1.819257E-01 -3.727003E-03  5.609076E-17  2.683618E-02  1.522147E-03  5.096619E-05  2.545502E-01  0.000000E+00
  2.037979E-01  9.547229E-03  1.000000E-01  2.055885E-01 -2.445817E-03  2.804538E-17  2.663281E-02  1.358857E-03  5.228622E-05  2.566692E-01  0.000000E+00
  2.289667E-01  1.074770E-02  1.000000E-01  2.310201E-01 -1.232807E-03 -4.206807E-17  2.667656E-02  1.185354E-03  5.375471E-05  2.548187E-01  0.000000E+00
  2.558504E-01  1.184979E-02  1.000000E-01  2.581845E-01 -1.192162E-04  4.206807E-16  2.691658E-02  1.027986E-03  5.536323E-05  2.484257E-01  0.000000E+00
  2.843771E-01  1.285456E-02  1.000000E-01  2.870091E-01  8.960469E-04  0.000000E+00  2.723721E-02  9.204099E-04  5.703949E-05  2.377208E-01  0.000000E+00
  3.144350E-01  1.382206E-02  1.000000E-01  3.173809E-01  1.873647E-03  5.609076E-17  2.746701E-02  9.009438E-04  5.863395E-05  2.243386E-01  0.000000E+00
  3.458716E-01  1.486597E-02  1.000000E-01  3.491456E-01  2.928456E-03  2.804538E-17  2.741119E-02  1.006075E-03  5.992604E-05  2.106502E-01  0.000000E+00
  3.784939E-01  1.617187E-02  1.000000E-01  3.821086E-01  4.247994E-03  9.815883E-17  2.694079E-02  1.216491E-03  6.071974E-05  2.011878E-01  0.000000E+00
  4.120730E-01  1.785984E-02  1.000000E-01  4.160382E-01  5.953585E-03  0.000000E+00  2.606569E-02  1.438656E-03  6.093762E-05  2.018397E-01  0.000000E+00
  4.463507E-01  1.992212E-02  1.000000E-01  4.506739E-01  8.037404E-03  0.000000E+00  2.488096E-02  1.597782E-03  6.059347E-05  2.130241E-01  0.000000E+00
  4.810495E-01  2.229165E-02  1.000000E-01  4.857349E-01  1.043167E-02  9.815883E-17  2.351432E-02  1.665455E-03  5.982910E-05  2.313189E-01  0.000000E+00
  5.158819E-01  2.484599E-02  1.000000E-01  5.209311E-01  1.301268E-02  0.000000E+00  2.210525E-02  1.634170E-03  5.894168E-05  2.539747E-01  0.000000E+00
  5.505606E-01  2.742544E-02  1.000000E-01  5.559719E-01  1.561907E-02  4.206807E-17  2.077001E-02  1.515290E-03  5.830744E-05  2.785435E-01  0.000000E+00
  5.848044E-01  2.986599E-02  1.000000E-01  5.905732E-01  1.808510E-02  5.609076E-17  1.957976E-02  1.333964E-03  5.829344E-05  3.026088E-01  0.000000E+00
  6.183442E-01  3.203420E-02  1.000000E-01  6.244632E-01  2.027595E-02  1.402269E-17  1.855933E-02  1.119733E-03  5.918047E-05  3.243153E-01  0.000000E+00
  6.509298E-01  3.384774E-02  1.000000E-01  6.573891E-01  2.210842E-02  1.402269E-17  1.770714E-02  8.915218E-04  6.111217E-05  3.431579E-01  0.000000E+00
  6.823359E-01  3.525186E-02  1.000000E-01  6.891231E-01  2.352720E-02  1.402269E-17  1.701918E-02  6.506072E-04  6.406284E-05  3.599371E-01  0.000000E+00
  7.123710E-01  3.619514E-02  1.000000E-01  7.194718E-01  2.448033E-02  7.011345E-17  1.648695E-02  3.996221E-04  6.781754E-05  3.744842E-01  0.000000E+00
  7.408829E-01  3.667197E-02  1.000000E-01  7.482814E-01  2.496214E-02  4.206807E-16  1.609953E-02  1.437177E-04  7.206906E-05  3.861780E-01  0.000000E+00
  7.677594E-01  3.669397E-02  1.000000E-01  7.754385E-01  2.498437E-02  2.804538E-17  1.585985E-02 -1.214227E-04  7.654957E-05  3.953698E-01  0.000000E+00
  7.929268E-01  3.628135E-02  1.000000E-01  8.008687E-01  2.456745E-02  2.804538E-17  1.578902E-02 -4.062128E-04  8.107766E-05  4.023113E-01  0.000000E+00
  8.163467E-01  3.545558E-02  1.000000E-01  8.245331E-01  2.373305E-02  1.402269E-17  1.591961E-02 -7.230965E-04  8.556330E-05  4.065853E-01  0.000000E+00
  8.380119E-01  3.424936E-02  1.000000E-01  8.464245E-01  2.251424E-02  4.487261E-16  1.628353E-02 -1.085238E-03  8.998789E-05  4.075115E-01  0.000000E+00
  8.579422E-01  3.270382E-02  1.000000E-01  8.665629E-01  2.095256E-02  4.487261E-16  1.689886E-02 -1.502071E-03  9.435389E-05  4.046171E-01  0.000000E+00
  8.761813E-01  3.087954E-02  1.000000E-01  8.849925E-01  1.910923E-02  0.000000E+00  1.775312E-02 -1.965385E-03  9.861129E-05  3.970897E-01  0.000000E+00
  8.927940E-01  2.886696E-02  1.000000E-01  9.017787E-01  1.707563E-02  7.011345E-17  1.880254E-02 -2.458129E-03  1.026431E-04  3.846218E-01  0.000000E+00
  9.078617E-01  2.675714E-02  1.000000E-01  9.170036E-01  1.494379E-02  2.804538E-17  1.999635E-02 -2.982253E-03  1.063106E-04  3.691473E-01  0.000000E+00
  9.214750E-01  2.460636E-02  1.000000E-01  9.307591E-01  1.277055E-02  2.804538E-17  2.126751E-02 -3.514498E-03  1.093853E-04  3.508160E-01  0.000000E+00
  9.337349E-01  2.249228E-02  1.000000E-01  9.431470E-01  1.063440E-02  5.609076E-17  2.253759E-02 -4.009844E-03  1.117098E-04  3.287978E-01  0.000000E+00
  9.447451E-01  2.047303E-02  1.000000E-01  9.542722E-01  8.594062E-03  2.804538E-17  2.379478E-02 -4.473465E-03  1.136346E-04  3.052599E-01  0.000000E+00
  9.546071E-01  1.857289E-02  1.000000E-01  9.642371E-01  6.674080E-03  2.804538E-17  2.514907E-02 -4.942770E-03  1.162939E-04  2.812496E-01  0.000000E+00
  9.634201E-01  1.680597E-02  1.000000E-01  9.731421E-01  4.888711E-03  2.804538E-17  2.675677E-02 -5.456497E-03  1.212986E-04  2.562914E-01  0.000000E+00
  9.712788E-01  1.517479E-02  1.000000E-01  9.810829E-01  3.240505E-03  2.804538E-17  2.836820E-02 -5.960632E-03  1.281711E-04  2.270288E-01  0.000000E+00
  9.782737E-01  1.368245E-02  1.000000E-01  9.881508E-01  1.732582E-03  1.402269E-17  2.860531E-02 -6.243786E-03  1.286513E-04  1.926803E-01  0.000000E+00
  9.844874E-01  1.231032E-02  1.000000E-01  9.944295E-01  3.461277E-04  2.804538E-17  2.575850E-02 -5.653310E-03  1.019674E-04  1.759491E-01  0.000000E+00
  9.900000E-01  1.106377E-02  1.000000E-01  9.999996E-01 -9.134411E-04  2.804538E-17  1.700265E-02 -4.382617E-03 -5.328472E-06  2.257746E-02  0.000000E+00
  7.008801E-03  2.401589E-02  1.000000E-01  6.744673E-03  1.217392E-02  1.402269E-17  4.210185E-02  3.504292E-02 -1.495297E-06 -4.729342E-01  0.000000E+00
  5.408827E-03  2.256075E-02  1.000000E-01  5.127993E-03  1.070358E-02  0.000000E+00  3.626659E-02  3.517525E-02  8.988994E-07 -5.384263E-01  0.000000E+00
  3.121616E-03  2.018757E-02  1.000000E-01  2.816900E-03  8.305627E-03  7.011345E-17  2.794067E-02  3.486112E-02  4.842566E-06 -3.747097E-01  0.000000E+00
  7.410024E-04  1.653353E-02  1.000000E-01  4.114304E-04  4.613432E-03  2.804538E-17  1.223112E-02  3.017181E-02  1.029131E-05  3.550247E-01  0.000000E+00
  3.338236E-04  1.196777E-02  1.000000E-01  0.000000E+00  0.000000E+00  0.000000E+00  2.297426E-04  1.458753E-02  1.541910E-05  1.058281E+00  0.000000E+00
  2.687700E-03  8.771244E-03  1.000000E-01  2.378454E-03 -3.229904E-03 -4.206807E-17  4.425489E-03 -2.276009E-03  1.883939E-05  9.608951E-01  0.000000E+00
  5.170152E-03  7.075674E-03  1.000000E-01  4.886826E-03 -4.943178E-03  5.609076E-17  1.475895E-02 -7.921274E-03  2.217708E-05  5.612285E-01  0.000000E+00
  7.008801E-03  6.317943E-03  1.000000E-01  6.744673E-03 -5.708820E-03  1.121815E-16  2.130641E-02 -7.742160E-03  2.683740E-05  5.021831E-01  0.000000E+00
    1    2
    2    3
    3    4
    4    5
    5    6
    6    7
    7    8
    8    9
    9   10
   10   11
   11   12
   12   13
   13   14
   14   15
   15   16
   16   17
   17   18
   18   19
   19   20
   20   21
   21   22
   22   23
   23   24
   24   25
   25   26
   26   27
   27   28
   28   29
   29   30
   30   31
   31   32
   32   33
   33   34
   34   35
   35   36
   36   37
   37   38
   38   39
   39   40
   40   41
   41   42
   42   43
   43   44
   44   45
   45   46
   46   47
   47   48
   48   49
   49   50
   51   52
   52   53
   53   54
   54   55
   55   56
   56   57
   57   58
   59   60
   60   61
   61   62
   62   63
   63   64
   64   65
   65   66
   66   67
   67   68
   68   69
   69   70
   70   71
   71   72
   72   73
   73   74
   74   75
   75   76
   76   77
   77   78
   78   79
   79   80
   80   81
   81   82
   82   83
   83   84
   84   85
   85   86
   86   87
   87   88
   88   89
   89   90
   90   91
   91   92
   92   93
   93   94
   94   95
   95   96
   96   97
   97   98
   98   99
   99  100
  100  101
  101  102
  102  103
  103  104
  104  105
  105  106
  106  107
  107  108
  109  110
  110  111
  111  112
  112  113
  113  114
  114  115
  115  116
Zone T= "Slice_0002 None Relative Regular z = 0.36666667"
 Nodes =          116  Elements=          112  ZONETYPE=FELINESEG
 DATAPACKING=POINT
  9.900000E-01  1.198852E-02  3.666667E-01  9.999994E-01  2.106156E-05 -2.804537E-16  1.011300E-02 -8.884532E-03 -5.633818E-04 -2.318117E-02  0.000000E+00
  9.845260E-01  1.372559E-02  3.666667E-01  9.944682E-01  1.776263E-03 -1.121815E-16  1.292285E-02 -4.106408E-03 -4.903057E-04  2.146060E-02  0.000000E+00
  9.783536E-01  1.564911E-02  3.666667E-01  9.882314E-01  3.719871E-03 -2.243630E-16  1.047244E-02 -3.144404E-03 -4.550901E-04 -1.098297E-02  0.000000E+00
  9.713889E-01  1.770293E-02  3.666667E-01  9.811940E-01  5.795135E-03 -1.682722E-16  8.969056E-03 -2.618993E-03 -4.439596E-04 -2.808392E-02  0.000000E+00
  9.635599E-01  1.995509E-02  3.666667E-01  9.732833E-01  8.070812E-03 -5.609075E-17  9.081011E-03 -2.558684E-03 -4.485746E-04 -5.388275E-02  0.000000E+00
  9.547713E-01  2.239009E-02  3.666667E-01  9.644029E-01  1.053124E-02 -2.243630E-16  1.034937E-02 -2.810997E-03 -4.627152E-04 -8.142268E-02  0.000000E+00
  9.449291E-01  2.501896E-02  3.666667E-01  9.544579E-01  1.318755E-02 -1.682722E-16  1.217192E-02 -3.186895E-03 -4.805111E-04 -1.115739E-01  0.000000E+00
  9.339353E-01  2.784907E-02  3.666667E-01  9.433493E-01  1.604721E-02 -1.682722E-16  1.421703E-02 -3.576230E-03 -4.992964E-04 -1.438243E-01  0.000000E+00
  9.216870E-01  3.086879E-02  3.666667E-01  9.309732E-01  1.909846E-02 -1.121815E-16  1.632661E-02 -3.926091E-03 -5.171288E-04 -1.772795E-01  0.000000E+00
  9.080826E-01  3.406754E-02  3.666667E-01  9.172267E-01  2.233061E-02  5.609075E-17  1.839064E-02 -4.211922E-03 -5.312618E-04 -2.117296E-01  0.000000E+00
  8.930237E-01  3.743450E-02  3.666667E-01  9.020105E-01  2.573272E-02 -5.609075E-17  2.033197E-02 -4.411677E-03 -5.395676E-04 -2.452720E-01  0.000000E+00
  8.764155E-01  4.093800E-02  3.666667E-01  8.852290E-01  2.927281E-02 -1.121815E-16  2.209180E-02 -4.524704E-03 -5.409859E-04 -2.772179E-01  0.000000E+00
  8.581774E-01  4.456847E-02  3.666667E-01  8.668005E-01  3.294118E-02  3.045728E-14  2.364168E-02 -4.563773E-03 -5.352424E-04 -3.074828E-01  0.000000E+00
  8.382414E-01  4.830255E-02  3.666667E-01  8.466563E-01  3.671425E-02  3.051337E-14  2.498182E-02 -4.539671E-03 -5.225181E-04 -3.354487E-01  0.000000E+00
  8.165597E-01  5.212430E-02  3.666667E-01  8.247482E-01  4.057590E-02 -5.609075E-17  2.612600E-02 -4.472646E-03 -5.030653E-04 -3.618926E-01  0.000000E+00
  7.931090E-01  5.602014E-02  3.666667E-01  8.010527E-01  4.451242E-02 -2.243630E-16  2.711815E-02 -4.380991E-03 -4.774787E-04 -3.878296E-01  0.000000E+00
  7.678944E-01  5.997542E-02  3.666667E-01  7.755748E-01  4.850900E-02 -1.121815E-16  2.802402E-02 -4.278260E-03 -4.467631E-04 -4.144858E-01  0.000000E+00
  7.409532E-01  6.396970E-02  3.666667E-01  7.483522E-01  5.254499E-02  3.051337E-14  2.891982E-02 -4.171414E-03 -4.124676E-04 -4.428770E-01  0.000000E+00
  7.123572E-01  6.797173E-02  3.666667E-01  7.194577E-01  5.658880E-02 -1.121815E-16  2.987978E-02 -4.060609E-03 -3.768385E-04 -4.737114E-01  0.000000E+00
  6.822143E-01  7.193648E-02  3.666667E-01  6.890001E-01  6.059494E-02 -1.682722E-16  3.096686E-02 -3.939767E-03 -3.427541E-04 -5.079801E-01  0.000000E+00
  6.506675E-01  7.580280E-02  3.666667E-01  6.571238E-01  6.450163E-02 -1.682722E-16  3.222388E-02 -3.802185E-03 -3.131174E-04 -5.476743E-01  0.000000E+00
  6.178953E-01  7.950826E-02  3.666667E-01  6.240095E-01  6.824578E-02  0.000000E+00  3.368340E-02 -3.622551E-03 -2.900880E-04 -5.925143E-01  0.000000E+00
  5.841133E-01  8.294726E-02  3.666667E-01  5.898748E-01  7.172069E-02 -1.682722E-16  3.534217E-02 -3.352206E-03 -2.745475E-04 -6.378033E-01  0.000000E+00
  5.495706E-01  8.598007E-02  3.666667E-01  5.549715E-01  7.478517E-02 -3.365445E-16  3.709279E-02 -2.978871E-03 -2.657337E-04 -6.801624E-01  0.000000E+00
  5.145480E-01  8.852751E-02  3.666667E-01  5.195832E-01  7.735920E-02 -1.121815E-16  3.878603E-02 -2.528051E-03 -2.617340E-04 -7.191542E-01  0.000000E+00
  4.793451E-01  9.055288E-02  3.666667E-01  4.840127E-01  7.940572E-02 -5.609075E-17  4.034701E-02 -2.023491E-03 -2.603948E-04 -7.552737E-01  0.000000E+00
  4.442686E-01  9.204901E-02  3.666667E-01  4.485700E-01  8.091747E-02  1.121815E-16  4.181057E-02 -1.483603E-03 -2.597977E-04 -7.910431E-01  0.000000E+00
  4.096206E-01  9.302483E-02  3.666667E-01  4.135602E-01  8.190348E-02 -1.121815E-16  4.331499E-02 -9.119298E-04 -2.584593E-04 -8.314166E-01  0.000000E+00
  3.756882E-01  9.349131E-02  3.666667E-01  3.792735E-01  8.237483E-02 -2.243630E-16  4.505959E-02 -2.860157E-04 -2.553603E-04 -8.819817E-01  0.000000E+00
  3.427351E-01  9.345124E-02  3.666667E-01  3.459764E-01  8.233435E-02 -1.682722E-16  4.727005E-02  4.895524E-04 -2.502439E-04 -9.417373E-01  0.000000E+00
  3.109952E-01  9.283285E-02  3.666667E-01  3.139050E-01  8.170949E-02  0.000000E+00  5.004202E-02  1.544676E-03 -2.433192E-04 -1.002316E+00  0.000000E+00
  2.806675E-01  9.155653E-02  3.666667E-01  2.832607E-01  8.041985E-02 -1.682722E-16  5.318030E-02  2.925481E-03 -2.345016E-04 -1.055757E+00  0.000000E+00
  2.519134E-01  8.960882E-02  3.666667E-01  2.542064E-01  7.845180E-02  3.056946E-14  5.632237E-02  4.605344E-03 -2.236814E-04 -1.095926E+00  0.000000E+00
  2.248544E-01  8.701945E-02  3.666667E-01  2.268648E-01  7.583540E-02 -2.804537E-16  5.910639E-02  6.501888E-03 -2.110120E-04 -1.119345E+00  0.000000E+00
  1.995702E-01  8.387447E-02  3.666667E-01  2.013166E-01  7.265758E-02 -1.121815E-16  6.131062E-02  8.532507E-03 -1.970285E-04 -1.124153E+00  0.000000E+00
  1.761037E-01  8.025492E-02  3.666667E-01  1.776051E-01  6.900024E-02  3.040119E-14  6.281378E-02  1.056174E-02 -1.821737E-04 -1.113473E+00  0.000000E+00
  1.544558E-01  7.630250E-02  3.666667E-01  1.557312E-01  6.500655E-02  3.045728E-14  6.366271E-02  1.251273E-02 -1.669473E-04 -1.090745E+00  0.000000E+00
  1.346015E-01  7.211039E-02  3.666667E-01  1.356696E-01  6.077067E-02 -1.121815E-16  6.401761E-02  1.439321E-02 -1.519541E-04 -1.057553E+00  0.000000E+00
  1.164884E-01  6.777593E-02  3.666667E-01  1.173674E-01  5.639095E-02 -2.804537E-16  6.396166E-02  1.614114E-02 -1.372903E-04 -1.020130E+00  0.000000E+00
  1.000416E-01  6.339656E-02  3.666667E-01  1.007488E-01  5.196586E-02 -5.609075E-17  6.362938E-02  1.778477E-02 -1.230335E-04 -9.819132E-01  0.000000E+00
  8.517641E-02  5.903184E-02  3.666667E-01  8.572843E-02  4.755556E-02 -3.365445E-16  6.314009E-02  1.940483E-02 -1.092735E-04 -9.426300E-01  0.000000E+00
  7.179882E-02  5.472547E-02  3.666667E-01  7.221117E-02  4.320423E-02  0.000000E+00  6.252239E-02  2.106103E-02 -9.604613E-05 -9.001430E-01  0.000000E+00
  5.981409E-02  5.049784E-02  3.666667E-01  6.010131E-02  3.893246E-02 -1.682722E-16  6.168736E-02  2.268097E-02 -8.320837E-05 -8.562762E-01  0.000000E+00
  4.911567E-02  4.639386E-02  3.666667E-01  4.929118E-02  3.478563E-02 -1.121815E-16  6.058509E-02  2.426326E-02 -7.069247E-05 -8.113285E-01  0.000000E+00
  3.960719E-02  4.241565E-02  3.666667E-01  3.968343E-02  3.076588E-02 -5.609075E-17  5.917524E-02  2.589260E-02 -5.853227E-05 -7.652892E-01  0.000000E+00
  3.119584E-02  3.856255E-02  3.666667E-01  3.118425E-02  2.687256E-02  0.000000E+00  5.731044E-02  2.751921E-02 -4.645633E-05 -7.267519E-01  0.000000E+00
  2.379252E-02  3.482965E-02  3.666667E-01  2.370363E-02  2.310068E-02 -1.682722E-16  5.496988E-02  2.912677E-02 -3.431339E-05 -6.952715E-01  0.000000E+00
  1.731190E-02  3.121880E-02  3.666667E-01  1.715534E-02  1.945212E-02 -2.243630E-16  5.218469E-02  3.115131E-02 -2.300276E-05 -6.277044E-01  0.000000E+00
  1.171490E-02  2.764878E-02  3.666667E-01  1.149991E-02  1.584483E-02 -1.121815E-16  4.822458E-02  3.377825E-02 -1.424225E-05 -5.008274E-01  0.000000E+00
  7.008801E-03  2.401579E-02  3.666667E-01  6.744671E-03  1.217390E-02  5.609075E-17  4.220802E-02  3.513055E-02 -7.848340E-06 -4.614999E-01  0.000000E+00
  9.900000E-01  1.088554E-02  3.666667E-01  9.999994E-01 -1.093432E-03 -1.121815E-16  1.702839E-02 -4.528345E-03 -9.612594E-06  2.148822E-02  0.000000E+00
  9.900000E-01  1.098386E-02  3.666667E-01  9.999994E-01 -9.940891E-04 -2.243630E-16  6.445299E-03 -3.103519E-02 -7.403106E-04 -1.260826E-01  0.000000E+00
  9.900000E-01  1.113269E-02  3.666667E-01  9.999994E-01 -8.437055E-04 -1.121815E-16  6.504504E-04 -5.876324E-02 -1.503125E-03 -7.800550E-02  0.000000E+00
  9.900000E-01  1.132888E-02  3.666667E-01  9.999994E-01 -6.454690E-04 -3.365445E-16 -1.142748E-03 -3.339887E-02 -1.787353E-03 -3.407695E-02  0.000000E+00
  9.900000E-01  1.154519E-02  3.666667E-01  9.999994E-01 -4.269010E-04  1.121815E-16 -8.599882E-04  1.188290E-02 -1.515921E-03 -4.604010E-02  0.000000E+00
  9.900000E-01  1.174138E-02  3.666667E-01  9.999994E-01 -2.286646E-04 -1.121815E-16  7.218012E-04  2.414949E-02 -1.035518E-03 -9.075360E-02  0.000000E+00
  9.900000E-01  1.189021E-02  3.666667E-01  9.999994E-01 -7.828096E-05 -2.243630E-16  3.964538E-03  2.081991E-03 -7.058012E-04 -1.079481E-01  0.000000E+00
  9.900000E-01  1.198852E-02  3.666667E-01  9.999994E-01  2.106156E-05 -2.804537E-16  1.011300E-02 -8.884532E-03 -5.633818E-04 -2.318117E-02  0.000000E+00
  7.008801E-03  6.317842E-03  3.666667E-01  6.744671E-03 -5.708826E-03 -3.365445E-16  2.167003E-02 -7.874569E-03  8.666752E-05  4.951497E-01  0.000000E+00
  1.220231E-02  4.673996E-03  3.666667E-01  1.199240E-02 -7.369836E-03 -1.121815E-16  2.691187E-02 -6.707638E-03  9.875096E-05  4.861219E-01  0.000000E+00
  1.825510E-02  3.475050E-03  3.666667E-01  1.810840E-02 -8.581300E-03 -1.682722E-16  3.103664E-02 -5.001819E-03  1.069011E-04  3.403792E-01  0.000000E+00
  2.517288E-02  2.607960E-03  3.666667E-01  2.509841E-02 -9.457444E-03 -2.243630E-16  3.355844E-02 -3.337587E-03  1.162657E-04  2.643465E-01  0.000000E+00
  3.300629E-02  2.021209E-03  3.666667E-01  3.301360E-02 -1.005032E-02 -5.609075E-17  3.476972E-02 -1.873535E-03  1.248096E-04  2.377792E-01  0.000000E+00
  4.183175E-02  1.722243E-03  3.666667E-01  4.193121E-02 -1.035241E-02  1.121815E-16  3.496049E-02 -7.050870E-04  1.312495E-04  2.218598E-01  0.000000E+00
  5.172748E-02  1.656586E-03  3.666667E-01  5.193027E-02 -1.041875E-02 -2.243630E-16  3.448461E-02  1.319347E-04  1.361651E-04  2.137052E-01  0.000000E+00
  6.278438E-02  1.813309E-03  3.666667E-01  6.310261E-02 -1.026039E-02 -1.121815E-16  3.357180E-02  7.814102E-04  1.400669E-04  2.087033E-01  0.000000E+00