 Title= "ADflow Lift Distribution Data"
Variables = "eta" "CoordinateX" "CoordinateY" "CoordinateZ" "Lift" "Drag" "Moment" "Normalized Lift" "Normalized Drag" "Normalized Moment" "CL" "CD" "CM" "CLp" "CDp" "CMp" "CLv" "CDv" "CMv" "Elliptical" "thickness" "twist" "chord" "fx" "fy" "fz" 
Zone T= "LiftDist_01 allWalls: : z normal"
 I=          150
 DATAPACKING=BLOCK
  0.000000E+00
  6.711405E-03
  1.342281E-02
  2.013422E-02
  2.684563E-02
  3.355704E-02
  4.026845E-02
  4.697986E-02
  5.369127E-02
  6.040268E-02
  6.711409E-02
  7.382550E-02
  8.053691E-02
  8.724832E-02
  9.395973E-02
  1.006711E-01
  1.073825E-01
  1.140940E-01
  1.208054E-01
  1.275168E-01
  1.342282E-01
  1.409396E-01
  1.476510E-01
  1.543624E-01
  1.610738E-01
  1.677852E-01
  1.744966E-01
  1.812081E-01
  1.879195E-01
  1.946309E-01
  2.013423E-01
  2.080537E-01
  2.147651E-01
  2.214765E-01
  2.281879E-01
  2.348993E-01
  2.416107E-01
  2.483221E-01
  2.550336E-01
  2.617450E-01
  2.684564E-01
  2.751678E-01
  2.818792E-01
  2.885906E-01
  2.953020E-01
  3.020134E-01
  3.087248E-01
  3.154362E-01
  3.221476E-01
  3.288591E-01
  3.355705E-01
  3.422819E-01
  3.489933E-01
  3.557047E-01
  3.624161E-01
  3.691275E-01
  3.758389E-01
  3.825503E-01
  3.892617E-01
  3.959732E-01
  4.026846E-01
  4.093960E-01
  4.161074E-01
  4.228188E-01
  4.295302E-01
  4.362416E-01
  4.429530E-01
  4.496644E-01
  4.563758E-01
  4.630872E-01
  4.697987E-01
  4.765101E-01
  4.832215E-01
  4.899329E-01
  4.966443E-01
  5.033557E-01
  5.100671E-01
  5.167785E-01
  5.234899E-01
  5.302013E-01
  5.369128E-01
  5.436242E-01
  5.503356E-01
  5.570470E-01
  5.637584E-01
  5.704698E-01
  5.771812E-01
  5.838926E-01
  5.906040E-01
  5.973154E-01
  6.040268E-01
  6.107383E-01
  6.174497E-01
  6.241611E-01
  6.308725E-01
  6.375839E-01
  6.442953E-01
  6.510067E-01
  6.577181E-01
  6.644295E-01
  6.711409E-01
  6.778524E-01
  6.845638E-01
  6.912752E-01
  6.979866E-01
  7.046980E-01
  7.114094E-01
  7.181208E-01
  7.248322E-01
  7.315436E-01
  7.382550E-01
  7.449664E-01
  7.516779E-01
  7.583893E-01
  7.651007E-01
  7.718121E-01
  7.785235E-01
  7.852349E-01
  7.919463E-01
  7.986577E-01
  8.053691E-01
  8.120805E-01
  8.187919E-01
  8.255034E-01
  8.322148E-01
  8.389262E-01
  8.456376E-01
  8.523490E-01
  8.590604E-01
  8.657718E-01
  8.724832E-01
  8.791946E-01
  8.859060E-01
  8.926175E-01
  8.993289E-01
  9.060403E-01
  9.127517E-01
  9.194631E-01
  9.261745E-01
  9.328859E-01
  9.395973E-01
  9.463087E-01
  9.530201E-01
  9.597315E-01
  9.664430E-01
  9.731544E-01
  9.798658E-01
  9.865772E-01
  9.932886E-01
  1.000000E+00
  0.000000E+00
  0.000000E+00
  0.000000E+00
  0.000000E+00
  0.000000E+00
  0.000000E+00
  0.000000E+00
  0.000000E+00
  0.000000E+00
  0.000000E+00
  0.000000E+00
  0.000000E+00
  0.000000E+00
  0.000000E+00
  0.000000E+00
  0.000000E+00
  0.000000E+00
  0.000000E+00
  0.000000E+00
  0.000000E+00
  0.000000E+00
  0.000000E+00
  0.000000E+00
  0.000000E+00
  0.000000E+00
  0.000000E+00
  0.000000E+00
  0.000000E+00
  0.000000E+00
  0.000000E+00
  0.000000E+00
  0.000000E+00
  0.000000E+00
  0.000000E+00
  0.000000E+00
  0.000000E+00
  0.000000E+00
  0.000000E+00
  0.000000E+00
  0.000000E+00
  0.000000E+00
  0.000000E+00
  0.000000E+00
  0.000000E+00
  0.000000E+00
  0.000000E+00
  0.000000E+00
  0.000000E+00
  0.000000E+00
  0.000000E+00
  0.000000E+00
  0.000000E+00
  0.000000E+00
  0.000000E+00
  0.000000E+00
  0.000000E+00
  0.000000E+00
  0.000000E+00
  0.000000E+00
  0.000000E+00
  0.000000E+00
  0.000000E+00
  0.000000E+00
  0.000000E+00
  0.000000E+00
  0.000000E+00
  0.000000E+00
  0.000000E+00
  0.000000E+00
  0.000000E+00
  0.000000E+00
  0.000000E+00
  0.000000E+00
  0.000000E+00
  0.000000E+00
  0.000000E+00
  0.000000E+00
  0.000000E+00
  0.000000E+00
  0.000000E+00
  0.000000E+00
  0.000000E+00
  0.000000E+00
  0.000000E+00
  0.000000E+00
  0.000000E+00
  0.000000E+00
  0.000000E+00
  0.000000E+00
  0.000000E+00
  0.000000E+00
  0.000000E+00
  0.000000E+00
  0.000000E+00
  0.000000E+00
  0.000000E+00
  0.000000E+00
  0.000000E+00
  0.000000E+00
  0.000000E+00
  0.000000E+00
  0.000000E+00
  0.000000E+00
  0.000000E+00
  0.000000E+00
  0.000000E+00
  0.000000E+00
  0.000000E+00
  0.000000E+00
  0.000000E+00
  0.000000E+00
  0.000000E+00
  0.000000E+00
  0.000000E+00
  0.000000E+00
  0.000000E+00
  0.000000E+00
  0.000000E+00
  0.000000E+00
  0.000000E+00
  0.000000E+00
  0.000000E+00
  0.000000E+00
  0.000000E+00
  0.000000E+00
  0.000000E+00
  0.000000E+00
  0.000000E+00
  0.000000E+00
  0.000000E+00
  0.000000E+00
  0.000000E+00
  0.000000E+00
  0.000000E+00
  0.000000E+00
  0.000000E+00
  0.000000E+00
  0.000000E+00
  0.000000E+00
  0.000000E+00
  0.000000E+00
  0.000000E+00
  0.000000E+00
  0.000000E+00
  0.000000E+00
  0.000000E+00
  0.000000E+00
  0.000000E+00
  0.000000E+00
  0.000000E+00
  0.000000E+00
  0.000000E+00
  0.000000E+00
  0.000000E+00
  0.000000E+00
  0.000000E+00
  0.000000E+00
  0.000000E+00
  0.000000E+00
  0.000000E+00
  0.000000E+00
  0.000000E+00
  0.000000E+00
  0.000000E+00
  0.000000E+00
  0.000000E+00
  0.000000E+00
  0.000000E+00
  0.000000E+00
  0.000000E+00
  0.000000E+00
  0.000000E+00
  0.000000E+00
  0.000000E+00
  0.000000E+00
  0.000000E+00
  0.000000E+00
  0.000000E+00
  0.000000E+00
  0.000000E+00
  0.000000E+00
  0.000000E+00
  0.000000E+00
  0.000000E+00
  0.000000E+00
  0.000000E+00
  0.000000E+00
  0.000000E+00
  0.000000E+00
  0.000000E+00
  0.000000E+00
  0.000000E+00
  0.000000E+00
  0.000000E+00
  0.000000E+00
  0.000000E+00
  0.000000E+00
  0.000000E+00
  0.000000E+00
  0.000000E+00
  0.000000E+00
  0.000000E+00
  0.000000E+00
  0.000000E+00
  0.000000E+00
  0.000000E+00
  0.000000E+00
  0.000000E+00
  0.000000E+00
  0.000000E+00
  0.000000E+00
  0.000000E+00
  0.000000E+00
  0.000000E+00
  0.000000E+00
  0.000000E+00
  0.000000E+00
  0.000000E+00
  0.000000E+00
  0.000000E+00
  0.000000E+00
  0.000000E+00
  0.000000E+00
  0.000000E+00
  0.000000E+00
  0.000000E+00
  0.000000E+00
  0.000000E+00
  0.000000E+00
  0.000000E+00
  0.000000E+00
  0.000000E+00
  0.000000E+00
  0.000000E+00
  0.000000E+00
  0.000000E+00
  0.000000E+00
  0.000000E+00
  0.000000E+00
  0.000000E+00
  0.000000E+00
  0.000000E+00
  0.000000E+00
  0.000000E+00
  0.000000E+00
  0.000000E+00
  0.000000E+00
  0.000000E+00
  0.000000E+00
  0.000000E+00
  0.000000E+00
  0.000000E+00
  0.000000E+00
  0.000000E+00
  0.000000E+00
  0.000000E+00
  0.000000E+00
  0.000000E+00
  0.000000E+00
  0.000000E+00
  0.000000E+00
  0.000000E+00
  0.000000E+00
  0.000000E+00
  0.000000E+00
  0.000000E+00
  0.000000E+00
  0.000000E+00
  0.000000E+00
  0.000000E+00
  0.000000E+00
  0.000000E+00
  0.000000E+00
  0.000000E+00
  0.000000E+00
  0.000000E+00
  0.000000E+00
  0.000000E+00
  0.000000E+00
  0.000000E+00
  0.000000E+00
  0.000000E+00
  0.000000E+00
  0.000000E+00
  0.000000E+00
  0.000000E+00
  0.000000E+00
  0.000000E+00
  0.000000E+00
  0.000000E+00
  0.000000E+00
  0.000000E+00
  0.000000E+00
  0.000000E+00
  0.000000E+00
  0.000000E+00
  0.000000E+00
  0.000000E+00
  0.000000E+00
  0.000000E+00
  1.000000E-08
  1.690972E-02
  3.381945E-02
  5.072917E-02
  6.763890E-02
  8.454862E-02
  1.014583E-01
  1.183681E-01
  1.352778E-01
  1.521875E-01
  1.690972E-01
  1.860070E-01
  2.029167E-01
  2.198264E-01
  2.367361E-01
  2.536459E-01
  2.705556E-01
  2.874653E-01
  3.043750E-01
  3.212848E-01
  3.381945E-01
  3.551042E-01
  3.720139E-01
  3.889237E-01
  4.058334E-01
  4.227431E-01
  4.396528E-01
  4.565626E-01
  4.734723E-01
  4.903820E-01
  5.072917E-01
  5.242015E-01
  5.411112E-01
  5.580209E-01
  5.749306E-01
  5.918404E-01
  6.087501E-01
  6.256598E-01
  6.425695E-01
  6.594792E-01
  6.763890E-01
  6.932987E-01
  7.102084E-01
  7.271181E-01
  7.440279E-01
  7.609376E-01
  7.778473E-01
  7.947570E-01
  8.116668E-01
  8.285765E-01
  8.454862E-01
  8.623959E-01
  8.793057E-01
  8.962154E-01
  9.131251E-01
  9.300348E-01
  9.469446E-01
  9.638543E-01
  9.807640E-01
  9.976737E-01
  1.014583E+00
  1.031493E+00
  1.048403E+00
  1.065313E+00
  1.082222E+00
  1.099132E+00
  1.116042E+00
  1.132952E+00
  1.149861E+00
  1.166771E+00
  1.183681E+00
  1.200590E+00
  1.217500E+00
  1.234410E+00
  1.251320E+00
  1.268229E+00
  1.285139E+00
  1.302049E+00
  1.318958E+00
  1.335868E+00
  1.352778E+00
  1.369688E+00
  1.386597E+00
  1.403507E+00
  1.420417E+00
  1.437327E+00
  1.454236E+00
  1.471146E+00
  1.488056E+00
  1.504965E+00
  1.521875E+00
  1.538785E+00
  1.555695E+00
  1.572604E+00
  1.589514E+00
  1.606424E+00
  1.623334E+00
  1.640243E+00
  1.657153E+00
  1.674063E+00
  1.690972E+00
  1.707882E+00
  1.724792E+00
  1.741702E+00
  1.758611E+00
  1.775521E+00
  1.792431E+00
  1.809341E+00
  1.826250E+00
  1.843160E+00
  1.860070E+00
  1.876979E+00
  1.893889E+00
  1.910799E+00
  1.927709E+00
  1.944618E+00
  1.961528E+00
  1.978438E+00
  1.995347E+00
  2.012257E+00
  2.029167E+00
  2.046077E+00
  2.062986E+00
  2.079896E+00
  2.096806E+00
  2.113716E+00
  2.130625E+00
  2.147535E+00
  2.164445E+00
  2.181354E+00
  2.198264E+00
  2.215174E+00
  2.232084E+00
  2.248993E+00
  2.265903E+00
  2.282813E+00
  2.299723E+00
  2.316632E+00
  2.333542E+00
  2.350452E+00
  2.367361E+00
  2.384271E+00
  2.401181E+00
  2.418091E+00
  2.435000E+00
  2.451910E+00
  2.468820E+00
  2.485729E+00
  2.502639E+00
  2.519549E+00
  1.101975E+04
  1.101812E+04
  1.101648E+04
  1.101484E+04
  1.101321E+04
  1.101157E+04
  1.100994E+04
  1.100830E+04
  1.100666E+04
  1.100207E+04
  1.099733E+04
  1.099260E+04
  1.098787E+04
  1.098314E+04
  1.097841E+04
  1.097367E+04
  1.096808E+04
  1.096059E+04
  1.095310E+04
  1.094561E+04
  1.093813E+04
  1.093064E+04
  1.092315E+04
  1.091550E+04
  1.090504E+04
  1.089459E+04
  1.088413E+04
  1.087367E+04
  1.086321E+04
  1.085276E+04
  1.084178E+04
  1.082807E+04
  1.081436E+04
  1.080064E+04
  1.078693E+04
  1.077322E+04
  1.075950E+04
  1.074372E+04
  1.072661E+04
  1.070949E+04
  1.069237E+04
  1.067526E+04
  1.065814E+04
  1.063971E+04
  1.061915E+04
  1.059860E+04
  1.057804E+04
  1.055749E+04
  1.053694E+04
  1.051474E+04
  1.049070E+04
  1.046666E+04
  1.044261E+04
  1.041857E+04
  1.039454E+04
  1.036747E+04
  1.033989E+04
  1.031231E+04
  1.028473E+04
  1.025715E+04
  1.022779E+04
  1.019675E+04
  1.016571E+04
  1.013467E+04
  1.010364E+04
  1.007107E+04
  1.003661E+04
  1.000214E+04
  9.967682E+03
  9.933223E+03
  9.896522E+03
  9.858512E+03
  9.820503E+03
  9.782496E+03
  9.744287E+03
  9.702645E+03
  9.661005E+03
  9.619365E+03
  9.577726E+03
  9.533480E+03
  9.488167E+03
  9.442854E+03
  9.397543E+03
  9.350055E+03
  9.300995E+03
  9.251936E+03
  9.202879E+03
  9.151447E+03
  9.098781E+03
  9.046119E+03
  8.993460E+03
  8.937685E+03
  8.881686E+03
  8.825696E+03
  8.768362E+03
  8.708934E+03
  8.649523E+03
  8.590034E+03
  8.527187E+03
  8.464376E+03
  8.401600E+03
  8.336585E+03
  8.271166E+03
  8.205800E+03
  8.138412E+03
  8.070560E+03
  8.002771E+03
  7.931847E+03
  7.860687E+03
  7.788831E+03
  7.713436E+03
  7.638101E+03
  7.560056E+03
  7.479989E+03
  7.399468E+03
  7.314414E+03
  7.229403E+03
  7.140618E+03
  7.050601E+03
  6.958109E+03
  6.863325E+03
  6.766757E+03
  6.667494E+03
  6.566658E+03
  6.463309E+03
  6.358282E+03
  6.251382E+03
  6.142442E+03
  6.032435E+03
  5.919849E+03
  5.806355E+03
  5.691106E+03
  5.574232E+03
  5.456230E+03
  5.336646E+03
  5.215231E+03
  5.092296E+03
  4.967660E+03
  4.841212E+03
  4.713547E+03
  4.588884E+03
  4.476304E+03
  4.390962E+03
  4.359482E+03
  4.440536E+03
  4.599724E+03
  4.388804E+03
  4.565791E+03
  1.342363E+03
  2.317393E-03
  6.055739E+02
  6.054951E+02
  6.054163E+02
  6.053376E+02
  6.052588E+02
  6.051800E+02
  6.051013E+02
  6.050225E+02
  6.049437E+02
  6.048100E+02
  6.046738E+02
  6.045376E+02
  6.044014E+02
  6.042651E+02
  6.041289E+02
  6.039927E+02
  6.038764E+02
  6.038036E+02
  6.037308E+02
  6.036580E+02
  6.035852E+02
  6.035125E+02
  6.034397E+02
  6.033684E+02
  6.033224E+02
  6.032765E+02
  6.032305E+02
  6.031846E+02
  6.031387E+02
  6.030929E+02
  6.030428E+02
  6.029705E+02
  6.028983E+02
  6.028261E+02
  6.027540E+02
  6.026819E+02
  6.026099E+02
  6.025242E+02
  6.024298E+02
  6.023354E+02
  6.022412E+02
  6.021471E+02
  6.020531E+02
  6.019610E+02
  6.018719E+02
  6.017831E+02
  6.016945E+02
  6.016061E+02
  6.015178E+02
  6.014236E+02
  6.013226E+02
  6.012219E+02
  6.011216E+02
  6.010215E+02
  6.009217E+02
  6.007629E+02
  6.005942E+02
  6.004259E+02
  6.002580E+02
  6.000905E+02
  5.998755E+02
  5.996162E+02
  5.993573E+02
  5.990989E+02
  5.988410E+02
  5.985286E+02
  5.981490E+02
  5.977698E+02
  5.973911E+02
  5.970127E+02
  5.965205E+02
  5.959618E+02
  5.954034E+02
  5.948454E+02
  5.942762E+02
  5.935138E+02
  5.927516E+02
  5.919897E+02
  5.912279E+02
  5.902320E+02
  5.891401E+02
  5.880484E+02
  5.869568E+02
  5.854975E+02
  5.837721E+02
  5.820465E+02
  5.803208E+02
  5.780183E+02
  5.754154E+02
  5.728124E+02
  5.702094E+02
  5.666635E+02
  5.630491E+02
  5.594363E+02
  5.553126E+02
  5.503947E+02
  5.454826E+02
  5.405371E+02
  5.342184E+02
  5.279133E+02
  5.216214E+02
  5.146598E+02
  5.075801E+02
  5.005200E+02
  4.934808E+02
  4.864627E+02
  4.794648E+02
  4.729698E+02
  4.665375E+02
  4.602694E+02
  4.547152E+02
  4.491718E+02
  4.442331E+02
  4.397459E+02
  4.353732E+02
  4.319943E+02
  4.286168E+02
  4.260336E+02
  4.237137E+02
  4.218657E+02
  4.204550E+02
  4.192934E+02
  4.185067E+02
  4.178395E+02
  4.173616E+02
  4.169395E+02
  4.165810E+02
  4.162471E+02
  4.159334E+02
  4.156501E+02
  4.154074E+02
  4.152400E+02
  4.152387E+02
  4.154031E+02
  4.158619E+02
  4.168140E+02
  4.182788E+02
  4.204261E+02
  4.235109E+02
  4.282872E+02
  4.357881E+02
  4.481282E+02
  4.688105E+02
  5.037900E+02
  5.647182E+02
  6.507824E+02
  6.968220E+02
  8.067170E+02
  3.476559E+02
  5.051331E-04
  1.989077E+03
  1.988741E+03
  1.988405E+03
  1.988069E+03
  1.987733E+03
  1.987397E+03
  1.987061E+03
  1.986724E+03
  1.986388E+03
  1.985460E+03
  1.984504E+03
  1.983549E+03
  1.982593E+03
  1.981638E+03
  1.980682E+03
  1.979726E+03
  1.978583E+03
  1.977031E+03
  1.975479E+03
  1.973928E+03
  1.972376E+03
  1.970824E+03
  1.969272E+03
  1.967677E+03
  1.965351E+03
  1.963024E+03
  1.960698E+03
  1.958371E+03
  1.956045E+03
  1.953718E+03
  1.951239E+03
  1.947955E+03
  1.944671E+03
  1.941386E+03
  1.938102E+03
  1.934817E+03
  1.931533E+03
  1.927607E+03
  1.923265E+03
  1.918924E+03
  1.914583E+03
  1.910241E+03
  1.905900E+03
  1.901150E+03
  1.895741E+03
  1.890332E+03
  1.884923E+03
  1.879515E+03
  1.874106E+03
  1.868221E+03
  1.861800E+03
  1.855378E+03
  1.848957E+03
  1.842536E+03
  1.836116E+03
  1.828954E+03
  1.821664E+03
  1.814376E+03
  1.807087E+03
  1.799799E+03
  1.792188E+03
  1.784277E+03
  1.776366E+03
  1.768455E+03
  1.760545E+03
  1.752441E+03
  1.744097E+03
  1.735754E+03
  1.727412E+03
  1.719069E+03
  1.710566E+03
  1.701970E+03
  1.693373E+03
  1.684777E+03
  1.676187E+03
  1.667712E+03
  1.659237E+03
  1.650762E+03
  1.642287E+03
  1.634070E+03
  1.625958E+03
  1.617846E+03
  1.609734E+03
  1.601745E+03
  1.593845E+03
  1.585946E+03
  1.578046E+03
  1.570295E+03
  1.562620E+03
  1.554946E+03
  1.547274E+03
  1.540040E+03
  1.532842E+03
  1.525647E+03
  1.518519E+03
  1.511498E+03
  1.504484E+03
  1.497460E+03
  1.489868E+03
  1.482292E+03
  1.474731E+03
  1.466458E+03
  1.458063E+03
  1.449664E+03
  1.440472E+03
  1.431094E+03
  1.421746E+03
  1.410847E+03
  1.399830E+03
  1.388434E+03
  1.375125E+03
  1.361843E+03
  1.347110E+03
  1.331293E+03
  1.315242E+03
  1.296915E+03
  1.278601E+03
  1.258561E+03
  1.237953E+03
  1.216365E+03
  1.193870E+03
  1.170819E+03
  1.146930E+03
  1.122713E+03
  1.097971E+03
  1.073101E+03
  1.048089E+03
  1.023271E+03
  9.985600E+02
  9.746313E+02
  9.511626E+02
  9.286695E+02
  9.075286E+02
  8.874598E+02
  8.690917E+02
  8.528987E+02
  8.385419E+02
  8.263396E+02
  8.167240E+02
  8.113026E+02
  8.126410E+02
  8.266895E+02
  8.638754E+02
  9.405235E+02
  1.082063E+03
  1.274297E+03
  1.337773E+03
  1.400043E+03
 -7.940798E+01
  2.905069E-09
  1.236919E+00
  1.236735E+00
  1.236552E+00
  1.236368E+00
  1.236184E+00
  1.236001E+00
  1.235817E+00
  1.235633E+00
  1.235450E+00
  1.234934E+00
  1.234402E+00
  1.233871E+00
  1.233340E+00
  1.232809E+00
  1.232278E+00
  1.231747E+00
  1.231118E+00
  1.230278E+00
  1.229437E+00
  1.228597E+00
  1.227757E+00
  1.226916E+00
  1.226076E+00
  1.225217E+00
  1.224043E+00
  1.222869E+00
  1.221696E+00
  1.220522E+00
  1.219348E+00
  1.218174E+00
  1.216942E+00
  1.215403E+00
  1.213864E+00
  1.212325E+00
  1.210785E+00
  1.209246E+00
  1.207707E+00
  1.205936E+00
  1.204014E+00
  1.202093E+00
  1.200172E+00
  1.198251E+00
  1.196329E+00
  1.194260E+00
  1.191953E+00
  1.189646E+00
  1.187339E+00
  1.185032E+00
  1.182725E+00
  1.180234E+00
  1.177535E+00
  1.174836E+00
  1.172138E+00
  1.169439E+00
  1.166741E+00
  1.163703E+00
  1.160607E+00
  1.157511E+00
  1.154416E+00
  1.151320E+00
  1.148024E+00
  1.144540E+00
  1.141056E+00
  1.137572E+00
  1.134089E+00
  1.130433E+00
  1.126565E+00
  1.122697E+00
  1.118828E+00
  1.114961E+00
  1.110841E+00
  1.106575E+00
  1.102308E+00
  1.098042E+00
  1.093753E+00
  1.089079E+00
  1.084405E+00
  1.079731E+00
  1.075058E+00
  1.070091E+00
  1.065005E+00
  1.059919E+00
  1.054833E+00
  1.049503E+00
  1.043996E+00
  1.038489E+00
  1.032983E+00
  1.027210E+00
  1.021298E+00
  1.015387E+00
  1.009476E+00
  1.003216E+00
  9.969303E-01
  9.906456E-01
  9.842101E-01
  9.775395E-01
  9.708710E-01
  9.641936E-01
  9.571393E-01
  9.500890E-01
  9.430426E-01
  9.357451E-01
  9.284021E-01
  9.210650E-01
  9.135010E-01
  9.058849E-01
  8.982759E-01
  8.903150E-01
  8.823275E-01
  8.742621E-01
  8.657993E-01
  8.573433E-01
  8.485830E-01
  8.395959E-01
  8.305577E-01
  8.210109E-01
  8.114687E-01
  8.015030E-01
  7.913990E-01
  7.810171E-01
  7.703781E-01
  7.595387E-01
  7.483969E-01
  7.370785E-01
  7.254781E-01
  7.136892E-01
  7.016901E-01
  6.894621E-01
  6.771143E-01
  6.644770E-01
  6.517379E-01
  6.388017E-01
  6.256830E-01
  6.124379E-01
  5.990150E-01
  5.853867E-01
  5.715878E-01
  5.575980E-01
  5.434047E-01
  5.290750E-01
  5.150821E-01
  5.024454E-01
  4.928662E-01
  4.893327E-01
  4.984306E-01
  5.162988E-01
  4.926240E-01
  5.124900E-01
  1.506744E-01
  2.601171E-07
  1.104740E+00
  1.104597E+00
  1.104453E+00
  1.104309E+00
  1.104166E+00
  1.104022E+00
  1.103878E+00
  1.103734E+00
  1.103591E+00
  1.103347E+00
  1.103098E+00
  1.102850E+00
  1.102601E+00
  1.102353E+00
  1.102104E+00
  1.101856E+00
  1.101644E+00
  1.101511E+00
  1.101378E+00
  1.101245E+00
  1.101112E+00
  1.100980E+00
  1.100847E+00
  1.100717E+00
  1.100633E+00
  1.100549E+00
  1.100465E+00
  1.100382E+00
  1.100298E+00
  1.100214E+00
  1.100123E+00
  1.099991E+00
  1.099859E+00
  1.099728E+00
  1.099596E+00
  1.099465E+00
  1.099333E+00
  1.099177E+00
  1.099005E+00
  1.098832E+00
  1.098661E+00
  1.098489E+00
  1.098317E+00
  1.098149E+00
  1.097987E+00
  1.097825E+00
  1.097663E+00
  1.097502E+00
  1.097341E+00
  1.097169E+00
  1.096985E+00
  1.096801E+00
  1.096618E+00
  1.096435E+00
  1.096253E+00
  1.095964E+00
  1.095656E+00
  1.095349E+00
  1.095043E+00
  1.094737E+00
  1.094345E+00
  1.093872E+00
  1.093400E+00
  1.092928E+00
  1.092458E+00
  1.091888E+00
  1.091195E+00
  1.090503E+00
  1.089812E+00
  1.089122E+00
  1.088224E+00
  1.087205E+00
  1.086186E+00
  1.085168E+00
  1.084130E+00
  1.082739E+00
  1.081349E+00
  1.079959E+00
  1.078569E+00
  1.076752E+00
  1.074760E+00
  1.072769E+00
  1.070777E+00
  1.068115E+00
  1.064968E+00
  1.061820E+00
  1.058672E+00
  1.054471E+00
  1.049723E+00
  1.044974E+00
  1.040225E+00
  1.033757E+00
  1.027163E+00
  1.020572E+00
  1.013049E+00
  1.004078E+00
  9.951165E-01
  9.860945E-01
  9.745675E-01
  9.630651E-01
  9.515869E-01
  9.388870E-01
  9.259717E-01
  9.130920E-01
  9.002504E-01
  8.874473E-01
  8.746813E-01
  8.628324E-01
  8.510981E-01
  8.396632E-01
  8.295308E-01
  8.194181E-01
  8.104086E-01
  8.022225E-01
  7.942455E-01
  7.880814E-01
  7.819200E-01
  7.772073E-01
  7.729752E-01
  7.696040E-01
  7.670304E-01
  7.649113E-01
  7.634762E-01
  7.622590E-01
  7.613872E-01
  7.606172E-01
  7.599631E-01
  7.593540E-01
  7.587818E-01
  7.582649E-01
  7.578222E-01
  7.575167E-01
  7.575144E-01
  7.578143E-01
  7.586513E-01
  7.603881E-01
  7.630605E-01
  7.669777E-01
  7.726052E-01
  7.813186E-01
  7.950024E-01
  8.175143E-01
  8.552447E-01
  9.190573E-01
  1.030208E+00
  1.187214E+00
  1.271203E+00
  1.471683E+00
  6.342240E-01
  9.215075E-07
  1.257909E+00
  1.257696E+00
  1.257484E+00
  1.257271E+00
  1.257059E+00
  1.256846E+00
  1.256634E+00
  1.256421E+00
  1.256208E+00
  1.255621E+00
  1.255017E+00
  1.254413E+00
  1.253808E+00
  1.253204E+00
  1.252600E+00
  1.251995E+00
  1.251272E+00
  1.250291E+00
  1.249310E+00
  1.248328E+00
  1.247347E+00
  1.246365E+00
  1.245384E+00
  1.244375E+00
  1.242904E+00
  1.241433E+00
  1.239961E+00
  1.238490E+00
  1.237019E+00
  1.235547E+00
  1.233980E+00
  1.231903E+00
  1.229826E+00
  1.227749E+00
  1.225672E+00
  1.223595E+00
  1.221518E+00
  1.219034E+00
  1.216289E+00
  1.213543E+00
  1.210798E+00
  1.208052E+00
  1.205307E+00
  1.202303E+00
  1.198882E+00
  1.195462E+00
  1.192041E+00
  1.188621E+00
  1.185200E+00
  1.181479E+00
  1.177418E+00
  1.173357E+00
  1.169296E+00
  1.165235E+00
  1.161175E+00
  1.156645E+00
  1.152036E+00
  1.147426E+00
  1.142817E+00
  1.138208E+00
  1.133395E+00
  1.128391E+00
  1.123388E+00
  1.118385E+00
  1.113383E+00
  1.108258E+00
  1.102981E+00
  1.097705E+00
  1.092429E+00
  1.087154E+00
  1.081776E+00
  1.076340E+00
  1.070903E+00
  1.065467E+00
  1.060035E+00
  1.054675E+00
  1.049315E+00
  1.043956E+00
  1.038596E+00
  1.033399E+00
  1.028269E+00
  1.023139E+00
  1.018009E+00
  1.012957E+00
  1.007961E+00
  1.002965E+00
  9.979696E-01
  9.930672E-01
  9.882138E-01
  9.833609E-01
  9.785086E-01
  9.739342E-01
  9.693820E-01
  9.648316E-01
  9.603239E-01
  9.558838E-01
  9.514480E-01
  9.470063E-01
  9.422051E-01
  9.374138E-01
  9.326322E-01
  9.274004E-01
  9.220913E-01
  9.167796E-01
  9.109661E-01
  9.050354E-01
  8.991236E-01
  8.922315E-01
  8.852644E-01
  8.780573E-01
  8.696406E-01
  8.612406E-01
  8.519234E-01
  8.419205E-01
  8.317699E-01
  8.201795E-01
  8.085976E-01
  7.959243E-01
  7.828917E-01
  7.692395E-01
  7.550134E-01
  7.404355E-01
  7.253280E-01
  7.100127E-01
  6.943661E-01
  6.786382E-01
  6.628201E-01
  6.471252E-01
  6.314976E-01
  6.163649E-01
  6.015231E-01
  5.872983E-01
  5.739286E-01
  5.612369E-01
  5.496208E-01
  5.393802E-01
  5.303008E-01
  5.225840E-01
  5.165030E-01
  5.130745E-01
  5.139209E-01
  5.228053E-01
  5.463219E-01
  5.947948E-01
  6.843056E-01
  8.058762E-01
  8.460186E-01
  8.853986E-01
 -5.021826E-02
  1.837190E-12
  9.756968E-01
  9.755519E-01
  9.754070E-01
  9.752622E-01
  9.751173E-01
  9.749724E-01
  9.748275E-01
  9.746826E-01
  9.745378E-01
  9.741308E-01
  9.737118E-01
  9.732928E-01
  9.728739E-01
  9.724549E-01
  9.720359E-01
  9.716170E-01
  9.711212E-01
  9.704582E-01
  9.697953E-01
  9.691324E-01
  9.684694E-01
  9.678065E-01
  9.671435E-01
  9.664660E-01
  9.655401E-01
  9.646142E-01
  9.636882E-01
  9.627623E-01
  9.618364E-01
  9.609105E-01
  9.599387E-01
  9.587245E-01
  9.575103E-01
  9.562960E-01
  9.550818E-01
  9.538676E-01
  9.526534E-01
  9.512561E-01
  9.497404E-01
  9.482248E-01
  9.467091E-01
  9.451935E-01
  9.436779E-01
  9.420456E-01
  9.402255E-01
  9.384054E-01
  9.365854E-01
  9.347655E-01
  9.329456E-01
  9.309802E-01
  9.288511E-01
  9.267221E-01
  9.245932E-01
  9.224644E-01
  9.203357E-01
  9.179392E-01
  9.154968E-01
  9.130545E-01
  9.106123E-01
  9.081703E-01
  9.055698E-01
  9.028212E-01
  9.000727E-01
  8.973245E-01
  8.945764E-01
  8.916924E-01
  8.886405E-01
  8.855888E-01
  8.825373E-01
  8.794859E-01
  8.762360E-01
  8.728701E-01
  8.695044E-01
  8.661388E-01
  8.627552E-01
  8.590678E-01
  8.553804E-01
  8.516931E-01
  8.480058E-01
  8.440877E-01
  8.400752E-01
  8.360627E-01
  8.320502E-01
  8.278453E-01
  8.235012E-01
  8.191572E-01
  8.148135E-01
  8.102598E-01
  8.055969E-01
  8.009345E-01
  7.962723E-01
  7.913350E-01
  7.863778E-01
  7.814214E-01
  7.763462E-01
  7.710861E-01
  7.658273E-01
  7.605615E-01
  7.549989E-01
  7.494391E-01
  7.438820E-01
  7.381267E-01
  7.323351E-01
  7.265473E-01
  7.205798E-01
  7.145708E-01
  7.085670E-01
  7.022853E-01
  6.959824E-01
  6.896178E-01
  6.829400E-01
  6.762673E-01
  6.693550E-01
  6.622641E-01
  6.551330E-01
  6.476017E-01
  6.400741E-01
  6.322133E-01
  6.242438E-01
  6.160557E-01
  6.076653E-01
  5.991171E-01
  5.903306E-01
  5.814048E-01
  5.722567E-01
  5.629597E-01
  5.534967E-01
  5.438529E-01
  5.341143E-01
  5.241469E-01
  5.140988E-01
  5.038946E-01
  4.935459E-01
  4.830969E-01
  4.725075E-01
  4.617557E-01
  4.508689E-01
  4.398314E-01
  4.286331E-01
  4.173269E-01
  4.062863E-01
  3.963153E-01
  3.887558E-01
  3.859647E-01
  3.931365E-01
  4.072253E-01
  3.885473E-01
  4.042111E-01
  1.384447E-01
  4.111258E-02
  5.361794E-02
  5.361097E-02
  5.360399E-02
  5.359702E-02
  5.359005E-02
  5.358307E-02
  5.357610E-02
  5.356912E-02
  5.356215E-02
  5.355031E-02
  5.353825E-02
  5.352619E-02
  5.351413E-02
  5.350207E-02
  5.349000E-02
  5.347794E-02
  5.346765E-02
  5.346120E-02
  5.345475E-02
  5.344831E-02
  5.344186E-02
  5.343542E-02
  5.342897E-02
  5.342266E-02
  5.341859E-02
  5.341452E-02
  5.341045E-02
  5.340638E-02
  5.340232E-02
  5.339825E-02
  5.339382E-02
  5.338742E-02
  5.338102E-02
  5.337462E-02
  5.336823E-02
  5.336185E-02
  5.335547E-02
  5.334788E-02
  5.333951E-02
  5.333115E-02
  5.332280E-02
  5.331446E-02
  5.330613E-02
  5.329797E-02
  5.329008E-02
  5.328220E-02
  5.327434E-02
  5.326650E-02
  5.325868E-02
  5.325033E-02
  5.324137E-02
  5.323244E-02
  5.322354E-02
  5.321466E-02
  5.320581E-02
  5.319173E-02
  5.317678E-02
  5.316186E-02
  5.314698E-02
  5.313213E-02
  5.311307E-02
  5.309009E-02
  5.306716E-02
  5.304426E-02
  5.302139E-02
  5.299372E-02
  5.296008E-02
  5.292649E-02
  5.289293E-02
  5.285941E-02
  5.281580E-02
  5.276630E-02
  5.271684E-02
  5.266740E-02
  5.261698E-02
  5.254944E-02
  5.248192E-02
  5.241443E-02
  5.234695E-02
  5.225873E-02
  5.216202E-02
  5.206533E-02
  5.196865E-02
  5.183941E-02
  5.168662E-02
  5.153382E-02
  5.138101E-02
  5.117715E-02
  5.094670E-02
  5.071625E-02
  5.048579E-02
  5.017190E-02
  4.985195E-02
  4.953213E-02
  4.916709E-02
  4.873176E-02
  4.829693E-02
  4.785915E-02
  4.729981E-02
  4.674164E-02
  4.618463E-02
  4.556831E-02
  4.494151E-02
  4.431639E-02
  4.369308E-02
  4.307161E-02
  4.245191E-02
  4.187672E-02
  4.130707E-02
  4.075194E-02
  4.026003E-02
  3.976907E-02
  3.933168E-02
  3.893427E-02
  3.854701E-02
  3.824780E-02
  3.794871E-02
  3.772000E-02
  3.751463E-02
  3.735107E-02
  3.722625E-02
  3.712352E-02
  3.705400E-02
  3.699506E-02
  3.695289E-02
  3.691566E-02
  3.688404E-02
  3.685459E-02
  3.682692E-02
  3.680190E-02
  3.678046E-02
  3.676564E-02
  3.676548E-02
  3.677997E-02
  3.682048E-02
  3.690464E-02
  3.703417E-02
  3.722408E-02
  3.749697E-02
  3.791959E-02
  3.858339E-02
  3.967560E-02
  4.150635E-02
  4.460281E-02
  4.999653E-02
  5.761543E-02
  6.169068E-02
  7.141893E-02
  3.585551E-02
  8.961504E-03
  1.761143E-01
  1.760846E-01
  1.760548E-01
  1.760250E-01
  1.759953E-01
  1.759655E-01
  1.759358E-01
  1.759060E-01
  1.758762E-01
  1.757940E-01
  1.757094E-01
  1.756248E-01
  1.755402E-01
  1.754556E-01
  1.753710E-01
  1.752864E-01
  1.751852E-01
  1.750478E-01
  1.749104E-01
  1.747729E-01
  1.746355E-01
  1.744981E-01
  1.743607E-01
  1.742195E-01
  1.740135E-01
  1.738075E-01
  1.736015E-01
  1.733955E-01
  1.731895E-01
  1.729835E-01
  1.727640E-01
  1.724732E-01
  1.721824E-01
  1.718916E-01
  1.716008E-01
  1.713100E-01
  1.710192E-01
  1.706715E-01
  1.702871E-01
  1.699027E-01
  1.695183E-01
  1.691339E-01
  1.687495E-01
  1.683289E-01
  1.678499E-01
  1.673710E-01
  1.668921E-01
  1.664132E-01
  1.659343E-01
  1.654132E-01
  1.648446E-01
  1.642760E-01
  1.637074E-01
  1.631388E-01
  1.625703E-01
  1.619361E-01
  1.612907E-01
  1.606453E-01
  1.599999E-01
  1.593545E-01
  1.586806E-01
  1.579801E-01
  1.572796E-01
  1.565791E-01
  1.558787E-01
  1.551611E-01
  1.544223E-01
  1.536835E-01
  1.529448E-01
  1.522061E-01
  1.514532E-01
  1.506919E-01
  1.499307E-01
  1.491695E-01
  1.484089E-01
  1.476585E-01
  1.469080E-01
  1.461576E-01
  1.454071E-01
  1.446794E-01
  1.439611E-01
  1.432428E-01
  1.425244E-01
  1.418170E-01
  1.411175E-01
  1.404181E-01
  1.397186E-01
  1.390323E-01
  1.383528E-01
  1.376734E-01
  1.369941E-01
  1.363538E-01
  1.357167E-01
  1.350798E-01
  1.344489E-01
  1.338275E-01
  1.332068E-01
  1.325851E-01
  1.319133E-01
  1.312427E-01
  1.305735E-01
  1.298412E-01
  1.290980E-01
  1.283543E-01
  1.275402E-01
  1.267096E-01
  1.258816E-01
  1.249164E-01
  1.239405E-01
  1.229310E-01
  1.217522E-01
  1.205757E-01
  1.192709E-01
  1.178701E-01
  1.164487E-01
  1.148259E-01
  1.132042E-01
  1.114300E-01
  1.096055E-01
  1.076943E-01
  1.057029E-01
  1.036623E-01
  1.015476E-01
  9.940376E-02
  9.721357E-02
  9.501196E-02
  9.279769E-02
  9.060062E-02
  8.841291E-02
  8.629443E-02
  8.421660E-02
  8.222506E-02
  8.035314E-02
  7.857607E-02
  7.694953E-02
  7.551551E-02
  7.424402E-02
  7.316323E-02
  7.231142E-02
  7.183091E-02
  7.194884E-02
  7.319201E-02
  7.648359E-02
  8.326882E-02
  9.579891E-02
  1.128168E-01
  1.184350E-01
  1.239463E-01
 -8.189747E-03
  5.153848E-08
  9.758846E-01
  9.757397E-01
  9.755948E-01
  9.754499E-01
  9.753050E-01
  9.751602E-01
  9.750153E-01
  9.748704E-01
  9.747255E-01
  9.743186E-01
  9.738997E-01
  9.734807E-01
  9.730618E-01
  9.726429E-01
  9.722240E-01
  9.718051E-01
  9.713094E-01
  9.706466E-01
  9.699838E-01
  9.693210E-01
  9.686582E-01
  9.679954E-01
  9.673326E-01
  9.666552E-01
  9.657296E-01