 Title= "ADflow Lift Distribution Data"
Variables = "eta" "CoordinateX" "CoordinateY" "CoordinateZ" "Lift" "Drag" "Moment" "Normalized Lift" "Normalized Drag" "Normalized Moment" "CL" "CD" "CM" "CLp" "CDp" "CMp" "CLv" "CDv" "CMv" "Elliptical" "thickness" "twist" "chord" "fx" "fy" "fz" 
Zone T= "LiftDist_01 allWalls: : z normal"
 I=          150
 DATAPACKING=BLOCK
  0.000000E+00
  6.711405E-03
  1.342281E-02
  2.013422E-02
  2.684563E-02
  3.355704E-02
  4.026845E-02
  4.697986E-02
  5.369127E-02
  6.040268E-02
  6.711409E-02
  7.382550E-02
  8.053691E-02
  8.724832E-02
  9.395973E-02
  1.006711E-01
  1.073825E-01
  1.140940E-01
  1.208054E-01
  1.275168E-01
  1.342282E-01
  1.409396E-01
  1.476510E-01
  1.543624E-01
  1.610738E-01
  1.677852E-01
  1.744966E-01
  1.812081E-01
  1.879195E-01
  1.946309E-01
  2.013423E-01
  2.080537E-01
  2.147651E-01
  2.214765E-01
  2.281879E-01
  2.348993E-01
  2.416107E-01
  2.483221E-01
  2.550336E-01
  2.617450E-01
  2.684564E-01
  2.751678E-01
  2.818792E-01
  2.885906E-01
  2.953020E-01
  3.020134E-01
  3.087248E-01
  3.154362E-01
  3.221476E-01
  3.288591E-01
  3.355705E-01
  3.422819E-01
  3.489933E-01
  3.557047E-01
  3.624161E-01
  3.691275E-01
  3.758389E-01
  3.825503E-01
  3.892617E-01
  3.959732E-01
  4.026846E-01
  4.093960E-01
  4.161074E-01
  4.228188E-01
  4.295302E-01
  4.362416E-01
  4.429530E-01
  4.496644E-01
  4.563758E-01
  4.630872E-01
  4.697987E-01
  4.765101E-01
  4.832215E-01
  4.899329E-01
  4.966443E-01
  5.033557E-01
  5.100671E-01
  5.167785E-01
  5.234899E-01
  5.302013E-01
  5.369128E-01
  5.436242E-01
  5.503356E-01
  5.570470E-01
  5.637584E-01
  5.704698E-01
  5.771812E-01
  5.838926E-01
  5.906040E-01
  5.973154E-01
  6.040268E-01
  6.107383E-01
  6.174497E-01
  6.241611E-01
  6.308725E-01
  6.375839E-01
  6.442953E-01
  6.510067E-01
  6.577181E-01
  6.644295E-01
  6.711409E-01
  6.778524E-01
  6.845638E-01
  6.912752E-01
  6.979866E-01
  7.046980E-01
  7.114094E-01
  7.181208E-01
  7.248322E-01
  7.315436E-01
  7.382550E-01
  7.449664E-01
  7.516779E-01
  7.583893E-01
  7.651007E-01
  7.718121E-01
  7.785235E-01
  7.852349E-01
  7.919463E-01
  7.986577E-01
  8.053691E-01
  8.120805E-01
  8.187919E-01
  8.255034E-01
  8.322148E-01
  8.389262E-01
  8.456376E-01
  8.523490E-01
  8.590604E-01
  8.657718E-01
  8.724832E-01
  8.791946E-01
  8.859060E-01
  8.926175E-01
  8.993289E-01
  9.060403E-01
  9.127517E-01
  9.194631E-01
  9.261745E-01
  9.328859E-01
  9.395973E-01
  9.463087E-01
  9.530201E-01
  9.597315E-01
  9.664430E-01
  9.731544E-01
  9.798658E-01
  9.865772E-01
  9.932886E-01
  1.000000E+00
  0.000000E+00
  0.000000E+00
  0.000000E+00
  0.000000E+00
  0.000000E+00
  0.000000E+00
  0.000000E+00
  0.000000E+00
  0.000000E+00
  0.000000E+00
  0.000000E+00
  0.000000E+00
  0.000000E+00
  0.000000E+00
  0.000000E+00
  0.000000E+00
  0.000000E+00
  0.000000E+00
  0.000000E+00
  0.000000E+00
  0.000000E+00
  0.000000E+00
  0.000000E+00
  0.000000E+00
  0.000000E+00
  0.000000E+00
  0.000000E+00
  0.000000E+00
  0.000000E+00
  0.000000E+00
  0.000000E+00
  0.000000E+00
  0.000000E+00
  0.000000E+00
  0.000000E+00
  0.000000E+00
  0.000000E+00
  0.000000E+00
  0.000000E+00
  0.000000E+00
  0.000000E+00
  0.000000E+00
  0.000000E+00
  0.000000E+00
  0.000000E+00
  0.000000E+00
  0.000000E+00
  0.000000E+00
  0.000000E+00
  0.000000E+00
  0.000000E+00
  0.000000E+00
  0.000000E+00
  0.000000E+00
  0.000000E+00
  0.000000E+00
  0.000000E+00
  0.000000E+00
  0.000000E+00
  0.000000E+00
  0.000000E+00
  0.000000E+00
  0.000000E+00
  0.000000E+00
  0.000000E+00
  0.000000E+00
  0.000000E+00
  0.000000E+00
  0.000000E+00
  0.000000E+00
  0.000000E+00
  0.000000E+00
  0.000000E+00
  0.000000E+00
  0.000000E+00
  0.000000E+00
  0.000000E+00
  0.000000E+00
  0.000000E+00
  0.000000E+00
  0.000000E+00
  0.000000E+00
  0.000000E+00
  0.000000E+00
  0.000000E+00
  0.000000E+00
  0.000000E+00
  0.000000E+00
  0.000000E+00
  0.000000E+00
  0.000000E+00
  0.000000E+00
  0.000000E+00
  0.000000E+00
  0.000000E+00
  0.000000E+00
  0.000000E+00
  0.000000E+00
  0.000000E+00
  0.000000E+00
  0.000000E+00
  0.000000E+00
  0.000000E+00
  0.000000E+00
  0.000000E+00
  0.000000E+00
  0.000000E+00
  0.000000E+00
  0.000000E+00
  0.000000E+00
  0.000000E+00
  0.000000E+00
  0.000000E+00
  0.000000E+00
  0.000000E+00
  0.000000E+00
  0.000000E+00
  0.000000E+00
  0.000000E+00
  0.000000E+00
  0.000000E+00
  0.000000E+00
  0.000000E+00
  0.000000E+00
  0.000000E+00
  0.000000E+00
  0.000000E+00
  0.000000E+00
  0.000000E+00
  0.000000E+00
  0.000000E+00
  0.000000E+00
  0.000000E+00
  0.000000E+00
  0.000000E+00
  0.000000E+00
  0.000000E+00
  0.000000E+00
  0.000000E+00
  0.000000E+00
  0.000000E+00
  0.000000E+00
  0.000000E+00
  0.000000E+00
  0.000000E+00
  0.000000E+00
  0.000000E+00
  0.000000E+00
  0.000000E+00
  0.000000E+00
  0.000000E+00
  0.000000E+00
  0.000000E+00
  0.000000E+00
  0.000000E+00
  0.000000E+00
  0.000000E+00
  0.000000E+00
  0.000000E+00
  0.000000E+00
  0.000000E+00
  0.000000E+00
  0.000000E+00
  0.000000E+00
  0.000000E+00
  0.000000E+00
  0.000000E+00
  0.000000E+00
  0.000000E+00
  0.000000E+00
  0.000000E+00
  0.000000E+00
  0.000000E+00
  0.000000E+00
  0.000000E+00
  0.000000E+00
  0.000000E+00
  0.000000E+00
  0.000000E+00
  0.000000E+00
  0.000000E+00
  0.000000E+00
  0.000000E+00
  0.000000E+00
  0.000000E+00
  0.000000E+00
  0.000000E+00
  0.000000E+00
  0.000000E+00
  0.000000E+00
  0.000000E+00
  0.000000E+00
  0.000000E+00
  0.000000E+00
  0.000000E+00
  0.000000E+00
  0.000000E+00
  0.000000E+00
  0.000000E+00
  0.000000E+00
  0.000000E+00
  0.000000E+00
  0.000000E+00
  0.000000E+00
  0.000000E+00
  0.000000E+00
  0.000000E+00
  0.000000E+00
  0.000000E+00
  0.000000E+00
  0.000000E+00
  0.000000E+00
  0.000000E+00
  0.000000E+00
  0.000000E+00
  0.000000E+00
  0.000000E+00
  0.000000E+00
  0.000000E+00
  0.000000E+00
  0.000000E+00
  0.000000E+00
  0.000000E+00
  0.000000E+00
  0.000000E+00
  0.000000E+00
  0.000000E+00
  0.000000E+00
  0.000000E+00
  0.000000E+00
  0.000000E+00
  0.000000E+00
  0.000000E+00
  0.000000E+00
  0.000000E+00
  0.000000E+00
  0.000000E+00
  0.000000E+00
  0.000000E+00
  0.000000E+00
  0.000000E+00
  0.000000E+00
  0.000000E+00
  0.000000E+00
  0.000000E+00
  0.000000E+00
  0.000000E+00
  0.000000E+00
  0.000000E+00
  0.000000E+00
  0.000000E+00
  0.000000E+00
  0.000000E+00
  0.000000E+00
  0.000000E+00
  0.000000E+00
  0.000000E+00
  0.000000E+00
  0.000000E+00
  0.000000E+00
  0.000000E+00
  0.000000E+00
  0.000000E+00
  0.000000E+00
  0.000000E+00
  0.000000E+00
  0.000000E+00
  0.000000E+00
  0.000000E+00
  0.000000E+00
  0.000000E+00
  0.000000E+00
  0.000000E+00
  0.000000E+00
  0.000000E+00
  0.000000E+00
  0.000000E+00
  0.000000E+00
  0.000000E+00
  0.000000E+00
  0.000000E+00
  0.000000E+00
  0.000000E+00
  0.000000E+00
  0.000000E+00
  0.000000E+00
  0.000000E+00
  0.000000E+00
  0.000000E+00
  0.000000E+00
  0.000000E+00
  0.000000E+00
  0.000000E+00
  0.000000E+00
  0.000000E+00
  0.000000E+00
  0.000000E+00
  0.000000E+00
  0.000000E+00
  0.000000E+00
  1.000000E-08
  1.690972E-02
  3.381945E-02
  5.072917E-02
  6.763890E-02
  8.454862E-02
  1.014583E-01
  1.183681E-01
  1.352778E-01
  1.521875E-01
  1.690972E-01
  1.860070E-01
  2.029167E-01
  2.198264E-01
  2.367361E-01
  2.536459E-01
  2.705556E-01
  2.874653E-01
  3.043750E-01
  3.212848E-01
  3.381945E-01
  3.551042E-01
  3.720139E-01
  3.889237E-01
  4.058334E-01
  4.227431E-01
  4.396528E-01
  4.565626E-01
  4.734723E-01
  4.903820E-01
  5.072917E-01
  5.242015E-01
  5.411112E-01
  5.580209E-01
  5.749306E-01
  5.918404E-01
  6.087501E-01
  6.256598E-01
  6.425695E-01
  6.594792E-01
  6.763890E-01
  6.932987E-01
  7.102084E-01
  7.271181E-01
  7.440279E-01
  7.609376E-01
  7.778473E-01
  7.947570E-01
  8.116668E-01
  8.285765E-01
  8.454862E-01
  8.623959E-01
  8.793057E-01
  8.962154E-01
  9.131251E-01
  9.300348E-01
  9.469446E-01
  9.638543E-01
  9.807640E-01
  9.976737E-01
  1.014583E+00
  1.031493E+00
  1.048403E+00
  1.065313E+00
  1.082222E+00
  1.099132E+00
  1.116042E+00
  1.132952E+00
  1.149861E+00
  1.166771E+00
  1.183681E+00
  1.200590E+00
  1.217500E+00
  1.234410E+00
  1.251320E+00
  1.268229E+00
  1.285139E+00
  1.302049E+00
  1.318958E+00
  1.335868E+00
  1.352778E+00
  1.369688E+00
  1.386597E+00
  1.403507E+00
  1.420417E+00
  1.437327E+00
  1.454236E+00
  1.471146E+00
  1.488056E+00
  1.504965E+00
  1.521875E+00
  1.538785E+00
  1.555695E+00
  1.572604E+00
  1.589514E+00
  1.606424E+00
  1.623334E+00
  1.640243E+00
  1.657153E+00
  1.674063E+00
  1.690972E+00
  1.707882E+00
  1.724792E+00
  1.741702E+00
  1.758611E+00
  1.775521E+00
  1.792431E+00
  1.809341E+00
  1.826250E+00
  1.843160E+00
  1.860070E+00
  1.876979E+00
  1.893889E+00
  1.910799E+00
  1.927709E+00
  1.944618E+00
  1.961528E+00
  1.978438E+00
  1.995347E+00
  2.012257E+00
  2.029167E+00
  2.046077E+00
  2.062986E+00
  2.079896E+00
  2.096806E+00
  2.113716E+00
  2.130625E+00
  2.147535E+00
  2.164445E+00
  2.181354E+00
  2.198264E+00
  2.215174E+00
  2.232084E+00
  2.248993E+00
  2.265903E+00
  2.282813E+00
  2.299723E+00
  2.316632E+00
  2.333542E+00
  2.350452E+00
  2.367361E+00
  2.384271E+00
  2.401181E+00
  2.418091E+00
  2.435000E+00
  2.451910E+00
  2.468820E+00
  2.485729E+00
  2.502639E+00
  2.519549E+00
  1.102174E+04
  1.102015E+04
  1.101856E+04
  1.101698E+04
  1.101539E+04
  1.101380E+04
  1.101222E+04
  1.101063E+04
  1.100904E+04
  1.100430E+04
  1.099942E+04
  1.099454E+04
  1.098966E+04
  1.098478E+04
  1.097990E+04
  1.097501E+04
  1.096918E+04
  1.096129E+04
  1.095340E+04
  1.094551E+04
  1.093762E+04
  1.092972E+04
  1.092183E+04
  1.091378E+04
  1.090304E+04
  1.089229E+04
  1.088155E+04
  1.087080E+04
  1.086006E+04
  1.084932E+04
  1.083808E+04
  1.082427E+04
  1.081045E+04
  1.079663E+04
  1.078281E+04
  1.076900E+04
  1.075518E+04
  1.073938E+04
  1.072230E+04
  1.070521E+04
  1.068813E+04
  1.067105E+04
  1.065397E+04
  1.063561E+04
  1.061520E+04
  1.059479E+04
  1.057438E+04
  1.055397E+04
  1.053356E+04
  1.051155E+04
  1.048775E+04
  1.046394E+04
  1.044014E+04
  1.041633E+04
  1.039253E+04
  1.036577E+04
  1.033849E+04
  1.031122E+04
  1.028394E+04
  1.025667E+04
  1.022762E+04
  1.019690E+04
  1.016617E+04
  1.013546E+04
  1.010474E+04
  1.007246E+04
  1.003826E+04
  1.000406E+04
  9.969858E+03
  9.935661E+03
  9.899167E+03
  9.861331E+03
  9.823496E+03
  9.785664E+03
  9.747623E+03
  9.706065E+03
  9.664507E+03
  9.622951E+03
  9.581394E+03
  9.537166E+03
  9.491845E+03
  9.446524E+03
  9.401204E+03
  9.353655E+03
  9.304494E+03
  9.255335E+03
  9.206178E+03
  9.154602E+03
  9.101769E+03
  9.048940E+03
  8.996115E+03
  8.940155E+03
  8.883971E+03
  8.827795E+03
  8.770280E+03
  8.710679E+03
  8.651096E+03
  8.591433E+03
  8.528441E+03
  8.465482E+03
  8.402557E+03
  8.337426E+03
  8.271895E+03
  8.206417E+03
  8.138946E+03
  8.071019E+03
  8.003154E+03
  7.932176E+03
  7.860963E+03
  7.789055E+03
  7.713612E+03
  7.638230E+03
  7.560132E+03
  7.480012E+03
  7.399434E+03
  7.314311E+03
  7.229229E+03
  7.140359E+03
  7.050253E+03
  6.957663E+03
  6.862775E+03
  6.766099E+03
  6.666725E+03
  6.565778E+03
  6.462321E+03
  6.357192E+03
  6.250200E+03
  6.141182E+03
  6.031106E+03
  5.918474E+03
  5.804944E+03
  5.689676E+03
  5.572801E+03
  5.454810E+03
  5.335253E+03
  5.213880E+03
  5.091003E+03
  4.966444E+03
  4.840098E+03
  4.712589E+03
  4.588162E+03
  4.475937E+03
  4.391115E+03
  4.360360E+03
  4.442360E+03
  4.602559E+03
  4.391862E+03
  4.567703E+03
  1.345414E+03
  2.321103E-03
  6.047661E+02
  6.047444E+02
  6.047227E+02
  6.047011E+02
  6.046794E+02
  6.046577E+02
  6.046361E+02
  6.046144E+02
  6.045928E+02
  6.045318E+02
  6.044690E+02
  6.044062E+02
  6.043434E+02
  6.042807E+02
  6.042179E+02
  6.041552E+02
  6.040945E+02
  6.040383E+02
  6.039822E+02
  6.039261E+02
  6.038700E+02
  6.038139E+02
  6.037578E+02
  6.037030E+02
  6.036688E+02
  6.036347E+02
  6.036006E+02
  6.035665E+02
  6.035325E+02
  6.034985E+02
  6.034600E+02
  6.033976E+02
  6.033352E+02
  6.032729E+02
  6.032107E+02
  6.031486E+02
  6.030865E+02
  6.030025E+02
  6.029044E+02
  6.028065E+02
  6.027086E+02
  6.026109E+02
  6.025132E+02
  6.024097E+02
  6.022969E+02
  6.021843E+02
  6.020718E+02
  6.019594E+02
  6.018472E+02
  6.017210E+02
  6.015789E+02
  6.014371E+02
  6.012955E+02
  6.011541E+02
  6.010130E+02
  6.008083E+02
  6.005930E+02
  6.003780E+02
  6.001633E+02
  5.999489E+02
  5.996877E+02
  5.993828E+02
  5.990783E+02
  5.987742E+02
  5.984705E+02
  5.981136E+02
  5.976910E+02
  5.972688E+02
  5.968470E+02
  5.964256E+02
  5.958966E+02
  5.953050E+02
  5.947137E+02
  5.941227E+02
  5.935217E+02
  5.927467E+02
  5.919719E+02
  5.911973E+02
  5.904229E+02
  5.894308E+02
  5.883496E+02
  5.872686E+02
  5.861877E+02
  5.847477E+02
  5.830478E+02
  5.813477E+02
  5.796476E+02
  5.773737E+02
  5.748009E+02
  5.722281E+02
  5.696553E+02
  5.661392E+02
  5.625545E+02
  5.589712E+02
  5.548756E+02
  5.499835E+02
  5.450969E+02
  5.401766E+02
  5.338767E+02
  5.275899E+02
  5.213161E+02
  5.143687E+02
  5.073021E+02
  5.002547E+02
  4.932297E+02
  4.862259E+02
  4.792419E+02
  4.727667E+02
  4.663544E+02
  4.601074E+02
  4.545809E+02
  4.490649E+02
  4.441584E+02
  4.397067E+02
  4.353703E+02
  4.320351E+02
  4.287013E+02
  4.261676E+02
  4.238993E+02
  4.221062E+02
  4.207534E+02
  4.196493E+02
  4.189192E+02
  4.183045E+02
  4.178724E+02
  4.174893E+02
  4.171622E+02
  4.168501E+02
  4.165535E+02
  4.162743E+02
  4.160315E+02
  4.158555E+02
  4.158382E+02
  4.159820E+02
  4.164140E+02
  4.173342E+02
  4.187644E+02
  4.208751E+02
  4.239236E+02
  4.286692E+02
  4.361514E+02
  4.484937E+02
  4.692114E+02
  5.042775E+02
  5.653741E+02
  6.516789E+02
  6.977572E+02
  8.074246E+02
  3.485023E+02
  5.055412E-04
  1.988102E+03
  1.987669E+03
  1.987237E+03
  1.986804E+03
  1.986372E+03
  1.985939E+03
  1.985507E+03
  1.985074E+03
  1.984642E+03
  1.983405E+03
  1.982132E+03
  1.980859E+03
  1.979586E+03
  1.978313E+03
  1.977040E+03
  1.975767E+03
  1.974283E+03
  1.972341E+03
  1.970398E+03
  1.968456E+03
  1.966513E+03
  1.964571E+03
  1.962629E+03
  1.960650E+03
  1.958064E+03
  1.955477E+03
  1.952890E+03
  1.950304E+03
  1.947717E+03
  1.945130E+03
  1.942419E+03
  1.939047E+03
  1.935675E+03
  1.932304E+03
  1.928932E+03
  1.925560E+03
  1.922189E+03
  1.918276E+03
  1.914014E+03
  1.909752E+03
  1.905490E+03
  1.901228E+03
  1.896966E+03
  1.892355E+03
  1.887183E+03
  1.882011E+03
  1.876840E+03
  1.871668E+03
  1.866496E+03
  1.860906E+03
  1.854843E+03
  1.848781E+03
  1.842719E+03
  1.836657E+03
  1.830595E+03
  1.823846E+03
  1.816978E+03
  1.810110E+03
  1.803243E+03
  1.796376E+03
  1.789184E+03
  1.781688E+03
  1.774193E+03
  1.766698E+03
  1.759204E+03
  1.751487E+03
  1.743495E+03
  1.735503E+03
  1.727512E+03
  1.719522E+03
  1.711304E+03
  1.702955E+03
  1.694605E+03
  1.686256E+03
  1.677907E+03
  1.669556E+03
  1.661206E+03
  1.652855E+03
  1.644505E+03
  1.636323E+03
  1.628211E+03
  1.620100E+03
  1.611988E+03
  1.603933E+03
  1.595920E+03
  1.587907E+03
  1.579894E+03
  1.571976E+03
  1.564107E+03
  1.556239E+03
  1.548372E+03
  1.540911E+03
  1.533483E+03
  1.526058E+03
  1.518699E+03
  1.511448E+03
  1.504203E+03
  1.496949E+03
  1.489144E+03
  1.481355E+03
  1.473581E+03
  1.465117E+03
  1.456535E+03
  1.447948E+03
  1.438588E+03
  1.429048E+03
  1.419537E+03
  1.408489E+03
  1.397323E+03
  1.385778E+03
  1.372324E+03
  1.358896E+03
  1.344015E+03
  1.328050E+03
  1.311850E+03
  1.293367E+03
  1.274897E+03
  1.254697E+03
  1.233927E+03
  1.212176E+03
  1.189517E+03
  1.166305E+03
  1.142259E+03
  1.117891E+03
  1.093009E+03
  1.068010E+03
  1.042881E+03
  1.017966E+03
  9.931674E+02
  9.691811E+02
  9.456664E+02
  9.231504E+02
  9.020097E+02
  8.819572E+02
  8.636280E+02
  8.474981E+02
  8.332239E+02
  8.211269E+02
  8.116449E+02
  8.064033E+02
  8.079820E+02
  8.223530E+02
  8.599693E+02
  9.371732E+02
  1.079376E+03
  1.272285E+03
  1.336099E+03
  1.397711E+03
 -7.890782E+01
  2.909699E-09
  1.237136E+00
  1.236958E+00
  1.236780E+00
  1.236602E+00
  1.236423E+00
  1.236245E+00
  1.236067E+00
  1.235889E+00
  1.235711E+00
  1.235179E+00
  1.234631E+00
  1.234083E+00
  1.233535E+00
  1.232987E+00
  1.232439E+00
  1.231891E+00
  1.231237E+00
  1.230351E+00
  1.229465E+00
  1.228579E+00
  1.227694E+00
  1.226808E+00
  1.225922E+00
  1.225018E+00
  1.223812E+00
  1.222606E+00
  1.221400E+00
  1.220194E+00
  1.218988E+00
  1.217782E+00
  1.216522E+00
  1.214971E+00
  1.213420E+00
  1.211869E+00
  1.210318E+00
  1.208767E+00
  1.207216E+00
  1.205443E+00
  1.203525E+00
  1.201608E+00
  1.199690E+00
  1.197773E+00
  1.195855E+00
  1.193795E+00
  1.191504E+00
  1.189213E+00
  1.186922E+00
  1.184631E+00
  1.182340E+00
  1.179870E+00
  1.177198E+00
  1.174526E+00
  1.171854E+00
  1.169182E+00
  1.166511E+00
  1.163506E+00
  1.160445E+00
  1.157383E+00
  1.154322E+00
  1.151261E+00
  1.148000E+00
  1.144551E+00
  1.141103E+00
  1.137655E+00
  1.134207E+00
  1.130584E+00
  1.126745E+00
  1.122906E+00
  1.119068E+00
  1.115229E+00
  1.111133E+00
  1.106886E+00
  1.102639E+00
  1.098393E+00
  1.094123E+00
  1.089458E+00
  1.084793E+00
  1.080129E+00
  1.075464E+00
  1.070500E+00
  1.065413E+00
  1.060326E+00
  1.055239E+00
  1.049902E+00
  1.044384E+00
  1.038866E+00
  1.033348E+00
  1.027559E+00
  1.021629E+00
  1.015699E+00
  1.009770E+00
  1.003488E+00
  9.971821E-01
  9.908766E-01
  9.844208E-01
  9.777309E-01
  9.710429E-01
  9.643461E-01
  9.572755E-01
  9.502087E-01
  9.431457E-01
  9.358351E-01
  9.284796E-01
  9.211299E-01
  9.135567E-01
  9.059322E-01
  8.983147E-01
  8.903477E-01
  8.823544E-01
  8.742831E-01
  8.658150E-01
  8.573537E-01
  8.485877E-01
  8.395945E-01
  8.305501E-01
  8.209955E-01
  8.114455E-01
  8.014702E-01
  7.913562E-01
  7.809635E-01
  7.703128E-01
  7.594614E-01
  7.483070E-01
  7.369763E-01
  7.253638E-01
  7.135636E-01
  7.015542E-01
  6.893175E-01
  6.769620E-01
  6.643196E-01
  6.515764E-01
  6.386382E-01
  6.255195E-01
  6.122756E-01
  5.988559E-01
  5.852324E-01
  5.714400E-01
  5.574589E-01
  5.432772E-01
  5.289649E-01
  5.149986E-01
  5.024019E-01
  4.928811E-01
  4.894290E-01
  4.986331E-01
  5.166146E-01
  4.929649E-01
  5.127022E-01
  1.510161E-01
  2.605324E-07
  1.103271E+00
  1.103232E+00
  1.103192E+00
  1.103153E+00
  1.103113E+00
  1.103074E+00
  1.103034E+00
  1.102995E+00
  1.102955E+00
  1.102844E+00
  1.102729E+00
  1.102615E+00
  1.102500E+00
  1.102386E+00
  1.102271E+00
  1.102157E+00
  1.102046E+00
  1.101944E+00
  1.101841E+00
  1.101739E+00
  1.101636E+00
  1.101534E+00
  1.101432E+00
  1.101332E+00
  1.101269E+00
  1.101207E+00
  1.101145E+00
  1.101083E+00
  1.101021E+00
  1.100959E+00
  1.100889E+00
  1.100775E+00
  1.100661E+00
  1.100547E+00
  1.100434E+00
  1.100320E+00
  1.100207E+00
  1.100054E+00
  1.099875E+00
  1.099696E+00
  1.099518E+00
  1.099339E+00
  1.099161E+00
  1.098973E+00
  1.098767E+00
  1.098561E+00
  1.098356E+00
  1.098151E+00
  1.097946E+00
  1.097716E+00
  1.097457E+00
  1.097198E+00
  1.096940E+00
  1.096682E+00
  1.096424E+00
  1.096051E+00
  1.095658E+00
  1.095266E+00
  1.094874E+00
  1.094483E+00
  1.094007E+00
  1.093450E+00
  1.092895E+00
  1.092340E+00
  1.091786E+00
  1.091135E+00
  1.090364E+00
  1.089594E+00
  1.088824E+00
  1.088056E+00
  1.087091E+00
  1.086011E+00
  1.084933E+00
  1.083855E+00
  1.082758E+00
  1.081344E+00
  1.079931E+00
  1.078518E+00
  1.077105E+00
  1.075295E+00
  1.073323E+00
  1.071351E+00
  1.069379E+00
  1.066752E+00
  1.063651E+00
  1.060549E+00
  1.057448E+00
  1.053299E+00
  1.048606E+00
  1.043912E+00
  1.039219E+00
  1.032804E+00
  1.026265E+00
  1.019728E+00
  1.012256E+00
  1.003332E+00
  9.944171E-01
  9.854410E-01
  9.739481E-01
  9.624792E-01
  9.510338E-01
  9.383597E-01
  9.254682E-01
  9.126117E-01
  8.997960E-01
  8.870190E-01
  8.742783E-01
  8.624655E-01
  8.507676E-01
  8.393712E-01
  8.292893E-01
  8.192265E-01
  8.102755E-01
  8.021544E-01
  7.942434E-01
  7.881591E-01
  7.820772E-01
  7.774550E-01
  7.733171E-01
  7.700458E-01
  7.675780E-01
  7.655637E-01
  7.642318E-01
  7.631104E-01
  7.623221E-01
  7.616233E-01
  7.610266E-01
  7.604572E-01
  7.599161E-01
  7.594067E-01
  7.589639E-01
  7.586427E-01
  7.586112E-01
  7.588735E-01
  7.596616E-01
  7.613403E-01
  7.639494E-01
  7.678000E-01
  7.733614E-01
  7.820187E-01
  7.956684E-01
  8.181844E-01
  8.559796E-01
  9.199505E-01
  1.031409E+00
  1.188854E+00
  1.272914E+00
  1.472980E+00
  6.357708E-01
  9.222558E-07
  1.260023E+00
  1.259749E+00
  1.259474E+00
  1.259200E+00
  1.258926E+00
  1.258652E+00
  1.258378E+00
  1.258104E+00
  1.257830E+00
  1.257046E+00
  1.256239E+00
  1.255433E+00
  1.254626E+00
  1.253819E+00
  1.253012E+00
  1.252205E+00
  1.251265E+00
  1.250034E+00
  1.248803E+00
  1.247572E+00
  1.246340E+00
  1.245109E+00
  1.243878E+00
  1.242625E+00
  1.240985E+00
  1.239346E+00
  1.237706E+00
  1.236067E+00
  1.234428E+00
  1.232788E+00
  1.231070E+00
  1.228933E+00
  1.226796E+00
  1.224659E+00
  1.222522E+00
  1.220385E+00
  1.218248E+00
  1.215769E+00
  1.213067E+00
  1.210366E+00
  1.207665E+00
  1.204964E+00
  1.202262E+00
  1.199340E+00
  1.196062E+00
  1.192785E+00
  1.189507E+00
  1.186229E+00
  1.182951E+00
  1.179408E+00
  1.175566E+00
  1.171724E+00
  1.167882E+00
  1.164040E+00
  1.160198E+00
  1.155920E+00
  1.151568E+00
  1.147215E+00
  1.142863E+00
  1.138510E+00
  1.133952E+00
  1.129202E+00
  1.124451E+00
  1.119701E+00
  1.114951E+00
  1.110060E+00
  1.104995E+00
  1.099931E+00
  1.094866E+00
  1.089802E+00
  1.084594E+00
  1.079302E+00
  1.074010E+00
  1.068718E+00
  1.063427E+00
  1.058134E+00
  1.052842E+00
  1.047550E+00
  1.042257E+00
  1.037072E+00
  1.031931E+00
  1.026790E+00
  1.021649E+00
  1.016544E+00
  1.011465E+00
  1.006387E+00
  1.001308E+00
  9.962898E-01
  9.913026E-01
  9.863161E-01
  9.813301E-01
  9.766016E-01
  9.718937E-01
  9.671876E-01
  9.625241E-01
  9.579280E-01
  9.533363E-01
  9.487388E-01
  9.437924E-01
  9.388557E-01
  9.339286E-01
  9.285643E-01
  9.231254E-01
  9.176834E-01
  9.117512E-01
  9.057045E-01
  8.996767E-01
  8.926746E-01
  8.855978E-01
  8.782810E-01
  8.697538E-01
  8.612433E-01
  8.518125E-01
  8.416937E-01
  8.314264E-01
  8.197124E-01
  8.080068E-01
  7.952043E-01
  7.820405E-01
  7.682552E-01
  7.538943E-01
  7.391827E-01
  7.239430E-01
  7.084990E-01
  6.927292E-01
  6.768851E-01
  6.609588E-01
  6.451682E-01
  6.294515E-01
  6.142494E-01
  5.993462E-01
  5.850759E-01
  5.716774E-01
  5.589685E-01
  5.473517E-01
  5.371289E-01
  5.280822E-01
  5.204153E-01
  5.144058E-01
  5.110838E-01
  5.120844E-01
  5.211924E-01
  5.450329E-01
  5.939633E-01
  6.840888E-01
  8.063508E-01
  8.467955E-01
  8.858442E-01
 -5.001034E-02
  1.844114E-12
  9.758728E-01
  9.757322E-01
  9.755917E-01
  9.754511E-01
  9.753106E-01
  9.751700E-01
  9.750295E-01
  9.748890E-01
  9.747484E-01
  9.743289E-01
  9.738967E-01
  9.734644E-01
  9.730321E-01
  9.725999E-01
  9.721677E-01
  9.717354E-01
  9.712193E-01
  9.705204E-01
  9.698216E-01
  9.691228E-01
  9.684240E-01
  9.677252E-01
  9.670264E-01
  9.663136E-01
  9.653622E-01
  9.644109E-01
  9.634595E-01
  9.625081E-01
  9.615568E-01
  9.606055E-01
  9.596109E-01
  9.583874E-01
  9.571640E-01
  9.559405E-01
  9.547171E-01
  9.534937E-01
  9.522703E-01
  9.508712E-01
  9.493585E-01
  9.478458E-01
  9.463331E-01
  9.448205E-01
  9.433079E-01
  9.416823E-01
  9.398749E-01
  9.380676E-01
  9.362604E-01
  9.344531E-01
  9.326460E-01
  9.306973E-01
  9.285893E-01
  9.264814E-01
  9.243735E-01
  9.222658E-01
  9.201581E-01
  9.177879E-01
  9.153727E-01
  9.129576E-01
  9.105427E-01
  9.081278E-01
  9.055550E-01
  9.028346E-01
  9.001142E-01
  8.973941E-01
  8.946741E-01
  8.918161E-01
  8.887874E-01
  8.857589E-01
  8.827306E-01
  8.797025E-01
  8.764709E-01
  8.731206E-01
  8.697704E-01
  8.664202E-01
  8.630518E-01
  8.593717E-01
  8.556918E-01
  8.520118E-01
  8.483319E-01
  8.444155E-01
  8.404022E-01
  8.363889E-01
  8.323758E-01
  8.281653E-01
  8.238123E-01
  8.194594E-01
  8.151068E-01
  8.105402E-01
  8.058626E-01
  8.011853E-01
  7.965084E-01
  7.915545E-01
  7.865809E-01
  7.816079E-01
  7.765166E-01
  7.712411E-01
  7.659669E-01
  7.606857E-01
  7.551100E-01
  7.495371E-01
  7.439669E-01
  7.382012E-01
  7.323996E-01
  7.266018E-01
  7.206271E-01
  7.146114E-01
  7.086009E-01
  7.023144E-01
  6.960069E-01
  6.896376E-01
  6.829556E-01
  6.762788E-01
  6.693619E-01
  6.622663E-01
  6.551302E-01
  6.475928E-01
  6.400590E-01
  6.321908E-01
  6.242134E-01
  6.160167E-01
  6.076171E-01
  5.990593E-01
  5.902629E-01
  5.813274E-01
  5.721696E-01
  5.628637E-01
  5.533924E-01
  5.437417E-01
  5.339968E-01
  5.240253E-01
  5.139739E-01
  5.037679E-01
  4.934190E-01
  4.829709E-01
  4.723838E-01
  4.616357E-01
  4.507540E-01
  4.397232E-01
  4.285339E-01
  4.172415E-01
  4.062217E-01
  3.962822E-01
  3.887687E-01
  3.860419E-01
  3.932974E-01
  4.074756E-01
  3.888174E-01
  4.043798E-01
  1.387590E-01
  4.117842E-02
  5.354643E-02
  5.354451E-02
  5.354259E-02
  5.354067E-02
  5.353875E-02
  5.353683E-02
  5.353491E-02
  5.353300E-02
  5.353108E-02
  5.352568E-02
  5.352011E-02
  5.351455E-02
  5.350899E-02
  5.350344E-02
  5.349788E-02
  5.349232E-02
  5.348695E-02
  5.348198E-02
  5.347700E-02
  5.347203E-02
  5.346706E-02
  5.346210E-02
  5.345713E-02
  5.345228E-02
  5.344925E-02
  5.344622E-02
  5.344320E-02
  5.344018E-02
  5.343716E-02
  5.343415E-02
  5.343074E-02
  5.342521E-02
  5.341968E-02
  5.341416E-02
  5.340865E-02
  5.340314E-02
  5.339764E-02
  5.339020E-02
  5.338151E-02
  5.337283E-02
  5.336416E-02
  5.335550E-02
  5.334684E-02
  5.333768E-02
  5.332768E-02
  5.331769E-02
  5.330772E-02
  5.329776E-02
  5.328782E-02
  5.327663E-02
  5.326404E-02
  5.325147E-02
  5.323892E-02
  5.322639E-02
  5.321388E-02
  5.319574E-02
  5.317666E-02
  5.315761E-02
  5.313859E-02
  5.311959E-02
  5.309645E-02
  5.306944E-02
  5.304246E-02
  5.301552E-02
  5.298861E-02
  5.295700E-02
  5.291956E-02
  5.288216E-02
  5.284479E-02
  5.280746E-02
  5.276061E-02
  5.270821E-02
  5.265583E-02
  5.260348E-02
  5.255024E-02
  5.248159E-02
  5.241296E-02
  5.234435E-02
  5.227576E-02
  5.218788E-02
  5.209212E-02
  5.199637E-02
  5.190064E-02
  5.177311E-02
  5.162257E-02
  5.147203E-02
  5.132148E-02
  5.112015E-02
  5.089237E-02
  5.066458E-02
  5.043679E-02
  5.012553E-02
  4.980820E-02
  4.949099E-02
  4.912844E-02
  4.869538E-02
  4.826281E-02
  4.782725E-02
  4.726956E-02
  4.671302E-02
  4.615760E-02
  4.554254E-02
  4.491690E-02
  4.429290E-02
  4.367085E-02
  4.305064E-02
  4.243218E-02
  4.185874E-02
  4.129086E-02
  4.073760E-02
  4.024815E-02
  3.975961E-02
  3.932507E-02
  3.893081E-02
  3.854676E-02
  3.825142E-02
  3.795621E-02
  3.773188E-02
  3.753108E-02
  3.737239E-02
  3.725271E-02
  3.715506E-02
  3.709055E-02
  3.703626E-02
  3.699814E-02
  3.696436E-02
  3.693553E-02
  3.690800E-02
  3.688183E-02
  3.685718E-02
  3.683573E-02
  3.682013E-02
  3.681856E-02
  3.683120E-02
  3.686934E-02
  3.695067E-02
  3.707712E-02
  3.726380E-02
  3.753346E-02
  3.795335E-02
  3.861550E-02
  3.970790E-02
  4.154177E-02
  4.464591E-02
  5.005451E-02
  5.769470E-02
  6.177338E-02
  7.148147E-02
  3.594273E-02
  8.968745E-03
  1.760279E-01
  1.759897E-01
  1.759514E-01
  1.759131E-01
  1.758748E-01
  1.758365E-01
  1.757982E-01
  1.757599E-01
  1.757216E-01
  1.756121E-01
  1.754994E-01
  1.753867E-01
  1.752740E-01
  1.751612E-01
  1.750485E-01
  1.749358E-01
  1.748044E-01
  1.746324E-01
  1.744604E-01
  1.742884E-01
  1.741165E-01
  1.739445E-01
  1.737725E-01
  1.735973E-01
  1.733683E-01
  1.731392E-01
  1.729102E-01
  1.726812E-01
  1.724521E-01
  1.722231E-01
  1.719830E-01
  1.716845E-01
  1.713859E-01
  1.710874E-01
  1.707888E-01
  1.704903E-01
  1.701917E-01
  1.698453E-01
  1.694679E-01
  1.690905E-01
  1.687131E-01
  1.683358E-01
  1.679584E-01
  1.675501E-01
  1.670922E-01
  1.666342E-01
  1.661763E-01
  1.657183E-01
  1.652604E-01
  1.647654E-01
  1.642286E-01
  1.636918E-01
  1.631550E-01
  1.626182E-01
  1.620815E-01
  1.614838E-01
  1.608757E-01
  1.602676E-01
  1.596595E-01
  1.590515E-01
  1.584146E-01
  1.577509E-01
  1.570872E-01
  1.564236E-01
  1.557600E-01
  1.550767E-01
  1.543690E-01
  1.536614E-01
  1.529538E-01
  1.522463E-01
  1.515187E-01
  1.507793E-01
  1.500400E-01
  1.493007E-01
  1.485614E-01
  1.478220E-01
  1.470825E-01
  1.463431E-01
  1.456036E-01
  1.448792E-01
  1.441609E-01
  1.434425E-01
  1.427242E-01
  1.420110E-01
  1.413014E-01
  1.405919E-01
  1.398824E-01
  1.391813E-01
  1.384847E-01
  1.377881E-01
  1.370915E-01
  1.364311E-01
  1.357736E-01
  1.351163E-01
  1.344650E-01
  1.338231E-01
  1.331819E-01
  1.325399E-01
  1.318491E-01
  1.311597E-01
  1.304716E-01
  1.297224E-01
  1.289627E-01
  1.282024E-01
  1.273735E-01
  1.265285E-01
  1.256861E-01
  1.247075E-01
  1.237185E-01
  1.226958E-01
  1.215042E-01
  1.203148E-01
  1.189969E-01
  1.175830E-01
  1.161484E-01
  1.145118E-01
  1.128764E-01
  1.110880E-01
  1.092491E-01
  1.073235E-01
  1.053176E-01
  1.032627E-01
  1.011341E-01
  9.897694E-02
  9.677428E-02
  9.456121E-02
  9.233661E-02
  9.013092E-02
  8.793549E-02
  8.581189E-02
  8.372998E-02
  8.173638E-02
  7.986446E-02
  7.808882E-02
  7.646571E-02
  7.503728E-02
  7.377309E-02
  7.270163E-02
  7.186164E-02
  7.139704E-02
  7.153624E-02
  7.280796E-02
  7.613764E-02
  8.297206E-02
  9.556084E-02
  1.126384E-01
  1.182867E-01
  1.237397E-01
 -8.138144E-03
  5.162063E-08
  9.760605E-01
  9.759199E-01
  9.757794E-01
  9.756389E-01
  9.754984E-01
  9.753579E-01
  9.752174E-01
  9.750769E-01
  9.749364E-01
  9.745169E-01
  9.740848E-01
  9.736526E-01
  9.732205E-01
  9.727884E-01
  9.723562E-01
  9.719241E-01
  9.714081E-01
  9.707094E-01
  9.700108E-01
  9.693122E-01
  9.686136E-01
  9.679150E-01
  9.672163E-01
  9.665038E-01
  9.655527E-01