 Title= "ADflow Lift Distribution Data"
Variables = "eta" "CoordinateX" "CoordinateY" "CoordinateZ" "Lift" "Drag" "Moment" "Normalized Lift" "Normalized Drag" "Normalized Moment" "CL" "CD" "CM" "CLp" "CDp" "CMp" "CLv" "CDv" "CMv" "Elliptical" "thickness" "twist" "chord" "fx" "fy" "fz" 
Zone T= "LiftDist_01 allWalls: : z normal"
 I=          150
 DATAPACKING=BLOCK
  0.000000E+00
  6.711405E-03
  1.342281E-02
  2.013422E-02
  2.684563E-02
  3.355704E-02
  4.026845E-02
  4.697986E-02
  5.369127E-02
  6.040268E-02
  6.711409E-02
  7.382550E-02
  8.053691E-02
  8.724832E-02
  9.395973E-02
  1.006711E-01
  1.073825E-01
  1.140940E-01
  1.208054E-01
  1.275168E-01
  1.342282E-01
  1.409396E-01
  1.476510E-01
  1.543624E-01
  1.610738E-01
  1.677852E-01
  1.744966E-01
  1.812081E-01
  1.879195E-01
  1.946309E-01
  2.013423E-01
  2.080537E-01
  2.147651E-01
  2.214765E-01
  2.281879E-01
  2.348993E-01
  2.416107E-01
  2.483221E-01
  2.550336E-01
  2.617450E-01
  2.684564E-01
  2.751678E-01
  2.818792E-01
  2.885906E-01
  2.953020E-01
  3.020134E-01
  3.087248E-01
  3.154362E-01
  3.221476E-01
  3.288591E-01
  3.355705E-01
  3.422819E-01
  3.489933E-01
  3.557047E-01
  3.624161E-01
  3.691275E-01
  3.758389E-01
  3.825503E-01
  3.892617E-01
  3.959732E-01
  4.026846E-01
  4.093960E-01
  4.161074E-01
  4.228188E-01
  4.295302E-01
  4.362416E-01
  4.429530E-01
  4.496644E-01
  4.563758E-01
  4.630872E-01
  4.697987E-01
  4.765101E-01
  4.832215E-01
  4.899329E-01
  4.966443E-01
  5.033557E-01
  5.100671E-01
  5.167785E-01
  5.234899E-01
  5.302013E-01
  5.369128E-01
  5.436242E-01
  5.503356E-01
  5.570470E-01
  5.637584E-01
  5.704698E-01
  5.771812E-01
  5.838926E-01
  5.906040E-01
  5.973154E-01
  6.040268E-01
  6.107383E-01
  6.174497E-01
  6.241611E-01
  6.308725E-01
  6.375839E-01
  6.442953E-01
  6.510067E-01
  6.577181E-01
  6.644295E-01
  6.711409E-01
  6.778524E-01
  6.845638E-01
  6.912752E-01
  6.979866E-01
  7.046980E-01
  7.114094E-01
  7.181208E-01
  7.248322E-01
  7.315436E-01
  7.382550E-01
  7.449664E-01
  7.516779E-01
  7.583893E-01
  7.651007E-01
  7.718121E-01
  7.785235E-01
  7.852349E-01
  7.919463E-01
  7.986577E-01
  8.053691E-01
  8.120805E-01
  8.187919E-01
  8.255034E-01
  8.322148E-01
  8.389262E-01
  8.456376E-01
  8.523490E-01
  8.590604E-01
  8.657718E-01
  8.724832E-01
  8.791946E-01
  8.859060E-01
  8.926175E-01
  8.993289E-01
  9.060403E-01
  9.127517E-01
  9.194631E-01
  9.261745E-01
  9.328859E-01
  9.395973E-01
  9.463087E-01
  9.530201E-01
  9.597315E-01
  9.664430E-01
  9.731544E-01
  9.798658E-01
  9.865772E-01
  9.932886E-01
  1.000000E+00
  0.000000E+00
  0.000000E+00
  0.000000E+00
  0.000000E+00
  0.000000E+00
  0.000000E+00
  0.000000E+00
  0.000000E+00
  0.000000E+00
  0.000000E+00
  0.000000E+00
  0.000000E+00
  0.000000E+00
  0.000000E+00
  0.000000E+00
  0.000000E+00
  0.000000E+00
  0.000000E+00
  0.000000E+00
  0.000000E+00
  0.000000E+00
  0.000000E+00
  0.000000E+00
  0.000000E+00
  0.000000E+00
  0.000000E+00
  0.000000E+00
  0.000000E+00
  0.000000E+00
  0.000000E+00
  0.000000E+00
  0.000000E+00
  0.000000E+00
  0.000000E+00
  0.000000E+00
  0.000000E+00
  0.000000E+00
  0.000000E+00
  0.000000E+00
  0.000000E+00
  0.000000E+00
  0.000000E+00
  0.000000E+00
  0.000000E+00
  0.000000E+00
  0.000000E+00
  0.000000E+00
  0.000000E+00
  0.000000E+00
  0.000000E+00
  0.000000E+00
  0.000000E+00
  0.000000E+00
  0.000000E+00
  0.000000E+00
  0.000000E+00
  0.000000E+00
  0.000000E+00
  0.000000E+00
  0.000000E+00
  0.000000E+00
  0.000000E+00
  0.000000E+00
  0.000000E+00
  0.000000E+00
  0.000000E+00
  0.000000E+00
  0.000000E+00
  0.000000E+00
  0.000000E+00
  0.000000E+00
  0.000000E+00
  0.000000E+00
  0.000000E+00
  0.000000E+00
  0.000000E+00
  0.000000E+00
  0.000000E+00
  0.000000E+00
  0.000000E+00
  0.000000E+00
  0.000000E+00
  0.000000E+00
  0.000000E+00
  0.000000E+00
  0.000000E+00
  0.000000E+00
  0.000000E+00
  0.000000E+00
  0.000000E+00
  0.000000E+00
  0.000000E+00
  0.000000E+00
  0.000000E+00
  0.000000E+00
  0.000000E+00
  0.000000E+00
  0.000000E+00
  0.000000E+00
  0.000000E+00
  0.000000E+00
  0.000000E+00
  0.000000E+00
  0.000000E+00
  0.000000E+00
  0.000000E+00
  0.000000E+00
  0.000000E+00
  0.000000E+00
  0.000000E+00
  0.000000E+00
  0.000000E+00
  0.000000E+00
  0.000000E+00
  0.000000E+00
  0.000000E+00
  0.000000E+00
  0.000000E+00
  0.000000E+00
  0.000000E+00
  0.000000E+00
  0.000000E+00
  0.000000E+00
  0.000000E+00
  0.000000E+00
  0.000000E+00
  0.000000E+00
  0.000000E+00
  0.000000E+00
  0.000000E+00
  0.000000E+00
  0.000000E+00
  0.000000E+00
  0.000000E+00
  0.000000E+00
  0.000000E+00
  0.000000E+00
  0.000000E+00
  0.000000E+00
  0.000000E+00
  0.000000E+00
  0.000000E+00
  0.000000E+00
  0.000000E+00
  0.000000E+00
  0.000000E+00
  0.000000E+00
  0.000000E+00
  0.000000E+00
  0.000000E+00
  0.000000E+00
  0.000000E+00
  0.000000E+00
  0.000000E+00
  0.000000E+00
  0.000000E+00
  0.000000E+00
  0.000000E+00
  0.000000E+00
  0.000000E+00
  0.000000E+00
  0.000000E+00
  0.000000E+00
  0.000000E+00
  0.000000E+00
  0.000000E+00
  0.000000E+00
  0.000000E+00
  0.000000E+00
  0.000000E+00
  0.000000E+00
  0.000000E+00
  0.000000E+00
  0.000000E+00
  0.000000E+00
  0.000000E+00
  0.000000E+00
  0.000000E+00
  0.000000E+00
  0.000000E+00
  0.000000E+00
  0.000000E+00
  0.000000E+00
  0.000000E+00
  0.000000E+00
  0.000000E+00
  0.000000E+00
  0.000000E+00
  0.000000E+00
  0.000000E+00
  0.000000E+00
  0.000000E+00
  0.000000E+00
  0.000000E+00
  0.000000E+00
  0.000000E+00
  0.000000E+00
  0.000000E+00
  0.000000E+00
  0.000000E+00
  0.000000E+00
  0.000000E+00
  0.000000E+00
  0.000000E+00
  0.000000E+00
  0.000000E+00
  0.000000E+00
  0.000000E+00
  0.000000E+00
  0.000000E+00
  0.000000E+00
  0.000000E+00
  0.000000E+00
  0.000000E+00
  0.000000E+00
  0.000000E+00
  0.000000E+00
  0.000000E+00
  0.000000E+00
  0.000000E+00
  0.000000E+00
  0.000000E+00
  0.000000E+00
  0.000000E+00
  0.000000E+00
  0.000000E+00
  0.000000E+00
  0.000000E+00
  0.000000E+00
  0.000000E+00
  0.000000E+00
  0.000000E+00
  0.000000E+00
  0.000000E+00
  0.000000E+00
  0.000000E+00
  0.000000E+00
  0.000000E+00
  0.000000E+00
  0.000000E+00
  0.000000E+00
  0.000000E+00
  0.000000E+00
  0.000000E+00
  0.000000E+00
  0.000000E+00
  0.000000E+00
  0.000000E+00
  0.000000E+00
  0.000000E+00
  0.000000E+00
  0.000000E+00
  0.000000E+00
  0.000000E+00
  0.000000E+00
  0.000000E+00
  0.000000E+00
  0.000000E+00
  0.000000E+00
  0.000000E+00
  0.000000E+00
  0.000000E+00
  0.000000E+00
  0.000000E+00
  0.000000E+00
  0.000000E+00
  0.000000E+00
  0.000000E+00
  0.000000E+00
  0.000000E+00
  0.000000E+00
  0.000000E+00
  0.000000E+00
  0.000000E+00
  0.000000E+00
  0.000000E+00
  0.000000E+00
  0.000000E+00
  0.000000E+00
  0.000000E+00
  0.000000E+00
  0.000000E+00
  0.000000E+00
  0.000000E+00
  0.000000E+00
  0.000000E+00
  0.000000E+00
  0.000000E+00
  0.000000E+00
  0.000000E+00
  0.000000E+00
  0.000000E+00
  0.000000E+00
  0.000000E+00
  0.000000E+00
  0.000000E+00
  0.000000E+00
  0.000000E+00
  0.000000E+00
  0.000000E+00
  1.000000E-08
  1.690972E-02
  3.381945E-02
  5.072917E-02
  6.763890E-02
  8.454862E-02
  1.014583E-01
  1.183681E-01
  1.352778E-01
  1.521875E-01
  1.690972E-01
  1.860070E-01
  2.029167E-01
  2.198264E-01
  2.367361E-01
  2.536459E-01
  2.705556E-01
  2.874653E-01
  3.043750E-01
  3.212848E-01
  3.381945E-01
  3.551042E-01
  3.720139E-01
  3.889237E-01
  4.058334E-01
  4.227431E-01
  4.396528E-01
  4.565626E-01
  4.734723E-01
  4.903820E-01
  5.072917E-01
  5.242015E-01
  5.411112E-01
  5.580209E-01
  5.749306E-01
  5.918404E-01
  6.087501E-01
  6.256598E-01
  6.425695E-01
  6.594792E-01
  6.763890E-01
  6.932987E-01
  7.102084E-01
  7.271181E-01
  7.440279E-01
  7.609376E-01
  7.778473E-01
  7.947570E-01
  8.116668E-01
  8.285765E-01
  8.454862E-01
  8.623959E-01
  8.793057E-01
  8.962154E-01
  9.131251E-01
  9.300348E-01
  9.469446E-01
  9.638543E-01
  9.807640E-01
  9.976737E-01
  1.014583E+00
  1.031493E+00
  1.048403E+00
  1.065313E+00
  1.082222E+00
  1.099132E+00
  1.116042E+00
  1.132952E+00
  1.149861E+00
  1.166771E+00
  1.183681E+00
  1.200590E+00
  1.217500E+00
  1.234410E+00
  1.251320E+00
  1.268229E+00
  1.285139E+00
  1.302049E+00
  1.318958E+00
  1.335868E+00
  1.352778E+00
  1.369688E+00
  1.386597E+00
  1.403507E+00
  1.420417E+00
  1.437327E+00
  1.454236E+00
  1.471146E+00
  1.488056E+00
  1.504965E+00
  1.521875E+00
  1.538785E+00
  1.555695E+00
  1.572604E+00
  1.589514E+00
  1.606424E+00
  1.623334E+00
  1.640243E+00
  1.657153E+00
  1.674063E+00
  1.690972E+00
  1.707882E+00
  1.724792E+00
  1.741702E+00
  1.758611E+00
  1.775521E+00
  1.792431E+00
  1.809341E+00
  1.826250E+00
  1.843160E+00
  1.860070E+00
  1.876979E+00
  1.893889E+00
  1.910799E+00
  1.927709E+00
  1.944618E+00
  1.961528E+00
  1.978438E+00
  1.995347E+00
  2.012257E+00
  2.029167E+00
  2.046077E+00
  2.062986E+00
  2.079896E+00
  2.096806E+00
  2.113716E+00
  2.130625E+00
  2.147535E+00
  2.164445E+00
  2.181354E+00
  2.198264E+00
  2.215174E+00
  2.232084E+00
  2.248993E+00
  2.265903E+00
  2.282813E+00
  2.299723E+00
  2.316632E+00
  2.333542E+00
  2.350452E+00
  2.367361E+00
  2.384271E+00
  2.401181E+00
  2.418091E+00
  2.435000E+00
  2.451910E+00
  2.468820E+00
  2.485729E+00
  2.502639E+00
  2.519549E+00
  1.102135E+04
  1.101972E+04
  1.101808E+04
  1.101644E+04
  1.101481E+04
  1.101317E+04
  1.101153E+04
  1.100990E+04
  1.100826E+04
  1.100366E+04
  1.099892E+04
  1.099418E+04
  1.098944E+04
  1.098470E+04
  1.097996E+04
  1.097522E+04
  1.096961E+04
  1.096208E+04
  1.095454E+04
  1.094701E+04
  1.093948E+04
  1.093195E+04
  1.092442E+04
  1.091672E+04
  1.090615E+04
  1.089558E+04
  1.088500E+04
  1.087443E+04
  1.086386E+04
  1.085329E+04
  1.084219E+04
  1.082830E+04
  1.081440E+04
  1.080051E+04
  1.078662E+04
  1.077272E+04
  1.075883E+04
  1.074285E+04
  1.072553E+04
  1.070821E+04
  1.069089E+04
  1.067357E+04
  1.065624E+04
  1.063762E+04
  1.061691E+04
  1.059620E+04
  1.057549E+04
  1.055479E+04
  1.053408E+04
  1.051177E+04
  1.048767E+04
  1.046357E+04
  1.043947E+04
  1.041537E+04
  1.039128E+04
  1.036426E+04
  1.033674E+04
  1.030923E+04
  1.028171E+04
  1.025420E+04
  1.022498E+04
  1.019417E+04
  1.016335E+04
  1.013254E+04
  1.010173E+04
  1.006945E+04
  1.003534E+04
  1.000124E+04
  9.967137E+03
  9.933036E+03
  9.896717E+03
  9.859102E+03
  9.821488E+03
  9.783875E+03
  9.746058E+03
  9.704774E+03
  9.663490E+03
  9.622207E+03
  9.580924E+03
  9.536970E+03
  9.491923E+03
  9.446877E+03
  9.401831E+03
  9.354527E+03
  9.305591E+03
  9.256657E+03
  9.207725E+03
  9.156328E+03
  9.103651E+03
  9.050978E+03
  8.998309E+03
  8.942452E+03
  8.886366E+03
  8.830289E+03
  8.772861E+03
  8.713328E+03
  8.653813E+03
  8.594218E+03
  8.531260E+03
  8.468337E+03
  8.405448E+03
  8.340272E+03
  8.274681E+03
  8.209143E+03
  8.141509E+03
  8.073391E+03
  8.005338E+03
  7.934084E+03
  7.862589E+03
  7.790394E+03
  7.714632E+03
  7.638931E+03
  7.560522E+03
  7.480094E+03
  7.399215E+03
  7.313843E+03
  7.228511E+03
  7.139460E+03
  7.049194E+03
  6.956489E+03
  6.861529E+03
  6.764804E+03
  6.665416E+03
  6.564465E+03
  6.461016E+03
  6.355885E+03
  6.248880E+03
  6.139824E+03
  6.029696E+03
  5.916973E+03
  5.803339E+03
  5.687939E+03
  5.570908E+03
  5.452746E+03
  5.332995E+03
  5.211409E+03
  5.088303E+03
  4.963500E+03
  4.836895E+03
  4.709109E+03
  4.584375E+03
  4.471788E+03
  4.386500E+03
  4.355112E+03
  4.436296E+03
  4.595719E+03
  4.385322E+03
  4.563076E+03
  1.341990E+03
  2.305427E-03
  6.051622E+02
  6.050879E+02
  6.050137E+02
  6.049395E+02
  6.048653E+02
  6.047911E+02
  6.047169E+02
  6.046427E+02
  6.045684E+02
  6.044494E+02
  6.043284E+02
  6.042073E+02
  6.040862E+02
  6.039652E+02
  6.038441E+02
  6.037231E+02
  6.036246E+02
  6.035751E+02
  6.035257E+02
  6.034762E+02
  6.034268E+02
  6.033774E+02
  6.033280E+02
  6.032803E+02
  6.032623E+02
  6.032443E+02
  6.032264E+02
  6.032084E+02
  6.031906E+02
  6.031727E+02
  6.031518E+02
  6.031143E+02
  6.030770E+02
  6.030397E+02
  6.030025E+02
  6.029654E+02
  6.029283E+02
  6.028835E+02
  6.028337E+02
  6.027840E+02
  6.027345E+02
  6.026852E+02
  6.026360E+02
  6.025900E+02
  6.025492E+02
  6.025086E+02
  6.024682E+02
  6.024281E+02
  6.023883E+02
  6.023309E+02
  6.022537E+02
  6.021769E+02
  6.021004E+02
  6.020242E+02
  6.019484E+02
  6.017649E+02
  6.015631E+02
  6.013617E+02
  6.011606E+02
  6.009599E+02
  6.006809E+02
  6.003288E+02
  5.999771E+02
  5.996257E+02
  5.992747E+02
  5.988509E+02
  5.983369E+02
  5.978232E+02
  5.973099E+02
  5.967969E+02
  5.961584E+02
  5.954467E+02
  5.947352E+02
  5.940239E+02
  5.933022E+02
  5.924008E+02
  5.914996E+02
  5.905984E+02
  5.896974E+02
  5.885953E+02
  5.874108E+02
  5.862265E+02
  5.850422E+02
  5.835269E+02
  5.817720E+02
  5.800170E+02
  5.782619E+02
  5.759775E+02
  5.734174E+02
  5.708573E+02
  5.682972E+02
  5.648735E+02
  5.613870E+02
  5.579018E+02
  5.539446E+02
  5.492536E+02
  5.445677E+02
  5.398503E+02
  5.338461E+02
  5.278541E+02
  5.218743E+02
  5.152517E+02
  5.085154E+02
  5.017972E+02
  4.950704E+02
  4.883564E+02
  4.816615E+02
  4.753920E+02
  4.691773E+02
  4.631072E+02
  4.576609E+02
  4.522253E+02
  4.473283E+02
  4.428336E+02
  4.384428E+02
  4.349470E+02
  4.314529E+02
  4.286795E+02
  4.261450E+02
  4.240441E+02
  4.223445E+02
  4.208792E+02
  4.197663E+02
  4.187713E+02
  4.179640E+02
  4.172210E+02
  4.165509E+02
  4.159259E+02
  4.153304E+02
  4.148022E+02
  4.143283E+02
  4.139597E+02
  4.137886E+02
  4.138047E+02
  4.141466E+02
  4.150155E+02
  4.164227E+02
  4.185402E+02
  4.216251E+02
  4.264379E+02
  4.340091E+02
  4.464538E+02
  4.672764E+02
  5.024325E+02
  5.635733E+02
  6.499152E+02
  6.963572E+02
  8.065627E+02
  3.481770E+02
  5.022048E-04
  1.989688E+03
  1.989340E+03
  1.988992E+03
  1.988645E+03
  1.988297E+03
  1.987950E+03
  1.987602E+03
  1.987255E+03
  1.986907E+03
  1.985936E+03
  1.984936E+03
  1.983937E+03
  1.982937E+03
  1.981937E+03
  1.980938E+03
  1.979938E+03
  1.978732E+03
  1.977079E+03
  1.975426E+03
  1.973773E+03
  1.972120E+03
  1.970467E+03
  1.968814E+03
  1.967114E+03
  1.964615E+03
  1.962116E+03
  1.959617E+03
  1.957118E+03
  1.954620E+03
  1.952121E+03
  1.949461E+03
  1.945945E+03
  1.942429E+03
  1.938914E+03
  1.935398E+03
  1.931883E+03
  1.928367E+03
  1.924200E+03
  1.919611E+03
  1.915022E+03
  1.910434E+03
  1.905845E+03
  1.901256E+03
  1.896281E+03
  1.890684E+03
  1.885087E+03
  1.879490E+03
  1.873893E+03
  1.868297E+03
  1.862291E+03
  1.855824E+03
  1.849358E+03
  1.842892E+03
  1.836427E+03
  1.829961E+03
  1.822928E+03
  1.815798E+03
  1.808667E+03
  1.801537E+03
  1.794408E+03
  1.787067E+03
  1.779529E+03
  1.771991E+03
  1.764454E+03
  1.756917E+03
  1.749252E+03
  1.741428E+03
  1.733604E+03
  1.725781E+03
  1.717957E+03
  1.709986E+03
  1.701928E+03
  1.693870E+03
  1.685812E+03
  1.677756E+03
  1.669722E+03
  1.661688E+03
  1.653654E+03
  1.645620E+03
  1.637717E+03
  1.629869E+03
  1.622020E+03
  1.614171E+03
  1.606319E+03
  1.598464E+03
  1.590610E+03
  1.582756E+03
  1.574912E+03
  1.567073E+03
  1.559236E+03
  1.551400E+03
  1.543849E+03
  1.536323E+03
  1.528798E+03
  1.521298E+03
  1.513835E+03
  1.506379E+03
  1.498912E+03
  1.490819E+03
  1.482742E+03
  1.474679E+03
  1.465895E+03
  1.456987E+03
  1.448074E+03
  1.438390E+03
  1.428526E+03
  1.418692E+03
  1.407361E+03
  1.395916E+03
  1.384106E+03
  1.370449E+03
  1.356818E+03
  1.341788E+03
  1.325713E+03
  1.309414E+03
  1.290920E+03
  1.272439E+03
  1.252293E+03
  1.231600E+03
  1.209963E+03
  1.187452E+03
  1.164412E+03
  1.140577E+03
  1.116436E+03
  1.091810E+03
  1.067077E+03
  1.042225E+03
  1.017588E+03
  9.930671E+02
  9.693455E+02
  9.460871E+02
  9.238100E+02
  9.028838E+02
  8.830269E+02
  8.648641E+02
  8.488645E+02
  8.346916E+02
  8.226641E+02
  8.132169E+02
  8.079669E+02
  8.094928E+02
  8.237556E+02
  8.611870E+02
  9.381130E+02
  1.080000E+03
  1.272765E+03
  1.336918E+03
  1.399960E+03
 -7.793272E+01
  2.889720E-09
  1.237092E+00
  1.236909E+00
  1.236725E+00
  1.236541E+00
  1.236358E+00
  1.236174E+00
  1.235990E+00
  1.235806E+00
  1.235623E+00
  1.235106E+00
  1.234574E+00
  1.234042E+00
  1.233510E+00
  1.232978E+00
  1.232447E+00
  1.231915E+00
  1.231284E+00
  1.230439E+00
  1.229593E+00
  1.228748E+00
  1.227903E+00
  1.227057E+00
  1.226212E+00
  1.225348E+00
  1.224161E+00
  1.222974E+00
  1.221788E+00
  1.220601E+00
  1.219415E+00
  1.218228E+00
  1.216983E+00
  1.215423E+00
  1.213863E+00
  1.212304E+00
  1.210744E+00
  1.209185E+00
  1.207625E+00
  1.205832E+00
  1.203888E+00
  1.201943E+00
  1.199999E+00
  1.198055E+00
  1.196111E+00
  1.194021E+00
  1.191696E+00
  1.189371E+00
  1.187047E+00
  1.184722E+00
  1.182398E+00
  1.179895E+00
  1.177189E+00
  1.174484E+00
  1.171779E+00
  1.169074E+00
  1.166369E+00
  1.163337E+00
  1.160248E+00
  1.157160E+00
  1.154071E+00
  1.150983E+00
  1.147704E+00
  1.144245E+00
  1.140786E+00
  1.137328E+00
  1.133870E+00
  1.130246E+00
  1.126418E+00
  1.122590E+00
  1.118762E+00
  1.114934E+00
  1.110858E+00
  1.106635E+00
  1.102413E+00
  1.098192E+00
  1.093947E+00
  1.089313E+00
  1.084679E+00
  1.080045E+00
  1.075411E+00
  1.070478E+00
  1.065421E+00
  1.060365E+00
  1.055309E+00
  1.049999E+00
  1.044507E+00
  1.039014E+00
  1.033522E+00
  1.027753E+00
  1.021840E+00
  1.015927E+00
  1.010016E+00
  1.003746E+00
  9.974507E-01
  9.911563E-01
  9.847102E-01
  9.780280E-01
  9.713477E-01
  9.646585E-01
  9.575917E-01
  9.505289E-01
  9.434700E-01
  9.361543E-01
  9.287920E-01
  9.214357E-01
  9.138441E-01
  9.061982E-01
  8.985596E-01
  8.905617E-01
  8.825367E-01
  8.744332E-01
  8.659293E-01
  8.574322E-01
  8.486312E-01
  8.396036E-01
  8.305253E-01
  8.209427E-01
  8.113646E-01
  8.013690E-01
  7.912371E-01
  7.808315E-01
  7.701727E-01
  7.593158E-01
  7.481600E-01
  7.368287E-01
  7.252171E-01
  7.134167E-01
  7.014059E-01
  6.891649E-01
  6.768036E-01
  6.641509E-01
  6.513960E-01
  6.384431E-01
  6.253069E-01
  6.120437E-01
  5.986023E-01
  5.849549E-01
  5.711368E-01
  5.571283E-01
  5.429176E-01
  5.285742E-01
  5.145734E-01
  5.019361E-01
  4.923629E-01
  4.888398E-01
  4.979523E-01
  5.158467E-01
  4.922307E-01
  5.121827E-01
  1.506318E-01
  2.587728E-07
  1.103997E+00
  1.103862E+00
  1.103726E+00
  1.103591E+00
  1.103455E+00
  1.103320E+00
  1.103185E+00
  1.103049E+00
  1.102914E+00
  1.102697E+00
  1.102476E+00
  1.102255E+00
  1.102034E+00
  1.101813E+00
  1.101593E+00
  1.101372E+00
  1.101192E+00
  1.101102E+00
  1.101012E+00
  1.100921E+00
  1.100831E+00
  1.100741E+00
  1.100651E+00
  1.100564E+00
  1.100531E+00
  1.100498E+00
  1.100466E+00
  1.100433E+00
  1.100400E+00
  1.100368E+00
  1.100329E+00
  1.100261E+00
  1.100193E+00
  1.100125E+00
  1.100057E+00
  1.099989E+00
  1.099922E+00
  1.099840E+00
  1.099749E+00
  1.099659E+00
  1.099568E+00
  1.099478E+00
  1.099389E+00
  1.099305E+00
  1.099230E+00
  1.099156E+00
  1.099082E+00
  1.099009E+00
  1.098937E+00
  1.098832E+00
  1.098691E+00
  1.098551E+00
  1.098411E+00
  1.098272E+00
  1.098134E+00
  1.097799E+00
  1.097431E+00
  1.097064E+00
  1.096697E+00
  1.096331E+00
  1.095822E+00
  1.095179E+00
  1.094538E+00
  1.093897E+00
  1.093257E+00
  1.092483E+00
  1.091546E+00
  1.090609E+00
  1.089672E+00
  1.088736E+00
  1.087571E+00
  1.086273E+00
  1.084975E+00
  1.083677E+00
  1.082361E+00
  1.080716E+00
  1.079072E+00
  1.077428E+00
  1.075785E+00
  1.073774E+00
  1.071613E+00
  1.069453E+00
  1.067292E+00
  1.064528E+00
  1.061326E+00
  1.058125E+00
  1.054923E+00
  1.050755E+00
  1.046085E+00
  1.041415E+00
  1.036744E+00
  1.030498E+00
  1.024138E+00
  1.017780E+00
  1.010561E+00
  1.002003E+00
  9.934546E-01
  9.848486E-01
  9.738951E-01
  9.629640E-01
  9.520550E-01
  9.399734E-01
  9.276844E-01
  9.154284E-01
  9.031567E-01
  8.909083E-01
  8.786947E-01
  8.672573E-01
  8.559199E-01
  8.448462E-01
  8.349105E-01
  8.249943E-01
  8.160608E-01
  8.078611E-01
  7.998510E-01
  7.934735E-01
  7.870993E-01
  7.820398E-01
  7.774161E-01
  7.735835E-01
  7.704828E-01
  7.678096E-01
  7.657794E-01
  7.639643E-01
  7.624916E-01
  7.611360E-01
  7.599136E-01
  7.587734E-01
  7.576871E-01
  7.567235E-01
  7.558588E-01
  7.551865E-01
  7.548744E-01
  7.549037E-01
  7.555274E-01
  7.571125E-01
  7.596798E-01
  7.635427E-01
  7.691704E-01
  7.779504E-01
  7.917625E-01
  8.144654E-01
  8.524521E-01
  9.165873E-01
  1.028126E+00
  1.185640E+00
  1.270364E+00
  1.471412E+00
  6.351792E-01
  9.161719E-07
  1.259807E+00
  1.259587E+00
  1.259367E+00
  1.259147E+00
  1.258927E+00
  1.258707E+00
  1.258487E+00
  1.258267E+00
  1.258047E+00
  1.257432E+00
  1.256799E+00
  1.256166E+00
  1.255533E+00
  1.254900E+00
  1.254267E+00
  1.253634E+00
  1.252871E+00
  1.251824E+00
  1.250777E+00
  1.249731E+00
  1.248684E+00
  1.247637E+00
  1.246591E+00
  1.245514E+00
  1.243932E+00
  1.242350E+00
  1.240768E+00
  1.239186E+00
  1.237603E+00
  1.236021E+00
  1.234337E+00
  1.232111E+00
  1.229885E+00
  1.227659E+00
  1.225433E+00
  1.223207E+00
  1.220981E+00
  1.218343E+00
  1.215437E+00
  1.212532E+00
  1.209626E+00
  1.206721E+00
  1.203815E+00
  1.200665E+00
  1.197121E+00
  1.193578E+00
  1.190034E+00
  1.186490E+00
  1.182946E+00
  1.179144E+00
  1.175049E+00
  1.170955E+00
  1.166861E+00
  1.162767E+00
  1.158673E+00
  1.154220E+00
  1.149706E+00
  1.145191E+00
  1.140677E+00
  1.136162E+00
  1.131514E+00
  1.126742E+00
  1.121969E+00
  1.117197E+00
  1.112425E+00
  1.107571E+00
  1.102617E+00
  1.097663E+00
  1.092710E+00
  1.087756E+00
  1.082709E+00
  1.077607E+00
  1.072505E+00
  1.067403E+00
  1.062302E+00
  1.057215E+00
  1.052128E+00
  1.047041E+00
  1.041955E+00
  1.036951E+00
  1.031981E+00
  1.027012E+00
  1.022042E+00
  1.017070E+00
  1.012097E+00
  1.007124E+00
  1.002151E+00
  9.971843E-01
  9.922214E-01
  9.872591E-01
  9.822974E-01
  9.775166E-01
  9.727509E-01
  9.679868E-01
  9.632376E-01
  9.585125E-01
  9.537916E-01
  9.490635E-01
  9.439395E-01
  9.388251E-01
  9.337200E-01
  9.281585E-01
  9.225182E-01
  9.168750E-01
  9.107434E-01
  9.044977E-01
  8.982707E-01
  8.910964E-01
  8.838499E-01
  8.763719E-01
  8.677247E-01
  8.590942E-01
  8.495779E-01
  8.393997E-01
  8.290794E-01
  8.173696E-01
  8.056682E-01
  7.929126E-01
  7.798099E-01
  7.661101E-01
  7.518570E-01
  7.372692E-01
  7.221771E-01
  7.068921E-01
  6.912995E-01
  6.756392E-01
  6.599039E-01
  6.443044E-01
  6.287787E-01
  6.137589E-01
  5.990324E-01
  5.849273E-01
  5.716775E-01
  5.591047E-01
  5.476046E-01
  5.374742E-01
  5.285004E-01
  5.208849E-01
  5.149032E-01
  5.115791E-01
  5.125453E-01
  5.215760E-01
  5.452764E-01
  5.939835E-01
  6.838217E-01
  8.058748E-01
  8.464944E-01
  8.864105E-01
 -4.934454E-02
  1.829679E-12
  9.758385E-01
  9.756936E-01
  9.755486E-01
  9.754037E-01
  9.752588E-01
  9.751139E-01
  9.749690E-01
  9.748240E-01
  9.746791E-01
  9.742715E-01
  9.738520E-01
  9.734324E-01
  9.730129E-01
  9.725933E-01
  9.721737E-01
  9.717542E-01
  9.712567E-01
  9.705899E-01
  9.699230E-01
  9.692561E-01
  9.685893E-01
  9.679224E-01
  9.672555E-01
  9.665738E-01
  9.656378E-01
  9.647018E-01
  9.637658E-01
  9.628298E-01
  9.618938E-01
  9.609578E-01
  9.599751E-01
  9.587447E-01
  9.575144E-01
  9.562842E-01
  9.550539E-01
  9.538236E-01
  9.525934E-01
  9.511788E-01
  9.496449E-01
  9.481110E-01
  9.465772E-01
  9.450434E-01
  9.435097E-01
  9.418609E-01
  9.400269E-01
  9.381930E-01
  9.363592E-01
  9.345254E-01
  9.326917E-01
  9.307166E-01
  9.285823E-01
  9.264481E-01
  9.243140E-01
  9.221800E-01
  9.200461E-01
  9.176538E-01
  9.152172E-01
  9.127807E-01
  9.103443E-01
  9.079080E-01
  9.053206E-01
  9.025920E-01
  8.998636E-01
  8.971353E-01
  8.944071E-01
  8.915485E-01
  8.885284E-01
  8.855086E-01
  8.824889E-01
  8.794693E-01
  8.762533E-01
  8.729226E-01
  8.695919E-01
  8.662614E-01
  8.629127E-01
  8.592570E-01
  8.556014E-01
  8.519457E-01
  8.482902E-01
  8.443980E-01
  8.404091E-01
  8.364202E-01
  8.324314E-01
  8.282427E-01
  8.239096E-01
  8.195767E-01
  8.152440E-01
  8.106933E-01
  8.060295E-01
  8.013660E-01
  7.967028E-01
  7.917580E-01
  7.867931E-01
  7.818288E-01
  7.767451E-01
  7.714756E-01
  7.662074E-01
  7.609321E-01
  7.553595E-01
  7.497896E-01
  7.442226E-01
  7.384529E-01
  7.326461E-01
  7.268434E-01
  7.208543E-01
  7.148220E-01
  7.087951E-01
  7.024845E-01
  6.961523E-01
  6.897579E-01
  6.830478E-01
  6.763430E-01
  6.693987E-01
  6.622760E-01
  6.551134E-01
  6.475539E-01
  6.399979E-01
  6.321135E-01
  6.241218E-01
  6.159148E-01
  6.075084E-01
  5.989460E-01
  5.901483E-01
  5.812120E-01
  5.720547E-01
  5.627484E-01
  5.532759E-01
  5.436216E-01
  5.338720E-01
  5.238924E-01
  5.138317E-01
  5.036142E-01
  4.932515E-01
  4.827884E-01
  4.721843E-01
  4.614173E-01
  4.505155E-01
  4.394632E-01
  4.282511E-01
  4.169343E-01
  4.058874E-01
  3.959159E-01
  3.883612E-01
  3.855784E-01
  3.927617E-01
  4.068714E-01
  3.882396E-01
  4.039713E-01
  1.384064E-01
  4.090045E-02
  5.358149E-02
  5.357492E-02
  5.356835E-02
  5.356178E-02
  5.355520E-02
  5.354863E-02
  5.354206E-02
  5.353549E-02
  5.352892E-02
  5.351838E-02
  5.350766E-02
  5.349695E-02
  5.348623E-02
  5.347551E-02
  5.346479E-02
  5.345407E-02
  5.344535E-02
  5.344097E-02
  5.343659E-02
  5.343221E-02
  5.342783E-02
  5.342346E-02
  5.341908E-02
  5.341486E-02
  5.341326E-02
  5.341167E-02
  5.341007E-02
  5.340849E-02
  5.340690E-02
  5.340532E-02
  5.340346E-02
  5.340014E-02
  5.339683E-02
  5.339352E-02
  5.339022E-02
  5.338693E-02
  5.338365E-02
  5.337967E-02
  5.337525E-02
  5.337085E-02
  5.336646E-02
  5.336208E-02
  5.335772E-02
  5.335364E-02
  5.335001E-02
  5.334640E-02
  5.334282E-02
  5.333925E-02
  5.333571E-02
  5.333061E-02
  5.332377E-02
  5.331695E-02
  5.331016E-02
  5.330340E-02
  5.329666E-02
  5.328039E-02
  5.326251E-02
  5.324466E-02
  5.322684E-02
  5.320905E-02
  5.318433E-02
  5.315314E-02
  5.312198E-02
  5.309086E-02
  5.305977E-02
  5.302222E-02
  5.297669E-02
  5.293120E-02
  5.288573E-02
  5.284029E-02
  5.278375E-02
  5.272071E-02
  5.265769E-02
  5.259470E-02
  5.253078E-02
  5.245095E-02
  5.237113E-02
  5.229131E-02
  5.221151E-02
  5.211390E-02
  5.200900E-02
  5.190411E-02
  5.179922E-02
  5.166503E-02
  5.150963E-02
  5.135422E-02
  5.119880E-02
  5.099654E-02
  5.076989E-02
  5.054323E-02
  5.031656E-02
  5.001348E-02
  4.970484E-02
  4.939631E-02
  4.904601E-02
  4.863075E-02
  4.821595E-02
  4.779835E-02
  4.726684E-02
  4.673640E-02
  4.620701E-02
  4.562071E-02
  4.502432E-02
  4.442948E-02
  4.383385E-02
  4.323932E-02
  4.264645E-02
  4.209125E-02
  4.154088E-02
  4.100330E-02
  4.052096E-02
  4.003956E-02
  3.960587E-02
  3.920781E-02
  3.881895E-02
  3.850939E-02
  3.819998E-02
  3.795443E-02
  3.773004E-02
  3.754409E-02
  3.739368E-02
  3.726404E-02
  3.716562E-02
  3.707765E-02
  3.700630E-02
  3.694063E-02
  3.688142E-02
  3.682618E-02
  3.677354E-02
  3.672684E-02
  3.668492E-02
  3.665229E-02
  3.663709E-02
  3.663844E-02
  3.666861E-02
  3.674541E-02
  3.686984E-02
  3.705713E-02
  3.733003E-02
  3.775588E-02
  3.842592E-02
  3.952740E-02
  4.137057E-02
  4.448269E-02
  4.989523E-02
  5.753875E-02
  6.164963E-02
  7.140538E-02
  3.590930E-02
  8.909586E-03
  1.761684E-01
  1.761376E-01
  1.761068E-01
  1.760760E-01
  1.760453E-01
  1.760145E-01
  1.759837E-01
  1.759530E-01
  1.759222E-01
  1.758362E-01
  1.757477E-01
  1.756592E-01
  1.755707E-01
  1.754821E-01
  1.753936E-01
  1.753051E-01
  1.751984E-01
  1.750520E-01
  1.749056E-01
  1.747592E-01
  1.746129E-01
  1.744665E-01
  1.743201E-01
  1.741696E-01
  1.739484E-01
  1.737271E-01
  1.735058E-01
  1.732846E-01
  1.730633E-01
  1.728421E-01
  1.726065E-01
  1.722952E-01
  1.719840E-01
  1.716727E-01
  1.713614E-01
  1.710501E-01
  1.707389E-01
  1.703699E-01
  1.699635E-01
  1.695572E-01
  1.691509E-01
  1.687446E-01
  1.683383E-01
  1.678977E-01
  1.674021E-01
  1.669065E-01
  1.664109E-01
  1.659153E-01
  1.654198E-01
  1.648880E-01
  1.643154E-01
  1.637428E-01
  1.631703E-01
  1.625977E-01
  1.620252E-01
  1.614025E-01
  1.607711E-01
  1.601397E-01
  1.595084E-01
  1.588771E-01
  1.582271E-01
  1.575596E-01
  1.568922E-01
  1.562248E-01
  1.555574E-01
  1.548787E-01
  1.541859E-01
  1.534931E-01
  1.528004E-01
  1.521077E-01
  1.514018E-01
  1.506883E-01
  1.499748E-01
  1.492613E-01
  1.485480E-01
  1.478366E-01
  1.471252E-01
  1.464138E-01
  1.457024E-01
  1.450026E-01
  1.443076E-01
  1.436126E-01
  1.429176E-01
  1.422223E-01
  1.415268E-01
  1.408313E-01
  1.401358E-01
  1.394413E-01
  1.387473E-01
  1.380535E-01
  1.373597E-01
  1.366913E-01
  1.360250E-01
  1.353589E-01
  1.346950E-01
  1.340345E-01
  1.333746E-01
  1.327136E-01
  1.319974E-01
  1.312825E-01
  1.305688E-01
  1.297913E-01
  1.290027E-01
  1.282135E-01
  1.273560E-01
  1.264824E-01
  1.256114E-01
  1.246078E-01
  1.235942E-01
  1.225481E-01
  1.213385E-01
  1.201312E-01
  1.188002E-01
  1.173766E-01
  1.159332E-01
  1.142956E-01
  1.126592E-01
  1.108756E-01
  1.090434E-01
  1.071279E-01
  1.051350E-01
  1.030954E-01
  1.009853E-01
  9.884830E-02
  9.666824E-02
  9.447868E-02
  9.227860E-02
  9.009747E-02
  8.792661E-02
  8.582644E-02
  8.376722E-02
  8.179479E-02
  7.994187E-02
  7.818357E-02
  7.657521E-02
  7.515833E-02
  7.390314E-02
  7.283784E-02
  7.200095E-02
  7.153563E-02
  7.167018E-02
  7.293234E-02
  7.624567E-02
  8.305552E-02
  9.561639E-02
  1.126813E-01
  1.183595E-01
  1.239391E-01
 -8.037605E-03
  5.126635E-08
  9.760260E-01
  9.758810E-01
  9.757361E-01
  9.755912E-01
  9.754463E-01
  9.753014E-01
  9.751565E-01
  9.750116E-01
  9.748667E-01
  9.744591E-01
  9.740396E-01
  9.736201E-01
  9.732006E-01
  9.727811E-01
  9.723616E-01
  9.719421E-01
  9.714448E-01
  9.707781E-01
  9.701113E-01
  9.694446E-01
  9.687779E-01
  9.681112E-01
  9.674445E-01
  9.667629E-01
  9.658272E-01