 Title= "ADflow Lift Distribution Data"
Variables = "eta" "CoordinateX" "CoordinateY" "CoordinateZ" "Lift" "Drag" "Moment" "Normalized Lift" "Normalized Drag" "Normalized Moment" "CL" "CD" "CM" "CLp" "CDp" "CMp" "CLv" "CDv" "CMv" "Elliptical" "thickness" "twist" "chord" "fx" "fy" "fz" 
Zone T= "LiftDist_01 allWalls: : z normal"
 I=          150
 DATAPACKING=BLOCK
  0.000000E+00
  6.711405E-03
  1.342281E-02
  2.013422E-02
  2.684563E-02
  3.355704E-02
  4.026845E-02
  4.697986E-02
  5.369127E-02
  6.040268E-02
  6.711409E-02
  7.382550E-02
  8.053691E-02
  8.724832E-02
  9.395973E-02
  1.006711E-01
  1.073825E-01
  1.140940E-01
  1.208054E-01
  1.275168E-01
  1.342282E-01
  1.409396E-01
  1.476510E-01
  1.543624E-01
  1.610738E-01
  1.677852E-01
  1.744966E-01
  1.812081E-01
  1.879195E-01
  1.946309E-01
  2.013423E-01
  2.080537E-01
  2.147651E-01
  2.214765E-01
  2.281879E-01
  2.348993E-01
  2.416107E-01
  2.483221E-01
  2.550336E-01
  2.617450E-01
  2.684564E-01
  2.751678E-01
  2.818792E-01
  2.885906E-01
  2.953020E-01
  3.020134E-01
  3.087248E-01
  3.154362E-01
  3.221476E-01
  3.288591E-01
  3.355705E-01
  3.422819E-01
  3.489933E-01
  3.557047E-01
  3.624161E-01
  3.691275E-01
  3.758389E-01
  3.825503E-01
  3.892617E-01
  3.959732E-01
  4.026846E-01
  4.093960E-01
  4.161074E-01
  4.228188E-01
  4.295302E-01
  4.362416E-01
  4.429530E-01
  4.496644E-01
  4.563758E-01
  4.630872E-01
  4.697987E-01
  4.765101E-01
  4.832215E-01
  4.899329E-01
  4.966443E-01
  5.033557E-01
  5.100671E-01
  5.167785E-01
  5.234899E-01
  5.302013E-01
  5.369128E-01
  5.436242E-01
  5.503356E-01
  5.570470E-01
  5.637584E-01
  5.704698E-01
  5.771812E-01
  5.838926E-01
  5.906040E-01
  5.973154E-01
  6.040268E-01
  6.107383E-01
  6.174497E-01
  6.241611E-01
  6.308725E-01
  6.375839E-01
  6.442953E-01
  6.510067E-01
  6.577181E-01
  6.644295E-01
  6.711409E-01
  6.778524E-01
  6.845638E-01
  6.912752E-01
  6.979866E-01
  7.046980E-01
  7.114094E-01
  7.181208E-01
  7.248322E-01
  7.315436E-01
  7.382550E-01
  7.449664E-01
  7.516779E-01
  7.583893E-01
  7.651007E-01
  7.718121E-01
  7.785235E-01
  7.852349E-01
  7.919463E-01
  7.986577E-01
  8.053691E-01
  8.120805E-01
  8.187919E-01
  8.255034E-01
  8.322148E-01
  8.389262E-01
  8.456376E-01
  8.523490E-01
  8.590604E-01
  8.657718E-01
  8.724832E-01
  8.791946E-01
  8.859060E-01
  8.926175E-01
  8.993289E-01
  9.060403E-01
  9.127517E-01
  9.194631E-01
  9.261745E-01
  9.328859E-01
  9.395973E-01
  9.463087E-01
  9.530201E-01
  9.597315E-01
  9.664430E-01
  9.731544E-01
  9.798658E-01
  9.865772E-01
  9.932886E-01
  1.000000E+00
  0.000000E+00
  0.000000E+00
  0.000000E+00
  0.000000E+00
  0.000000E+00
  0.000000E+00
  0.000000E+00
  0.000000E+00
  0.000000E+00
  0.000000E+00
  0.000000E+00
  0.000000E+00
  0.000000E+00
  0.000000E+00
  0.000000E+00
  0.000000E+00
  0.000000E+00
  0.000000E+00
  0.000000E+00
  0.000000E+00
  0.000000E+00
  0.000000E+00
  0.000000E+00
  0.000000E+00
  0.000000E+00
  0.000000E+00
  0.000000E+00
  0.000000E+00
  0.000000E+00
  0.000000E+00
  0.000000E+00
  0.000000E+00
  0.000000E+00
  0.000000E+00
  0.000000E+00
  0.000000E+00
  0.000000E+00
  0.000000E+00
  0.000000E+00
  0.000000E+00
  0.000000E+00
  0.000000E+00
  0.000000E+00
  0.000000E+00
  0.000000E+00
  0.000000E+00
  0.000000E+00
  0.000000E+00
  0.000000E+00
  0.000000E+00
  0.000000E+00
  0.000000E+00
  0.000000E+00
  0.000000E+00
  0.000000E+00
  0.000000E+00
  0.000000E+00
  0.000000E+00
  0.000000E+00
  0.000000E+00
  0.000000E+00
  0.000000E+00
  0.000000E+00
  0.000000E+00
  0.000000E+00
  0.000000E+00
  0.000000E+00
  0.000000E+00
  0.000000E+00
  0.000000E+00
  0.000000E+00
  0.000000E+00
  0.000000E+00
  0.000000E+00
  0.000000E+00
  0.000000E+00
  0.000000E+00
  0.000000E+00
  0.000000E+00
  0.000000E+00
  0.000000E+00
  0.000000E+00
  0.000000E+00
  0.000000E+00
  0.000000E+00
  0.000000E+00
  0.000000E+00
  0.000000E+00
  0.000000E+00
  0.000000E+00
  0.000000E+00
  0.000000E+00
  0.000000E+00
  0.000000E+00
  0.000000E+00
  0.000000E+00
  0.000000E+00
  0.000000E+00
  0.000000E+00
  0.000000E+00
  0.000000E+00
  0.000000E+00
  0.000000E+00
  0.000000E+00
  0.000000E+00
  0.000000E+00
  0.000000E+00
  0.000000E+00
  0.000000E+00
  0.000000E+00
  0.000000E+00
  0.000000E+00
  0.000000E+00
  0.000000E+00
  0.000000E+00
  0.000000E+00
  0.000000E+00
  0.000000E+00
  0.000000E+00
  0.000000E+00
  0.000000E+00
  0.000000E+00
  0.000000E+00
  0.000000E+00
  0.000000E+00
  0.000000E+00
  0.000000E+00
  0.000000E+00
  0.000000E+00
  0.000000E+00
  0.000000E+00
  0.000000E+00
  0.000000E+00
  0.000000E+00
  0.000000E+00
  0.000000E+00
  0.000000E+00
  0.000000E+00
  0.000000E+00
  0.000000E+00
  0.000000E+00
  0.000000E+00
  0.000000E+00
  0.000000E+00
  0.000000E+00
  0.000000E+00
  0.000000E+00
  0.000000E+00
  0.000000E+00
  0.000000E+00
  0.000000E+00
  0.000000E+00
  0.000000E+00
  0.000000E+00
  0.000000E+00
  0.000000E+00
  0.000000E+00
  0.000000E+00
  0.000000E+00
  0.000000E+00
  0.000000E+00
  0.000000E+00
  0.000000E+00
  0.000000E+00
  0.000000E+00
  0.000000E+00
  0.000000E+00
  0.000000E+00
  0.000000E+00
  0.000000E+00
  0.000000E+00
  0.000000E+00
  0.000000E+00
  0.000000E+00
  0.000000E+00
  0.000000E+00
  0.000000E+00
  0.000000E+00
  0.000000E+00
  0.000000E+00
  0.000000E+00
  0.000000E+00
  0.000000E+00
  0.000000E+00
  0.000000E+00
  0.000000E+00
  0.000000E+00
  0.000000E+00
  0.000000E+00
  0.000000E+00
  0.000000E+00
  0.000000E+00
  0.000000E+00
  0.000000E+00
  0.000000E+00
  0.000000E+00
  0.000000E+00
  0.000000E+00
  0.000000E+00
  0.000000E+00
  0.000000E+00
  0.000000E+00
  0.000000E+00
  0.000000E+00
  0.000000E+00
  0.000000E+00
  0.000000E+00
  0.000000E+00
  0.000000E+00
  0.000000E+00
  0.000000E+00
  0.000000E+00
  0.000000E+00
  0.000000E+00
  0.000000E+00
  0.000000E+00
  0.000000E+00
  0.000000E+00
  0.000000E+00
  0.000000E+00
  0.000000E+00
  0.000000E+00
  0.000000E+00
  0.000000E+00
  0.000000E+00
  0.000000E+00
  0.000000E+00
  0.000000E+00
  0.000000E+00
  0.000000E+00
  0.000000E+00
  0.000000E+00
  0.000000E+00
  0.000000E+00
  0.000000E+00
  0.000000E+00
  0.000000E+00
  0.000000E+00
  0.000000E+00
  0.000000E+00
  0.000000E+00
  0.000000E+00
  0.000000E+00
  0.000000E+00
  0.000000E+00
  0.000000E+00
  0.000000E+00
  0.000000E+00
  0.000000E+00
  0.000000E+00
  0.000000E+00
  0.000000E+00
  0.000000E+00
  0.000000E+00
  0.000000E+00
  0.000000E+00
  0.000000E+00
  0.000000E+00
  0.000000E+00
  0.000000E+00
  0.000000E+00
  0.000000E+00
  0.000000E+00
  0.000000E+00
  0.000000E+00
  0.000000E+00
  0.000000E+00
  0.000000E+00
  0.000000E+00
  0.000000E+00
  0.000000E+00
  0.000000E+00
  0.000000E+00
  0.000000E+00
  0.000000E+00
  0.000000E+00
  0.000000E+00
  0.000000E+00
  0.000000E+00
  0.000000E+00
  0.000000E+00
  0.000000E+00
  0.000000E+00
  0.000000E+00
  0.000000E+00
  0.000000E+00
  0.000000E+00
  0.000000E+00
  0.000000E+00
  0.000000E+00
  0.000000E+00
  0.000000E+00
  0.000000E+00
  0.000000E+00
  0.000000E+00
  0.000000E+00
  0.000000E+00
  0.000000E+00
  0.000000E+00
  0.000000E+00
  1.000000E-08
  1.690972E-02
  3.381945E-02
  5.072917E-02
  6.763890E-02
  8.454862E-02
  1.014583E-01
  1.183681E-01
  1.352778E-01
  1.521875E-01
  1.690972E-01
  1.860070E-01
  2.029167E-01
  2.198264E-01
  2.367361E-01
  2.536459E-01
  2.705556E-01
  2.874653E-01
  3.043750E-01
  3.212848E-01
  3.381945E-01
  3.551042E-01
  3.720139E-01
  3.889237E-01
  4.058334E-01
  4.227431E-01
  4.396528E-01
  4.565626E-01
  4.734723E-01
  4.903820E-01
  5.072917E-01
  5.242015E-01
  5.411112E-01
  5.580209E-01
  5.749306E-01
  5.918404E-01
  6.087501E-01
  6.256598E-01
  6.425695E-01
  6.594792E-01
  6.763890E-01
  6.932987E-01
  7.102084E-01
  7.271181E-01
  7.440279E-01
  7.609376E-01
  7.778473E-01
  7.947570E-01
  8.116668E-01
  8.285765E-01
  8.454862E-01
  8.623959E-01
  8.793057E-01
  8.962154E-01
  9.131251E-01
  9.300348E-01
  9.469446E-01
  9.638543E-01
  9.807640E-01
  9.976737E-01
  1.014583E+00
  1.031493E+00
  1.048403E+00
  1.065313E+00
  1.082222E+00
  1.099132E+00
  1.116042E+00
  1.132952E+00
  1.149861E+00
  1.166771E+00
  1.183681E+00
  1.200590E+00
  1.217500E+00
  1.234410E+00
  1.251320E+00
  1.268229E+00
  1.285139E+00
  1.302049E+00
  1.318958E+00
  1.335868E+00
  1.352778E+00
  1.369688E+00
  1.386597E+00
  1.403507E+00
  1.420417E+00
  1.437327E+00
  1.454236E+00
  1.471146E+00
  1.488056E+00
  1.504965E+00
  1.521875E+00
  1.538785E+00
  1.555695E+00
  1.572604E+00
  1.589514E+00
  1.606424E+00
  1.623334E+00
  1.640243E+00
  1.657153E+00
  1.674063E+00
  1.690972E+00
  1.707882E+00
  1.724792E+00
  1.741702E+00
  1.758611E+00
  1.775521E+00
  1.792431E+00
  1.809341E+00
  1.826250E+00
  1.843160E+00
  1.860070E+00
  1.876979E+00
  1.893889E+00
  1.910799E+00
  1.927709E+00
  1.944618E+00
  1.961528E+00
  1.978438E+00
  1.995347E+00
  2.012257E+00
  2.029167E+00
  2.046077E+00
  2.062986E+00
  2.079896E+00
  2.096806E+00
  2.113716E+00
  2.130625E+00
  2.147535E+00
  2.164445E+00
  2.181354E+00
  2.198264E+00
  2.215174E+00
  2.232084E+00
  2.248993E+00
  2.265903E+00
  2.282813E+00
  2.299723E+00
  2.316632E+00
  2.333542E+00
  2.350452E+00
  2.367361E+00
  2.384271E+00
  2.401181E+00
  2.418091E+00
  2.435000E+00
  2.451910E+00
  2.468820E+00
  2.485729E+00
  2.502639E+00
  2.519549E+00
  1.061091E+04
  1.060835E+04
  1.060580E+04
  1.060328E+04
  1.060077E+04
  1.059828E+04
  1.059580E+04
  1.059335E+04
  1.059091E+04
  1.057863E+04
  1.056593E+04
  1.055324E+04
  1.054057E+04
  1.052791E+04
  1.051527E+04
  1.050265E+04
  1.048709E+04
  1.046512E+04
  1.044315E+04
  1.042120E+04
  1.039927E+04
  1.037734E+04
  1.035542E+04
  1.033349E+04
  1.031113E+04
  1.028878E+04
  1.026643E+04
  1.024410E+04
  1.022178E+04
  1.019946E+04
  1.017738E+04
  1.015647E+04
  1.013556E+04
  1.011467E+04
  1.009378E+04
  1.007291E+04
  1.005204E+04
  1.003211E+04
  1.001280E+04
  9.993500E+03
  9.974202E+03
  9.954909E+03
  9.935622E+03
  9.917341E+03
  9.900672E+03
  9.884005E+03
  9.867341E+03
  9.850679E+03
  9.834020E+03
  9.819076E+03
  9.806062E+03
  9.793049E+03
  9.780036E+03
  9.767023E+03
  9.754011E+03
  9.744333E+03
  9.735234E+03
  9.726141E+03
  9.717052E+03
  9.707969E+03
  9.700465E+03
  9.694449E+03
  9.688451E+03
  9.682471E+03
  9.676509E+03
  9.671196E+03
  9.666692E+03
  9.662221E+03
  9.657784E+03
  9.653380E+03
  9.648827E+03
  9.644206E+03
  9.639628E+03
  9.635092E+03
  9.630492E+03
  9.624135E+03
  9.617815E+03
  9.611533E+03
  9.605289E+03
  9.596614E+03
  9.586955E+03
  9.577325E+03
  9.567722E+03
  9.555377E+03
  9.541052E+03
  9.526751E+03
  9.512474E+03
  9.494431E+03
  9.474436E+03
  9.454464E+03
  9.434515E+03
  9.408404E+03
  9.381855E+03
  9.355328E+03
  9.325938E+03
  9.292071E+03
  9.258221E+03
  9.224172E+03
  9.182511E+03
  9.140862E+03
  9.099224E+03
  9.050861E+03
  9.001149E+03
  8.951446E+03
  8.895269E+03
  8.837450E+03
  8.779638E+03
  8.714542E+03
  8.648767E+03
  8.581649E+03
  8.508138E+03
  8.434645E+03
  8.356875E+03
  8.275916E+03
  8.194265E+03
  8.106133E+03
  8.018041E+03
  7.924806E+03
  7.829906E+03
  7.731832E+03
  7.630842E+03
  7.527692E+03
  7.421273E+03
  7.312841E+03
  7.201163E+03
  7.087141E+03
  6.970497E+03
  6.850881E+03
  6.729727E+03
  6.604786E+03
  6.478538E+03
  6.349731E+03
  6.218566E+03
  6.085774E+03
  5.950698E+03
  5.813013E+03
  5.673229E+03
  5.531201E+03
  5.387002E+03
  5.242208E+03
  5.103225E+03
  4.982647E+03
  4.900946E+03
  4.891673E+03
  5.020512E+03
  5.242640E+03
  5.040519E+03
  5.167484E+03
  1.328190E+03
  2.600303E-03
  5.064763E+02
  5.078168E+02
  5.091607E+02
  5.105081E+02
  5.118590E+02
  5.132135E+02
  5.145714E+02
  5.159330E+02
  5.172980E+02
  5.190327E+02
  5.207882E+02
  5.225481E+02
  5.243122E+02
  5.260807E+02
  5.278536E+02
  5.296308E+02
  5.310033E+02
  5.314888E+02
  5.319775E+02
  5.324695E+02
  5.329648E+02
  5.334635E+02
  5.339654E+02
  5.344737E+02
  5.350342E+02
  5.355976E+02
  5.361639E+02
  5.367332E+02
  5.373054E+02
  5.378806E+02
  5.385193E+02
  5.394811E+02
  5.404454E+02
  5.414123E+02
  5.423816E+02
  5.433536E+02
  5.443280E+02
  5.454713E+02
  5.467240E+02
  5.479784E+02
  5.492346E+02
  5.504926E+02
  5.517523E+02
  5.530350E+02
  5.543527E+02
  5.556711E+02
  5.569901E+02
  5.583097E+02
  5.596300E+02
  5.608090E+02
  5.618282E+02
  5.628474E+02
  5.638665E+02
  5.648856E+02
  5.659045E+02
  5.664372E+02
  5.668876E+02
  5.673396E+02
  5.677932E+02
  5.682484E+02
  5.684113E+02
  5.683043E+02
  5.682029E+02
  5.681071E+02
  5.680169E+02
  5.677863E+02
  5.673842E+02
  5.669920E+02
  5.666095E+02
  5.662367E+02
  5.659355E+02
  5.656821E+02
  5.654403E+02
  5.652102E+02
  5.650165E+02
  5.652582E+02
  5.655104E+02
  5.657728E+02
  5.660455E+02
  5.666779E+02
  5.674623E+02
  5.682551E+02
  5.690563E+02
  5.700373E+02
  5.711504E+02
  5.722717E+02
  5.734011E+02
  5.745304E+02
  5.756634E+02
  5.768044E+02
  5.779534E+02
  5.788468E+02
  5.797278E+02
  5.806160E+02
  5.813694E+02
  5.819077E+02
  5.824514E+02
  5.829919E+02
  5.832333E+02
  5.834782E+02
  5.837264E+02
  5.837363E+02
  5.836993E+02
  5.836638E+02
  5.834140E+02
  5.831096E+02
  5.828053E+02
  5.822858E+02
  5.817453E+02
  5.811659E+02
  5.804044E+02
  5.796420E+02
  5.787620E+02
  5.777939E+02
  5.768062E+02
  5.756445E+02
  5.744833E+02
  5.731477E+02
  5.717559E+02
  5.702800E+02
  5.687278E+02
  5.671407E+02
  5.655000E+02
  5.637746E+02
  5.619118E+02
  5.599005E+02
  5.577231E+02
  5.553633E+02
  5.529096E+02
  5.502989E+02
  5.476739E+02
  5.450378E+02
  5.425221E+02
  5.401408E+02
  5.380273E+02
  5.363844E+02
  5.352328E+02
  5.347572E+02
  5.352547E+02
  5.377065E+02
  5.436013E+02
  5.558134E+02
  5.789802E+02
  6.205608E+02
  6.938298E+02
  7.957453E+02
  8.476040E+02
  9.558081E+02
  4.075165E+02
  5.846931E-04
  1.407604E+03
  1.401930E+03
  1.396262E+03
  1.390600E+03
  1.384943E+03
  1.379293E+03
  1.373649E+03
  1.368011E+03
  1.362379E+03
  1.348826E+03
  1.334916E+03
  1.321012E+03
  1.307113E+03
  1.293220E+03
  1.279332E+03
  1.265449E+03
  1.251067E+03
  1.235590E+03
  1.220116E+03
  1.204645E+03
  1.189177E+03
  1.173711E+03
  1.158247E+03
  1.142860E+03
  1.128741E+03
  1.114623E+03
  1.100507E+03
  1.086393E+03
  1.072281E+03
  1.058171E+03
  1.044437E+03
  1.032688E+03
  1.020941E+03
  1.009196E+03
  9.974517E+02
  9.857094E+02
  9.739686E+02
  9.642812E+02
  9.559220E+02
  9.475639E+02
  9.392069E+02
  9.308509E+02
  9.224960E+02
  9.159658E+02
  9.123715E+02
  9.087777E+02
  9.051843E+02
  9.015914E+02
  8.979990E+02
  8.972314E+02
  8.996444E+02
  9.020574E+02
  9.044704E+02
  9.068836E+02
  9.092967E+02
  9.172081E+02
  9.260670E+02
  9.349274E+02
  9.437892E+02
  9.526524E+02
  9.644799E+02
  9.790816E+02
  9.936883E+02
  1.008300E+03
  1.022917E+03
  1.039506E+03
  1.058535E+03
  1.077573E+03
  1.096621E+03
  1.115679E+03
  1.136500E+03
  1.158356E+03
  1.180225E+03
  1.202108E+03
  1.224047E+03
  1.246735E+03
  1.269435E+03
  1.292148E+03
  1.314873E+03
  1.336941E+03
  1.358745E+03
  1.380558E+03
  1.402382E+03
  1.423144E+03
  1.443140E+03
  1.463145E+03
  1.483159E+03
  1.501504E+03
  1.518985E+03
  1.536475E+03
  1.553973E+03
  1.568307E+03
  1.582414E+03
  1.596529E+03
  1.609102E+03
  1.619263E+03
  1.629430E+03
  1.639488E+03
  1.645408E+03
  1.651333E+03
  1.657263E+03
  1.659292E+03
  1.660539E+03
  1.661788E+03
  1.659012E+03
  1.655213E+03
  1.651388E+03
  1.643029E+03
  1.634239E+03
  1.624634E+03
  1.611181E+03
  1.597706E+03
  1.581775E+03
  1.564008E+03
  1.545859E+03
  1.524225E+03
  1.502598E+03
  1.478308E+03
  1.453142E+03
  1.426436E+03
  1.398308E+03
  1.369419E+03
  1.339383E+03
  1.308987E+03
  1.278009E+03
  1.246907E+03
  1.215665E+03
  1.184661E+03
  1.153785E+03
  1.123844E+03
  1.094440E+03
  1.066174E+03
  1.039441E+03
  1.013892E+03
  9.901927E+02
  9.687864E+02
  9.492971E+02
  9.320973E+02
  9.177623E+02
  9.086152E+02
  9.085069E+02
  9.254698E+02
  9.729954E+02
  1.070952E+03
  1.246957E+03
  1.480346E+03
  1.561779E+03
  1.592785E+03
 -1.357489E+02
  3.272553E-09
  1.189639E+00
  1.189352E+00
  1.189066E+00
  1.188783E+00
  1.188502E+00
  1.188222E+00
  1.187945E+00
  1.187669E+00
  1.187396E+00
  1.186020E+00
  1.184596E+00
  1.183173E+00
  1.181752E+00
  1.180333E+00
  1.178916E+00
  1.177501E+00
  1.175757E+00
  1.173293E+00
  1.170831E+00
  1.168370E+00
  1.165910E+00
  1.163452E+00
  1.160995E+00
  1.158536E+00
  1.156029E+00
  1.153523E+00
  1.151018E+00
  1.148514E+00
  1.146011E+00
  1.143509E+00
  1.141033E+00
  1.138689E+00
  1.136345E+00
  1.134003E+00
  1.131661E+00
  1.129321E+00
  1.126981E+00
  1.124747E+00
  1.122582E+00
  1.120418E+00
  1.118254E+00
  1.116091E+00
  1.113929E+00
  1.111879E+00
  1.110011E+00
  1.108142E+00
  1.106274E+00
  1.104406E+00
  1.102538E+00
  1.100862E+00
  1.099403E+00
  1.097944E+00
  1.096486E+00
  1.095027E+00
  1.093568E+00
  1.092483E+00
  1.091463E+00
  1.090443E+00
  1.089424E+00
  1.088406E+00
  1.087564E+00
  1.086890E+00
  1.086217E+00
  1.085547E+00
  1.084879E+00
  1.084283E+00
  1.083778E+00
  1.083277E+00
  1.082779E+00
  1.082286E+00
  1.081775E+00
  1.081257E+00
  1.080744E+00
  1.080235E+00
  1.079719E+00
  1.079007E+00
  1.078298E+00
  1.077594E+00
  1.076894E+00
  1.075921E+00
  1.074838E+00
  1.073759E+00
  1.072682E+00
  1.071298E+00
  1.069692E+00
  1.068089E+00
  1.066488E+00
  1.064465E+00
  1.062223E+00
  1.059984E+00
  1.057748E+00
  1.054820E+00
  1.051844E+00
  1.048869E+00
  1.045574E+00
  1.041777E+00
  1.037982E+00
  1.034165E+00
  1.029494E+00
  1.024825E+00
  1.020156E+00
  1.014734E+00
  1.009161E+00
  1.003588E+00
  9.972901E-01
  9.908078E-01
  9.843262E-01
  9.770280E-01
  9.696536E-01
  9.621287E-01
  9.538871E-01
  9.456474E-01
  9.369283E-01
  9.278516E-01
  9.186973E-01
  9.088164E-01
  8.989400E-01
  8.884871E-01
  8.778473E-01
  8.668518E-01
  8.555293E-01
  8.439647E-01
  8.320336E-01
  8.198767E-01
  8.073560E-01
  7.945725E-01
  7.814949E-01
  7.680843E-01
  7.545011E-01
  7.404934E-01
  7.263392E-01
  7.118980E-01
  6.971925E-01
  6.823046E-01
  6.671605E-01
  6.517240E-01
  6.360521E-01
  6.201288E-01
  6.039620E-01
  5.877284E-01
  5.721463E-01
  5.586278E-01
  5.494679E-01
  5.484283E-01
  5.628731E-01
  5.877769E-01
  5.651161E-01
  5.793507E-01
  1.489096E-01
  2.915321E-07
  9.028200E-01
  9.052094E-01
  9.076051E-01
  9.100069E-01
  9.124150E-01
  9.148293E-01
  9.172500E-01
  9.196770E-01
  9.221103E-01
  9.252023E-01
  9.283317E-01
  9.314687E-01
  9.346134E-01
  9.377659E-01
  9.409261E-01
  9.440941E-01
  9.465406E-01
  9.474060E-01
  9.482772E-01
  9.491542E-01
  9.500371E-01
  9.509260E-01
  9.518208E-01
  9.527267E-01
  9.537259E-01
  9.547302E-01
  9.557397E-01
  9.567545E-01
  9.577745E-01
  9.587998E-01
  9.599383E-01
  9.616528E-01
  9.633717E-01
  9.650952E-01
  9.668231E-01
  9.685556E-01
  9.702926E-01
  9.723306E-01
  9.745636E-01
  9.767997E-01
  9.790389E-01
  9.812813E-01
  9.835268E-01
  9.858132E-01
  9.881621E-01
  9.905122E-01
  9.928634E-01
  9.952157E-01
  9.975692E-01
  9.996708E-01
  1.001488E+00
  1.003304E+00
  1.005121E+00
  1.006938E+00
  1.008754E+00
  1.009703E+00
  1.010506E+00
  1.011312E+00
  1.012121E+00
  1.012932E+00
  1.013222E+00
  1.013032E+00
  1.012851E+00
  1.012680E+00
  1.012519E+00
  1.012108E+00
  1.011391E+00
  1.010692E+00
  1.010011E+00
  1.009346E+00
  1.008809E+00
  1.008357E+00
  1.007926E+00
  1.007516E+00
  1.007171E+00
  1.007602E+00
  1.008051E+00
  1.008519E+00
  1.009005E+00
  1.010133E+00
  1.011531E+00
  1.012944E+00
  1.014372E+00
  1.016121E+00
  1.018105E+00
  1.020104E+00
  1.022117E+00
  1.024130E+00
  1.026150E+00
  1.028183E+00
  1.030232E+00
  1.031824E+00
  1.033395E+00
  1.034978E+00
  1.036321E+00
  1.037280E+00
  1.038249E+00
  1.039213E+00
  1.039643E+00
  1.040080E+00
  1.040522E+00
  1.040540E+00
  1.040474E+00
  1.040411E+00
  1.039965E+00
  1.039423E+00
  1.038880E+00
  1.037954E+00
  1.036991E+00
  1.035958E+00
  1.034601E+00
  1.033242E+00
  1.031673E+00
  1.029947E+00
  1.028187E+00
  1.026116E+00
  1.024046E+00
  1.021665E+00
  1.019184E+00
  1.016553E+00
  1.013787E+00
  1.010957E+00
  1.008033E+00
  1.004957E+00
  1.001637E+00
  9.980515E-01
  9.941701E-01
  9.899635E-01
  9.855898E-01
  9.809361E-01
  9.762568E-01
  9.715578E-01
  9.670735E-01
  9.628287E-01
  9.590613E-01
  9.561327E-01
  9.540800E-01
  9.532321E-01
  9.541190E-01
  9.584894E-01
  9.689973E-01
  9.907660E-01
  1.032062E+00
  1.106182E+00
  1.236787E+00
  1.418457E+00
  1.510898E+00
  1.703777E+00
  7.264190E-01
  1.042246E-06
  1.148925E+00
  1.144294E+00
  1.139667E+00
  1.135045E+00
  1.130429E+00
  1.125817E+00
  1.121210E+00
  1.116608E+00
  1.112011E+00
  1.100949E+00
  1.089595E+00
  1.078246E+00
  1.066902E+00
  1.055561E+00
  1.044226E+00
  1.032894E+00
  1.021155E+00
  1.008523E+00
  9.958925E-01
  9.832645E-01
  9.706387E-01
  9.580150E-01
  9.453933E-01
  9.328341E-01
  9.213090E-01
  9.097857E-01
  8.982640E-01
  8.867438E-01
  8.752252E-01
  8.637080E-01
  8.524981E-01
  8.429084E-01
  8.333201E-01
  8.237331E-01
  8.141475E-01
  8.045630E-01
  7.949799E-01
  7.870727E-01
  7.802497E-01
  7.734276E-01
  7.666064E-01
  7.597860E-01
  7.529665E-01
  7.476364E-01
  7.447027E-01
  7.417693E-01
  7.388363E-01
  7.359037E-01
  7.329714E-01
  7.323449E-01
  7.343144E-01
  7.362840E-01
  7.382536E-01
  7.402232E-01
  7.421929E-01
  7.486504E-01
  7.558813E-01
  7.631134E-01
  7.703466E-01
  7.775810E-01
  7.872349E-01
  7.991533E-01
  8.110756E-01
  8.230020E-01
  8.349325E-01
  8.484732E-01
  8.640052E-01
  8.795448E-01
  8.950924E-01
  9.106479E-01
  9.276421E-01
  9.454820E-01
  9.633323E-01
  9.811933E-01
  9.991008E-01
  1.017619E+00
  1.036148E+00
  1.054686E+00
  1.073235E+00
  1.091248E+00
  1.109045E+00
  1.126850E+00
  1.144662E+00
  1.161609E+00
  1.177930E+00
  1.194259E+00
  1.210595E+00
  1.225569E+00
  1.239837E+00
  1.254113E+00
  1.268396E+00
  1.280095E+00
  1.291610E+00
  1.303131E+00
  1.313393E+00
  1.321687E+00
  1.329986E+00
  1.338195E+00
  1.343027E+00
  1.347863E+00
  1.352703E+00
  1.354360E+00
  1.355377E+00
  1.356397E+00
  1.354131E+00
  1.351031E+00
  1.347908E+00
  1.341085E+00
  1.333911E+00
  1.326071E+00
  1.315090E+00
  1.304091E+00
  1.291088E+00
  1.276586E+00
  1.261773E+00
  1.244114E+00
  1.226461E+00
  1.206635E+00
  1.186095E+00
  1.164296E+00
  1.141337E+00
  1.117758E+00
  1.093241E+00
  1.068431E+00
  1.043146E+00
  1.017760E+00
  9.922592E-01
  9.669529E-01
  9.417509E-01
  9.173124E-01
  8.933121E-01
  8.702404E-01
  8.484202E-01
  8.275661E-01
  8.082224E-01
  7.907500E-01
  7.748423E-01
  7.608034E-01
  7.491028E-01
  7.416367E-01
  7.415482E-01
  7.553938E-01
  7.941855E-01
  8.741402E-01
  1.017801E+00
  1.208299E+00
  1.274766E+00
  1.300075E+00
 -1.108020E-01
  2.671147E-12
  9.394597E-01
  9.392300E-01
  9.390017E-01
  9.387749E-01
  9.385496E-01
  9.383258E-01
  9.381034E-01
  9.378824E-01
  9.376630E-01
  9.365731E-01
  9.354448E-01
  9.343178E-01
  9.331923E-01
  9.320682E-01
  9.309454E-01
  9.298240E-01
  9.284426E-01
  9.264936E-01
  9.245456E-01
  9.225985E-01
  9.206525E-01
  9.187073E-01
  9.167632E-01
  9.148177E-01
  9.128344E-01
  9.108520E-01
  9.088704E-01
  9.068896E-01
  9.049096E-01
  9.029304E-01
  9.009716E-01
  8.991175E-01
  8.972641E-01
  8.954114E-01
  8.935594E-01
  8.917081E-01
  8.898574E-01
  8.880913E-01
  8.863799E-01
  8.846690E-01
  8.829586E-01
  8.812486E-01
  8.795392E-01
  8.779193E-01
  8.764431E-01
  8.749671E-01
  8.734913E-01
  8.720157E-01
  8.705403E-01
  8.692175E-01
  8.680665E-01
  8.669155E-01
  8.657645E-01
  8.646135E-01
  8.634625E-01
  8.626078E-01
  8.618045E-01
  8.610016E-01
  8.601992E-01
  8.593972E-01
  8.587357E-01
  8.582064E-01
  8.576787E-01
  8.571525E-01
  8.566279E-01
  8.561613E-01
  8.557670E-01
  8.553756E-01
  8.549870E-01
  8.546014E-01
  8.542032E-01
  8.537994E-01
  8.533993E-01
  8.530027E-01
  8.526004E-01
  8.520434E-01
  8.514896E-01
  8.509389E-01
  8.503913E-01
  8.496287E-01
  8.487792E-01
  8.479318E-01
  8.470866E-01
  8.459984E-01
  8.447349E-01
  8.434731E-01
  8.422133E-01
  8.406195E-01
  8.388527E-01
  8.370876E-01
  8.353244E-01
  8.330150E-01
  8.306666E-01
  8.283199E-01
  8.257194E-01
  8.227221E-01
  8.197262E-01
  8.167125E-01
  8.130245E-01
  8.093374E-01
  8.056512E-01
  8.013693E-01
  7.969681E-01
  7.925674E-01
  7.875936E-01
  7.824743E-01
  7.773556E-01
  7.715919E-01
  7.657681E-01
  7.598255E-01
  7.533168E-01
  7.468096E-01
  7.399237E-01
  7.327555E-01
  7.255259E-01
  7.177224E-01
  7.099224E-01
  7.016670E-01
  6.932640E-01
  6.845799E-01
  6.756375E-01
  6.665038E-01
  6.570805E-01
  6.474788E-01
  6.375895E-01
  6.274927E-01
  6.171635E-01
  6.065711E-01
  5.958424E-01
  5.847782E-01
  5.735983E-01
  5.621917E-01
  5.505762E-01
  5.388166E-01
  5.268547E-01
  5.146618E-01
  5.022830E-01
  4.897055E-01
  4.769359E-01
  4.641134E-01
  4.518056E-01
  4.411272E-01
  4.338907E-01
  4.330664E-01
  4.444690E-01
  4.641301E-01
  4.462324E-01
  4.574683E-01
  1.369801E-01
  4.611632E-02
  4.484196E-02
  4.496050E-02
  4.507935E-02
  4.519850E-02
  4.531795E-02
  4.543771E-02
  4.555778E-02
  4.567815E-02
  4.579884E-02
  4.595225E-02
  4.610750E-02
  4.626314E-02
  4.641914E-02
  4.657553E-02
  4.673230E-02
  4.688944E-02
  4.701076E-02
  4.705355E-02
  4.709663E-02
  4.714000E-02
  4.718366E-02
  4.722760E-02
  4.727184E-02
  4.731663E-02
  4.736607E-02
  4.741576E-02
  4.746571E-02
  4.751591E-02
  4.756638E-02
  4.761710E-02
  4.767345E-02
  4.775844E-02
  4.784365E-02
  4.792907E-02
  4.801472E-02
  4.810059E-02
  4.818669E-02
  4.828776E-02
  4.839855E-02
  4.850948E-02
  4.862057E-02
  4.873182E-02
  4.884322E-02
  4.895668E-02
  4.907329E-02
  4.918997E-02
  4.930670E-02
  4.942348E-02
  4.954032E-02
  4.964469E-02
  4.973498E-02
  4.982525E-02
  4.991552E-02
  5.000579E-02
  5.009604E-02
  5.014331E-02
  5.018331E-02
  5.022345E-02
  5.026373E-02
  5.030414E-02
  5.031873E-02
  5.030945E-02
  5.030066E-02
  5.029237E-02
  5.028457E-02
  5.026438E-02
  5.022904E-02
  5.019458E-02
  5.016097E-02
  5.012821E-02
  5.010183E-02
  5.007971E-02
  5.005861E-02
  5.003852E-02
  5.002167E-02
  5.004341E-02
  5.006607E-02
  5.008962E-02
  5.011407E-02
  5.017039E-02
  5.024016E-02
  5.031066E-02
  5.038189E-02
  5.046904E-02
  5.056787E-02
  5.066741E-02
  5.076765E-02
  5.086787E-02
  5.096840E-02
  5.106961E-02
  5.117152E-02
  5.125078E-02
  5.132892E-02
  5.140769E-02
  5.147450E-02
  5.152224E-02
  5.157045E-02
  5.161837E-02
  5.163979E-02
  5.166151E-02
  5.168351E-02
  5.168441E-02
  5.168114E-02
  5.167801E-02
  5.165590E-02
  5.162895E-02
  5.160201E-02
  5.155601E-02
  5.150816E-02
  5.145686E-02
  5.138943E-02
  5.132193E-02
  5.124400E-02
  5.115828E-02
  5.107082E-02
  5.096795E-02
  5.086511E-02
  5.074683E-02
  5.062356E-02
  5.049285E-02
  5.035537E-02
  5.021478E-02
  5.006944E-02
  4.991659E-02
  4.975156E-02
  4.957337E-02
  4.938046E-02
  4.917139E-02
  4.895399E-02
  4.872267E-02
  4.849008E-02
  4.825648E-02
  4.803354E-02
  4.782248E-02
  4.763512E-02
  4.748941E-02
  4.738719E-02
  4.734479E-02
  4.738854E-02
  4.760529E-02
  4.812685E-02
  4.920767E-02
  5.125829E-02
  5.493908E-02
  6.142517E-02
  7.044721E-02
  7.503759E-02
  8.461602E-02
  4.202836E-02
  1.036952E-02
  1.246252E-01
  1.241225E-01
  1.236202E-01
  1.231185E-01
  1.226174E-01
  1.221167E-01
  1.216166E-01
  1.211170E-01
  1.206179E-01
  1.194175E-01
  1.181856E-01
  1.169541E-01
  1.157232E-01
  1.144927E-01
  1.132627E-01
  1.120331E-01
  1.107594E-01
  1.093888E-01
  1.080184E-01
  1.066483E-01
  1.052785E-01
  1.039088E-01
  1.025394E-01
  1.011767E-01
  9.992633E-02
  9.867611E-02
  9.742607E-02
  9.617620E-02
  9.492651E-02
  9.367697E-02
  9.246079E-02
  9.142040E-02
  9.038016E-02
  8.934007E-02
  8.830013E-02
  8.726033E-02
  8.622066E-02
  8.536285E-02
  8.462265E-02
  8.388256E-02
  8.314257E-02
  8.240267E-02
  8.166286E-02
  8.108465E-02
  8.076641E-02
  8.044821E-02
  8.013006E-02
  7.981195E-02
  7.949387E-02
  7.942594E-02
  7.963963E-02
  7.985332E-02
  8.006702E-02
  8.028073E-02
  8.049444E-02
  8.119497E-02
  8.197941E-02
  8.276397E-02
  8.354866E-02
  8.433348E-02
  8.538078E-02
  8.667374E-02
  8.796713E-02
  8.926098E-02
  9.055527E-02
  9.202427E-02
  9.370933E-02
  9.539524E-02
  9.708200E-02
  9.876964E-02
  1.006134E-01
  1.025490E-01
  1.044857E-01
  1.064236E-01
  1.083665E-01
  1.103759E-01
  1.123863E-01
  1.143978E-01
  1.164105E-01
  1.183650E-01
  1.202962E-01
  1.222282E-01
  1.241611E-01
  1.260000E-01
  1.277711E-01
  1.295429E-01
  1.313156E-01
  1.329404E-01
  1.344887E-01
  1.360377E-01
  1.375875E-01
  1.388571E-01
  1.401065E-01
  1.413566E-01
  1.424700E-01
  1.433699E-01
  1.442704E-01
  1.451610E-01
  1.456853E-01
  1.462100E-01
  1.467351E-01
  1.469149E-01
  1.470253E-01
  1.471359E-01
  1.468901E-01
  1.465538E-01
  1.462151E-01
  1.454750E-01
  1.446967E-01
  1.438463E-01
  1.426551E-01
  1.414620E-01
  1.400515E-01
  1.384784E-01
  1.368715E-01
  1.349559E-01
  1.330410E-01
  1.308902E-01
  1.286620E-01
  1.262973E-01
  1.238067E-01
  1.212487E-01
  1.185892E-01
  1.158977E-01
  1.131547E-01
  1.104007E-01
  1.076342E-01
  1.048889E-01
  1.021548E-01
  9.950354E-02
  9.689980E-02
  9.439677E-02
  9.202948E-02
  8.976699E-02
  8.766832E-02
  8.577262E-02
  8.404664E-02
  8.252334E-02
  8.125368E-02
  8.044331E-02
  8.043316E-02
  8.193435E-02
  8.614126E-02
  9.481279E-02
  1.103939E-01
  1.310548E-01
  1.382628E-01
  1.410065E-01
 -1.400018E-02
  5.803865E-08
  9.396609E-01
  9.394319E-01
  9.392044E-01
  9.389783E-01
  9.387537E-01
  9.385305E-01
  9.383088E-01
  9.380886E-01
  9.378698E-01
  9.367814E-01
  9.356546E-01
  9.345292E-01
  9.334051E-01
  9.322825E-01
  9.311612E-01
  9.300413E-01
  9.286614E-01
  9.267137E-01
  9.247669E-01
  9.228212E-01
  9.208764E-01
  9.189326E-01
  9.169898E-01
  9.150456E-01
  9.130633E-01