 Title= "ADflow Lift Distribution Data"
Variables = "eta" "CoordinateX" "CoordinateY" "CoordinateZ" "Lift" "Drag" "Moment" "Normalized Lift" "Normalized Drag" "Normalized Moment" "CL" "CD" "CM" "CLp" "CDp" "CMp" "CLv" "CDv" "CMv" "Elliptical" "thickness" "twist" "chord" "fx" "fy" "fz" 
Zone T= "LiftDist_01 allWalls: : z normal"
 I=          150
 DATAPACKING=BLOCK
  0.000000E+00
  6.711405E-03
  1.342281E-02
  2.013422E-02
  2.684563E-02
  3.355704E-02
  4.026845E-02
  4.697986E-02
  5.369127E-02
  6.040268E-02
  6.711409E-02
  7.382550E-02
  8.053691E-02
  8.724832E-02
  9.395973E-02
  1.006711E-01
  1.073825E-01
  1.140940E-01
  1.208054E-01
  1.275168E-01
  1.342282E-01
  1.409396E-01
  1.476510E-01
  1.543624E-01
  1.610738E-01
  1.677852E-01
  1.744966E-01
  1.812081E-01
  1.879195E-01
  1.946309E-01
  2.013423E-01
  2.080537E-01
  2.147651E-01
  2.214765E-01
  2.281879E-01
  2.348993E-01
  2.416107E-01
  2.483221E-01
  2.550336E-01
  2.617450E-01
  2.684564E-01
  2.751678E-01
  2.818792E-01
  2.885906E-01
  2.953020E-01
  3.020134E-01
  3.087248E-01
  3.154362E-01
  3.221476E-01
  3.288591E-01
  3.355705E-01
  3.422819E-01
  3.489933E-01
  3.557047E-01
  3.624161E-01
  3.691275E-01
  3.758389E-01
  3.825503E-01
  3.892617E-01
  3.959732E-01
  4.026846E-01
  4.093960E-01
  4.161074E-01
  4.228188E-01
  4.295302E-01
  4.362416E-01
  4.429530E-01
  4.496644E-01
  4.563758E-01
  4.630872E-01
  4.697987E-01
  4.765101E-01
  4.832215E-01
  4.899329E-01
  4.966443E-01
  5.033557E-01
  5.100671E-01
  5.167785E-01
  5.234899E-01
  5.302013E-01
  5.369128E-01
  5.436242E-01
  5.503356E-01
  5.570470E-01
  5.637584E-01
  5.704698E-01
  5.771812E-01
  5.838926E-01
  5.906040E-01
  5.973154E-01
  6.040268E-01
  6.107383E-01
  6.174497E-01
  6.241611E-01
  6.308725E-01
  6.375839E-01
  6.442953E-01
  6.510067E-01
  6.577181E-01
  6.644295E-01
  6.711409E-01
  6.778524E-01
  6.845638E-01
  6.912752E-01
  6.979866E-01
  7.046980E-01
  7.114094E-01
  7.181208E-01
  7.248322E-01
  7.315436E-01
  7.382550E-01
  7.449664E-01
  7.516779E-01
  7.583893E-01
  7.651007E-01
  7.718121E-01
  7.785235E-01
  7.852349E-01
  7.919463E-01
  7.986577E-01
  8.053691E-01
  8.120805E-01
  8.187919E-01
  8.255034E-01
  8.322148E-01
  8.389262E-01
  8.456376E-01
  8.523490E-01
  8.590604E-01
  8.657718E-01
  8.724832E-01
  8.791946E-01
  8.859060E-01
  8.926175E-01
  8.993289E-01
  9.060403E-01
  9.127517E-01
  9.194631E-01
  9.261745E-01
  9.328859E-01
  9.395973E-01
  9.463087E-01
  9.530201E-01
  9.597315E-01
  9.664430E-01
  9.731544E-01
  9.798658E-01
  9.865772E-01
  9.932886E-01
  1.000000E+00
  0.000000E+00
  0.000000E+00
  0.000000E+00
  0.000000E+00
  0.000000E+00
  0.000000E+00
  0.000000E+00
  0.000000E+00
  0.000000E+00
  0.000000E+00
  0.000000E+00
  0.000000E+00
  0.000000E+00
  0.000000E+00
  0.000000E+00
  0.000000E+00
  0.000000E+00
  0.000000E+00
  0.000000E+00
  0.000000E+00
  0.000000E+00
  0.000000E+00
  0.000000E+00
  0.000000E+00
  0.000000E+00
  0.000000E+00
  0.000000E+00
  0.000000E+00
  0.000000E+00
  0.000000E+00
  0.000000E+00
  0.000000E+00
  0.000000E+00
  0.000000E+00
  0.000000E+00
  0.000000E+00
  0.000000E+00
  0.000000E+00
  0.000000E+00
  0.000000E+00
  0.000000E+00
  0.000000E+00
  0.000000E+00
  0.000000E+00
  0.000000E+00
  0.000000E+00
  0.000000E+00
  0.000000E+00
  0.000000E+00
  0.000000E+00
  0.000000E+00
  0.000000E+00
  0.000000E+00
  0.000000E+00
  0.000000E+00
  0.000000E+00
  0.000000E+00
  0.000000E+00
  0.000000E+00
  0.000000E+00
  0.000000E+00
  0.000000E+00
  0.000000E+00
  0.000000E+00
  0.000000E+00
  0.000000E+00
  0.000000E+00
  0.000000E+00
  0.000000E+00
  0.000000E+00
  0.000000E+00
  0.000000E+00
  0.000000E+00
  0.000000E+00
  0.000000E+00
  0.000000E+00
  0.000000E+00
  0.000000E+00
  0.000000E+00
  0.000000E+00
  0.000000E+00
  0.000000E+00
  0.000000E+00
  0.000000E+00
  0.000000E+00
  0.000000E+00
  0.000000E+00
  0.000000E+00
  0.000000E+00
  0.000000E+00
  0.000000E+00
  0.000000E+00
  0.000000E+00
  0.000000E+00
  0.000000E+00
  0.000000E+00
  0.000000E+00
  0.000000E+00
  0.000000E+00
  0.000000E+00
  0.000000E+00
  0.000000E+00
  0.000000E+00
  0.000000E+00
  0.000000E+00
  0.000000E+00
  0.000000E+00
  0.000000E+00
  0.000000E+00
  0.000000E+00
  0.000000E+00
  0.000000E+00
  0.000000E+00
  0.000000E+00
  0.000000E+00
  0.000000E+00
  0.000000E+00
  0.000000E+00
  0.000000E+00
  0.000000E+00
  0.000000E+00
  0.000000E+00
  0.000000E+00
  0.000000E+00
  0.000000E+00
  0.000000E+00
  0.000000E+00
  0.000000E+00
  0.000000E+00
  0.000000E+00
  0.000000E+00
  0.000000E+00
  0.000000E+00
  0.000000E+00
  0.000000E+00
  0.000000E+00
  0.000000E+00
  0.000000E+00
  0.000000E+00
  0.000000E+00
  0.000000E+00
  0.000000E+00
  0.000000E+00
  0.000000E+00
  0.000000E+00
  0.000000E+00
  0.000000E+00
  0.000000E+00
  0.000000E+00
  0.000000E+00
  0.000000E+00
  0.000000E+00
  0.000000E+00
  0.000000E+00
  0.000000E+00
  0.000000E+00
  0.000000E+00
  0.000000E+00
  0.000000E+00
  0.000000E+00
  0.000000E+00
  0.000000E+00
  0.000000E+00
  0.000000E+00
  0.000000E+00
  0.000000E+00
  0.000000E+00
  0.000000E+00
  0.000000E+00
  0.000000E+00
  0.000000E+00
  0.000000E+00
  0.000000E+00
  0.000000E+00
  0.000000E+00
  0.000000E+00
  0.000000E+00
  0.000000E+00
  0.000000E+00
  0.000000E+00
  0.000000E+00
  0.000000E+00
  0.000000E+00
  0.000000E+00
  0.000000E+00
  0.000000E+00
  0.000000E+00
  0.000000E+00
  0.000000E+00
  0.000000E+00
  0.000000E+00
  0.000000E+00
  0.000000E+00
  0.000000E+00
  0.000000E+00
  0.000000E+00
  0.000000E+00
  0.000000E+00
  0.000000E+00
  0.000000E+00
  0.000000E+00
  0.000000E+00
  0.000000E+00
  0.000000E+00
  0.000000E+00
  0.000000E+00
  0.000000E+00
  0.000000E+00
  0.000000E+00
  0.000000E+00
  0.000000E+00
  0.000000E+00
  0.000000E+00
  0.000000E+00
  0.000000E+00
  0.000000E+00
  0.000000E+00
  0.000000E+00
  0.000000E+00
  0.000000E+00
  0.000000E+00
  0.000000E+00
  0.000000E+00
  0.000000E+00
  0.000000E+00
  0.000000E+00
  0.000000E+00
  0.000000E+00
  0.000000E+00
  0.000000E+00
  0.000000E+00
  0.000000E+00
  0.000000E+00
  0.000000E+00
  0.000000E+00
  0.000000E+00
  0.000000E+00
  0.000000E+00
  0.000000E+00
  0.000000E+00
  0.000000E+00
  0.000000E+00
  0.000000E+00
  0.000000E+00
  0.000000E+00
  0.000000E+00
  0.000000E+00
  0.000000E+00
  0.000000E+00
  0.000000E+00
  0.000000E+00
  0.000000E+00
  0.000000E+00
  0.000000E+00
  0.000000E+00
  0.000000E+00
  0.000000E+00
  0.000000E+00
  0.000000E+00
  0.000000E+00
  0.000000E+00
  0.000000E+00
  0.000000E+00
  0.000000E+00
  0.000000E+00
  0.000000E+00
  0.000000E+00
  0.000000E+00
  0.000000E+00
  0.000000E+00
  0.000000E+00
  0.000000E+00
  0.000000E+00
  0.000000E+00
  0.000000E+00
  0.000000E+00
  0.000000E+00
  0.000000E+00
  0.000000E+00
  0.000000E+00
  0.000000E+00
  0.000000E+00
  0.000000E+00
  0.000000E+00
  0.000000E+00
  0.000000E+00
  0.000000E+00
  0.000000E+00
  0.000000E+00
  0.000000E+00
  0.000000E+00
  0.000000E+00
  0.000000E+00
  0.000000E+00
  0.000000E+00
  0.000000E+00
  0.000000E+00
  0.000000E+00
  0.000000E+00
  0.000000E+00
  1.000000E-08
  1.690972E-02
  3.381945E-02
  5.072917E-02
  6.763890E-02
  8.454862E-02
  1.014583E-01
  1.183681E-01
  1.352778E-01
  1.521875E-01
  1.690972E-01
  1.860070E-01
  2.029167E-01
  2.198264E-01
  2.367361E-01
  2.536459E-01
  2.705556E-01
  2.874653E-01
  3.043750E-01
  3.212848E-01
  3.381945E-01
  3.551042E-01
  3.720139E-01
  3.889237E-01
  4.058334E-01
  4.227431E-01
  4.396528E-01
  4.565626E-01
  4.734723E-01
  4.903820E-01
  5.072917E-01
  5.242015E-01
  5.411112E-01
  5.580209E-01
  5.749306E-01
  5.918404E-01
  6.087501E-01
  6.256598E-01
  6.425695E-01
  6.594792E-01
  6.763890E-01
  6.932987E-01
  7.102084E-01
  7.271181E-01
  7.440279E-01
  7.609376E-01
  7.778473E-01
  7.947570E-01
  8.116668E-01
  8.285765E-01
  8.454862E-01
  8.623959E-01
  8.793057E-01
  8.962154E-01
  9.131251E-01
  9.300348E-01
  9.469446E-01
  9.638543E-01
  9.807640E-01
  9.976737E-01
  1.014583E+00
  1.031493E+00
  1.048403E+00
  1.065313E+00
  1.082222E+00
  1.099132E+00
  1.116042E+00
  1.132952E+00
  1.149861E+00
  1.166771E+00
  1.183681E+00
  1.200590E+00
  1.217500E+00
  1.234410E+00
  1.251320E+00
  1.268229E+00
  1.285139E+00
  1.302049E+00
  1.318958E+00
  1.335868E+00
  1.352778E+00
  1.369688E+00
  1.386597E+00
  1.403507E+00
  1.420417E+00
  1.437327E+00
  1.454236E+00
  1.471146E+00
  1.488056E+00
  1.504965E+00
  1.521875E+00
  1.538785E+00
  1.555695E+00
  1.572604E+00
  1.589514E+00
  1.606424E+00
  1.623334E+00
  1.640243E+00
  1.657153E+00
  1.674063E+00
  1.690972E+00
  1.707882E+00
  1.724792E+00
  1.741702E+00
  1.758611E+00
  1.775521E+00
  1.792431E+00
  1.809341E+00
  1.826250E+00
  1.843160E+00
  1.860070E+00
  1.876979E+00
  1.893889E+00
  1.910799E+00
  1.927709E+00
  1.944618E+00
  1.961528E+00
  1.978438E+00
  1.995347E+00
  2.012257E+00
  2.029167E+00
  2.046077E+00
  2.062986E+00
  2.079896E+00
  2.096806E+00
  2.113716E+00
  2.130625E+00
  2.147535E+00
  2.164445E+00
  2.181354E+00
  2.198264E+00
  2.215174E+00
  2.232084E+00
  2.248993E+00
  2.265903E+00
  2.282813E+00
  2.299723E+00
  2.316632E+00
  2.333542E+00
  2.350452E+00
  2.367361E+00
  2.384271E+00
  2.401181E+00
  2.418091E+00
  2.435000E+00
  2.451910E+00
  2.468820E+00
  2.485729E+00
  2.502639E+00
  2.519549E+00
  7.587642E+03
  7.586728E+03
  7.585814E+03
  7.584900E+03
  7.583986E+03
  7.583072E+03
  7.582158E+03
  7.581244E+03
  7.580330E+03
  7.577720E+03
  7.575033E+03
  7.572346E+03
  7.569660E+03
  7.566973E+03
  7.564286E+03
  7.561599E+03
  7.558422E+03
  7.554180E+03
  7.549938E+03
  7.545696E+03
  7.541453E+03
  7.537211E+03
  7.532969E+03
  7.528640E+03
  7.522840E+03
  7.517040E+03
  7.511239E+03
  7.505439E+03
  7.499638E+03
  7.493838E+03
  7.487772E+03
  7.480302E+03
  7.472832E+03
  7.465361E+03
  7.457891E+03
  7.450421E+03
  7.442951E+03
  7.434410E+03
  7.425178E+03
  7.415946E+03
  7.406714E+03
  7.397482E+03
  7.388250E+03
  7.378306E+03
  7.367217E+03
  7.356128E+03
  7.345039E+03
  7.333950E+03
  7.322861E+03
  7.310824E+03
  7.297719E+03
  7.284615E+03
  7.271510E+03
  7.258405E+03
  7.245301E+03
  7.230287E+03
  7.214944E+03
  7.199601E+03
  7.184258E+03
  7.168915E+03
  7.152284E+03
  7.134447E+03
  7.116610E+03
  7.098773E+03
  7.080937E+03
  7.061860E+03
  7.041251E+03
  7.020642E+03
  7.000033E+03
  6.979424E+03
  6.956923E+03
  6.933317E+03
  6.909712E+03
  6.886108E+03
  6.862334E+03
  6.835698E+03
  6.809063E+03
  6.782429E+03
  6.755796E+03
  6.727102E+03
  6.697565E+03
  6.668030E+03
  6.638497E+03
  6.607397E+03
  6.575165E+03
  6.542936E+03
  6.510710E+03
  6.476929E+03
  6.442339E+03
  6.407753E+03
  6.373171E+03
  6.336769E+03
  6.300235E+03
  6.263704E+03
  6.226517E+03
  6.188304E+03
  6.150095E+03
  6.111844E+03
  6.072038E+03
  6.032234E+03
  5.992433E+03
  5.951318E+03
  5.909940E+03
  5.868564E+03
  5.825884E+03
  5.782875E+03
  5.739866E+03
  5.695180E+03
  5.650335E+03
  5.605128E+03
  5.558196E+03
  5.511265E+03
  5.463008E+03
  5.413758E+03
  5.364257E+03
  5.312465E+03
  5.260675E+03
  5.206814E+03
  5.152267E+03
  5.096183E+03
  5.038678E+03
  4.979918E+03
  4.919273E+03
  4.857354E+03
  4.793411E+03
  4.727850E+03
  4.660488E+03
  4.590837E+03
  4.519984E+03
  4.445874E+03
  4.370518E+03
  4.292708E+03
  4.212444E+03
  4.130458E+03
  4.046030E+03
  3.958887E+03
  3.869585E+03
  3.777848E+03
  3.683343E+03
  3.585241E+03
  3.484464E+03
  3.383093E+03
  3.284122E+03
  3.199447E+03
  3.177921E+03
  3.227583E+03
  3.147855E+03
  3.740878E+03
  9.948367E+02
  1.227276E-03
  3.321206E+02
  3.321069E+02
  3.320931E+02
  3.320794E+02
  3.320657E+02
  3.320520E+02
  3.320382E+02
  3.320245E+02
  3.320108E+02
  3.320060E+02
  3.320017E+02
  3.319973E+02
  3.319929E+02
  3.319886E+02
  3.319842E+02
  3.319799E+02
  3.319949E+02
  3.320522E+02
  3.321094E+02
  3.321667E+02
  3.322239E+02
  3.322812E+02
  3.323384E+02
  3.323982E+02
  3.325003E+02
  3.326024E+02
  3.327045E+02
  3.328066E+02
  3.329087E+02
  3.330108E+02
  3.331131E+02
  3.332161E+02
  3.333191E+02
  3.334222E+02
  3.335252E+02
  3.336282E+02
  3.337312E+02
  3.338233E+02
  3.339084E+02
  3.339934E+02
  3.340784E+02
  3.341635E+02
  3.342485E+02
  3.343219E+02
  3.343764E+02
  3.344310E+02
  3.344855E+02
  3.345401E+02
  3.345946E+02
  3.346257E+02
  3.346302E+02
  3.346347E+02
  3.346393E+02
  3.346438E+02
  3.346484E+02
  3.345915E+02
  3.345240E+02
  3.344566E+02
  3.343891E+02
  3.343217E+02
  3.342085E+02
  3.340525E+02
  3.338965E+02
  3.337405E+02
  3.335844E+02
  3.333870E+02
  3.331384E+02
  3.328898E+02
  3.326411E+02
  3.323924E+02
  3.320896E+02
  3.317550E+02
  3.314203E+02
  3.310857E+02
  3.307469E+02
  3.303399E+02
  3.299329E+02
  3.295258E+02
  3.291187E+02
  3.286761E+02
  3.282189E+02
  3.277618E+02
  3.273046E+02
  3.268234E+02
  3.263246E+02
  3.258259E+02
  3.253273E+02
  3.247893E+02
  3.242309E+02
  3.236725E+02
  3.231141E+02
  3.224780E+02
  3.218361E+02
  3.211941E+02
  3.205131E+02
  3.197714E+02
  3.190294E+02
  3.182843E+02
  3.174365E+02
  3.165884E+02
  3.157398E+02
  3.148208E+02
  3.138871E+02
  3.129530E+02
  3.119935E+02
  3.110271E+02
  3.100602E+02
  3.091106E+02
  3.081621E+02
  3.072219E+02
  3.063229E+02
  3.054233E+02
  3.045619E+02
  3.037288E+02
  3.029025E+02
  3.021424E+02
  3.013818E+02
  3.006754E+02
  2.999868E+02
  2.993334E+02
  2.987126E+02
  2.981168E+02
  2.975585E+02
  2.970223E+02
  2.965214E+02
  2.960499E+02
  2.956111E+02
  2.952269E+02
  2.948715E+02
  2.946337E+02
  2.944616E+02
  2.944287E+02
  2.946097E+02
  2.949728E+02
  2.956444E+02
  2.967778E+02
  2.983473E+02
  3.004553E+02
  3.032314E+02
  3.069843E+02
  3.119844E+02
  3.189006E+02
  3.288342E+02
  3.447308E+02
  3.755960E+02
  4.270935E+02
  4.778320E+02
  6.212919E+02
  1.689730E+02
  3.471805E-04
  1.533946E+03
  1.533834E+03
  1.533721E+03
  1.533609E+03
  1.533496E+03
  1.533384E+03
  1.533271E+03
  1.533159E+03
  1.533046E+03
  1.532766E+03
  1.532479E+03
  1.532192E+03
  1.531904E+03
  1.531617E+03
  1.531329E+03
  1.531042E+03
  1.530723E+03
  1.530337E+03
  1.529950E+03
  1.529563E+03
  1.529177E+03
  1.528790E+03
  1.528404E+03
  1.528010E+03
  1.527497E+03
  1.526983E+03
  1.526469E+03
  1.525955E+03
  1.525442E+03
  1.524928E+03
  1.524383E+03
  1.523675E+03
  1.522966E+03
  1.522258E+03
  1.521549E+03
  1.520841E+03
  1.520132E+03
  1.519273E+03
  1.518317E+03
  1.517361E+03
  1.516405E+03
  1.515449E+03
  1.514493E+03
  1.513421E+03
  1.512163E+03
  1.510905E+03
  1.509647E+03
  1.508388E+03
  1.507130E+03
  1.505694E+03
  1.504058E+03
  1.502422E+03
  1.500785E+03
  1.499149E+03
  1.497513E+03
  1.495442E+03
  1.493296E+03
  1.491149E+03
  1.489003E+03
  1.486857E+03
  1.484335E+03
  1.481461E+03
  1.478587E+03
  1.475713E+03
  1.472839E+03
  1.469521E+03
  1.465654E+03
  1.461786E+03
  1.457911E+03
  1.454044E+03
  1.449390E+03
  1.444278E+03
  1.439165E+03
  1.434053E+03
  1.428862E+03
  1.422353E+03
  1.415844E+03
  1.409336E+03
  1.402827E+03
  1.395411E+03
  1.387622E+03
  1.379834E+03
  1.372047E+03
  1.363755E+03
  1.355098E+03
  1.346442E+03
  1.337786E+03
  1.328879E+03
  1.319841E+03
  1.310804E+03
  1.301768E+03
  1.292767E+03
  1.283770E+03
  1.274774E+03
  1.265930E+03
  1.257325E+03
  1.248721E+03
  1.240134E+03
  1.232147E+03
  1.224160E+03
  1.216174E+03
  1.208722E+03
  1.201378E+03
  1.194035E+03
  1.187102E+03
  1.180275E+03
  1.173447E+03
  1.166937E+03
  1.160457E+03
  1.154008E+03
  1.147709E+03
  1.141409E+03
  1.135125E+03
  1.128851E+03
  1.122566E+03
  1.116180E+03
  1.109793E+03
  1.103236E+03
  1.096622E+03
  1.089845E+03
  1.082918E+03
  1.075844E+03
  1.068550E+03
  1.061104E+03
  1.053417E+03
  1.045547E+03
  1.037474E+03
  1.029177E+03
  1.020764E+03
  1.012126E+03
  1.003443E+03
  9.946944E+02
  9.860114E+02
  9.774232E+02
  9.690458E+02
  9.610447E+02
  9.533959E+02
  9.461629E+02
  9.394045E+02
  9.332858E+02
  9.283523E+02
  9.262677E+02
  9.300500E+02
  9.480098E+02
  1.006500E+03
  1.121421E+03
  1.210146E+03
  1.511825E+03
  4.544462E+01
  1.529441E-09
  1.207125E+00
  1.206980E+00
  1.206834E+00
  1.206689E+00
  1.206543E+00
  1.206398E+00
  1.206252E+00
  1.206107E+00
  1.205962E+00
  1.205546E+00
  1.205119E+00
  1.204692E+00
  1.204264E+00
  1.203837E+00
  1.203409E+00
  1.202982E+00
  1.202476E+00
  1.201801E+00
  1.201127E+00
  1.200452E+00
  1.199777E+00
  1.199102E+00
  1.198427E+00
  1.197738E+00
  1.196816E+00
  1.195893E+00
  1.194970E+00
  1.194047E+00
  1.193124E+00
  1.192202E+00
  1.191237E+00
  1.190048E+00
  1.188860E+00
  1.187671E+00
  1.186483E+00
  1.185294E+00
  1.184106E+00
  1.182747E+00
  1.181278E+00
  1.179810E+00
  1.178341E+00
  1.176872E+00
  1.175403E+00
  1.173821E+00
  1.172057E+00
  1.170293E+00
  1.168529E+00
  1.166765E+00
  1.165001E+00
  1.163086E+00
  1.161001E+00
  1.158916E+00
  1.156831E+00
  1.154746E+00
  1.152662E+00
  1.150273E+00
  1.147832E+00
  1.145391E+00
  1.142950E+00
  1.140509E+00
  1.137863E+00
  1.135026E+00
  1.132188E+00
  1.129350E+00
  1.126513E+00
  1.123478E+00
  1.120199E+00
  1.116920E+00
  1.113642E+00
  1.110363E+00
  1.106783E+00
  1.103028E+00
  1.099272E+00
  1.095517E+00
  1.091735E+00
  1.087497E+00
  1.083260E+00
  1.079023E+00
  1.074786E+00
  1.070221E+00
  1.065522E+00
  1.060823E+00
  1.056125E+00
  1.051177E+00
  1.046049E+00
  1.040922E+00
  1.035795E+00
  1.030421E+00
  1.024918E+00
  1.019415E+00
  1.013914E+00
  1.008122E+00
  1.002310E+00
  9.964984E-01
  9.905823E-01
  9.845030E-01
  9.784242E-01
  9.723388E-01
  9.660061E-01
  9.596737E-01
  9.533417E-01
  9.468006E-01
  9.402178E-01
  9.336352E-01
  9.268453E-01
  9.200028E-01
  9.131606E-01
  9.060514E-01
  8.989171E-01
  8.917250E-01
  8.842585E-01
  8.767923E-01
  8.691150E-01
  8.612798E-01
  8.534045E-01
  8.451650E-01
  8.369256E-01
  8.283569E-01
  8.196788E-01
  8.107564E-01
  8.016080E-01
  7.922597E-01
  7.826117E-01
  7.727610E-01
  7.625882E-01
  7.521580E-01
  7.414414E-01
  7.303604E-01
  7.190884E-01
  7.072982E-01
  6.953098E-01
  6.829309E-01
  6.701615E-01
  6.571184E-01
  6.436866E-01
  6.298229E-01
  6.156158E-01
  6.010212E-01
  5.859864E-01
  5.703793E-01
  5.543467E-01
  5.382193E-01
  5.224739E-01
  5.090029E-01
  5.055783E-01
  5.134792E-01
  5.007951E-01
  5.951397E-01
  1.582695E-01
  1.952484E-07
  1.022741E+00
  1.022699E+00
  1.022656E+00
  1.022614E+00
  1.022572E+00
  1.022530E+00
  1.022487E+00
  1.022445E+00
  1.022403E+00
  1.022388E+00
  1.022375E+00
  1.022361E+00
  1.022348E+00
  1.022334E+00
  1.022321E+00
  1.022308E+00
  1.022354E+00
  1.022530E+00
  1.022707E+00
  1.022883E+00
  1.023059E+00
  1.023235E+00
  1.023412E+00
  1.023596E+00
  1.023910E+00
  1.024225E+00
  1.024539E+00
  1.024854E+00
  1.025168E+00
  1.025482E+00
  1.025797E+00
  1.026115E+00
  1.026432E+00
  1.026749E+00
  1.027066E+00
  1.027383E+00
  1.027701E+00
  1.027984E+00
  1.028246E+00
  1.028508E+00
  1.028770E+00
  1.029032E+00
  1.029294E+00
  1.029520E+00
  1.029688E+00
  1.029856E+00
  1.030024E+00
  1.030192E+00
  1.030360E+00
  1.030455E+00
  1.030469E+00
  1.030483E+00
  1.030497E+00
  1.030511E+00
  1.030525E+00
  1.030350E+00
  1.030142E+00
  1.029934E+00
  1.029727E+00
  1.029519E+00
  1.029170E+00
  1.028690E+00
  1.028210E+00
  1.027729E+00
  1.027249E+00
  1.026641E+00
  1.025875E+00
  1.025110E+00
  1.024344E+00
  1.023578E+00
  1.022645E+00
  1.021615E+00
  1.020585E+00
  1.019554E+00
  1.018511E+00
  1.017257E+00
  1.016004E+00
  1.014751E+00
  1.013497E+00
  1.012134E+00
  1.010726E+00
  1.009318E+00
  1.007911E+00
  1.006428E+00
  1.004893E+00
  1.003357E+00
  1.001821E+00
  1.000165E+00
  9.984453E-01
  9.967257E-01
  9.950061E-01
  9.930474E-01
  9.910706E-01
  9.890937E-01
  9.869967E-01
  9.847125E-01
  9.824276E-01
  9.801330E-01
  9.775224E-01
  9.749106E-01
  9.722976E-01
  9.694674E-01
  9.665923E-01
  9.637157E-01
  9.607610E-01
  9.577851E-01
  9.548075E-01
  9.518833E-01
  9.489626E-01
  9.460671E-01
  9.432989E-01
  9.405287E-01
  9.378759E-01
  9.353104E-01
  9.327659E-01
  9.304254E-01
  9.280832E-01
  9.259079E-01
  9.237871E-01
  9.217751E-01
  9.198636E-01
  9.180287E-01
  9.163096E-01
  9.146584E-01
  9.131160E-01
  9.116639E-01
  9.103125E-01
  9.091297E-01
  9.080352E-01
  9.073029E-01
  9.067727E-01
  9.066715E-01
  9.072289E-01
  9.083469E-01
  9.104151E-01
  9.139055E-01
  9.187385E-01
  9.252301E-01
  9.337787E-01
  9.453356E-01
  9.607329E-01
  9.820309E-01
  1.012621E+00
  1.061573E+00
  1.156620E+00
  1.315203E+00
  1.471449E+00
  1.913223E+00
  5.203401E-01
  1.069117E-06
  1.158348E+00
  1.158263E+00
  1.158178E+00
  1.158093E+00
  1.158008E+00
  1.157923E+00
  1.157838E+00
  1.157753E+00
  1.157668E+00
  1.157457E+00
  1.157240E+00
  1.157023E+00
  1.156806E+00
  1.156589E+00
  1.156372E+00
  1.156155E+00
  1.155914E+00
  1.155622E+00
  1.155330E+00
  1.155038E+00
  1.154746E+00
  1.154455E+00
  1.154163E+00
  1.153866E+00
  1.153478E+00
  1.153090E+00
  1.152702E+00
  1.152314E+00
  1.151926E+00
  1.151538E+00
  1.151127E+00
  1.150592E+00
  1.150057E+00
  1.149521E+00
  1.148986E+00
  1.148451E+00
  1.147916E+00
  1.147268E+00
  1.146546E+00
  1.145824E+00
  1.145102E+00
  1.144380E+00
  1.143658E+00
  1.142848E+00
  1.141898E+00
  1.140948E+00
  1.139998E+00
  1.139048E+00
  1.138098E+00
  1.137014E+00
  1.135778E+00
  1.134542E+00
  1.133307E+00
  1.132071E+00
  1.130836E+00
  1.129272E+00
  1.127651E+00
  1.126030E+00
  1.124410E+00
  1.122789E+00
  1.120884E+00
  1.118714E+00
  1.116544E+00
  1.114374E+00
  1.112204E+00
  1.109698E+00
  1.106777E+00
  1.103857E+00
  1.100931E+00
  1.098010E+00
  1.094496E+00
  1.090635E+00
  1.086775E+00
  1.082914E+00
  1.078995E+00
  1.074079E+00
  1.069164E+00
  1.064249E+00
  1.059335E+00
  1.053734E+00
  1.047853E+00
  1.041972E+00
  1.036091E+00
  1.029829E+00
  1.023292E+00
  1.016755E+00
  1.010219E+00
  1.003493E+00
  9.966683E-01
  9.898440E-01
  9.830204E-01
  9.762236E-01
  9.694294E-01
  9.626357E-01
  9.559577E-01
  9.494596E-01
  9.429619E-01
  9.364775E-01
  9.304462E-01
  9.244152E-01
  9.183845E-01
  9.127575E-01
  9.072118E-01
  9.016663E-01
  8.964314E-01
  8.912756E-01
  8.861200E-01
  8.812037E-01
  8.763102E-01
  8.714406E-01
  8.666836E-01
  8.619268E-01
  8.571809E-01
  8.524433E-01
  8.476973E-01
  8.428747E-01
  8.380521E-01
  8.331003E-01
  8.281057E-01
  8.229882E-01
  8.177572E-01
  8.124153E-01
  8.069072E-01
  8.012846E-01
  7.954801E-01
  7.895372E-01
  7.834404E-01
  7.771753E-01
  7.708221E-01
  7.642991E-01
  7.577427E-01
  7.511360E-01
  7.445791E-01
  7.380938E-01
  7.317676E-01
  7.257257E-01
  7.199497E-01
  7.144878E-01
  7.093843E-01
  7.047637E-01
  7.010382E-01
  6.994641E-01
  7.023203E-01
  7.158824E-01
  7.600511E-01
  8.468327E-01
  9.138324E-01
  1.141643E+00
  3.431717E-02
  1.154946E-12
  6.718154E-01
  6.717345E-01
  6.716536E-01
  6.715726E-01
  6.714917E-01
  6.714107E-01
  6.713298E-01
  6.712489E-01
  6.711679E-01
  6.709369E-01
  6.706990E-01
  6.704611E-01
  6.702232E-01
  6.699853E-01
  6.697474E-01
  6.695095E-01
  6.692283E-01
  6.688526E-01
  6.684770E-01
  6.681014E-01
  6.677258E-01
  6.673502E-01
  6.669746E-01
  6.665913E-01
  6.660778E-01
  6.655642E-01
  6.650506E-01
  6.645370E-01
  6.640235E-01
  6.635099E-01
  6.629728E-01
  6.623114E-01
  6.616500E-01
  6.609886E-01
  6.603271E-01
  6.596657E-01
  6.590043E-01
  6.582481E-01
  6.574307E-01
  6.566133E-01
  6.557959E-01
  6.549785E-01
  6.541610E-01
  6.532806E-01
  6.522988E-01
  6.513170E-01
  6.503351E-01
  6.493533E-01
  6.483715E-01
  6.473057E-01
  6.461454E-01
  6.449851E-01
  6.438248E-01
  6.426645E-01
  6.415042E-01
  6.401749E-01
  6.388164E-01
  6.374579E-01
  6.360995E-01
  6.347410E-01
  6.332684E-01
  6.316892E-01
  6.301099E-01
  6.285306E-01
  6.269514E-01
  6.252623E-01
  6.234375E-01
  6.216128E-01
  6.197881E-01
  6.179633E-01
  6.159711E-01
  6.138810E-01
  6.117910E-01
  6.097010E-01
  6.075961E-01
  6.052376E-01
  6.028793E-01
  6.005211E-01
  5.981630E-01
  5.956224E-01
  5.930071E-01
  5.903920E-01
  5.877771E-01
  5.850234E-01
  5.821695E-01
  5.793158E-01
  5.764624E-01
  5.734713E-01
  5.704087E-01
  5.673463E-01
  5.642843E-01
  5.610611E-01
  5.578263E-01
  5.545917E-01
  5.512991E-01
  5.479157E-01
  5.445325E-01
  5.411457E-01
  5.376212E-01
  5.340970E-01
  5.305729E-01
  5.269326E-01
  5.232689E-01
  5.196055E-01
  5.158266E-01
  5.120186E-01
  5.082106E-01
  5.042541E-01
  5.002836E-01
  4.962810E-01
  4.921256E-01
  4.879704E-01
  4.836977E-01
  4.793371E-01
  4.749542E-01
  4.703686E-01
  4.657831E-01
  4.610143E-01
  4.561847E-01
  4.512190E-01
  4.461275E-01
  4.409249E-01
  4.355553E-01
  4.300730E-01
  4.244114E-01
  4.186066E-01
  4.126424E-01
  4.064754E-01
  4.002020E-01
  3.936403E-01
  3.869683E-01
  3.800789E-01
  3.729722E-01
  3.657132E-01
  3.582378E-01
  3.505221E-01
  3.426152E-01
  3.344928E-01
  3.261253E-01
  3.174393E-01
  3.085164E-01
  2.995409E-01
  2.907779E-01
  2.832808E-01
  2.813748E-01
  2.857720E-01
  2.787127E-01
  3.312193E-01
  1.026117E-01
  2.176362E-02
  2.940620E-02
  2.940498E-02
  2.940377E-02
  2.940255E-02
  2.940134E-02
  2.940012E-02
  2.939891E-02
  2.939769E-02
  2.939648E-02
  2.939606E-02
  2.939567E-02
  2.939528E-02
  2.939490E-02
  2.939451E-02
  2.939413E-02
  2.939374E-02
  2.939507E-02
  2.940014E-02
  2.940521E-02
  2.941028E-02
  2.941535E-02
  2.942042E-02
  2.942549E-02
  2.943078E-02
  2.943982E-02
  2.944886E-02
  2.945790E-02
  2.946694E-02
  2.947598E-02
  2.948502E-02
  2.949408E-02
  2.950320E-02
  2.951232E-02
  2.952144E-02
  2.953056E-02
  2.953968E-02
  2.954881E-02
  2.955696E-02
  2.956449E-02
  2.957202E-02
  2.957955E-02
  2.958708E-02
  2.959461E-02
  2.960111E-02
  2.960593E-02
  2.961076E-02
  2.961559E-02
  2.962042E-02
  2.962525E-02
  2.962800E-02
  2.962840E-02
  2.962880E-02
  2.962921E-02
  2.962961E-02
  2.963001E-02
  2.962498E-02
  2.961900E-02
  2.961303E-02
  2.960706E-02
  2.960109E-02
  2.959106E-02
  2.957725E-02
  2.956344E-02
  2.954963E-02
  2.953581E-02
  2.951833E-02
  2.949632E-02
  2.947431E-02
  2.945229E-02
  2.943027E-02
  2.940345E-02
  2.937383E-02
  2.934420E-02
  2.931457E-02
  2.928457E-02
  2.924853E-02
  2.921250E-02
  2.917645E-02
  2.914041E-02
  2.910121E-02
  2.906074E-02
  2.902026E-02
  2.897978E-02
  2.893716E-02
  2.889300E-02
  2.884884E-02
  2.880469E-02
  2.875705E-02
  2.870760E-02
  2.865816E-02
  2.860871E-02
  2.855239E-02
  2.849555E-02
  2.843870E-02
  2.837840E-02
  2.831272E-02
  2.824703E-02
  2.818105E-02
  2.810598E-02
  2.803089E-02
  2.795576E-02
  2.787438E-02
  2.779172E-02
  2.770901E-02
  2.762405E-02
  2.753849E-02
  2.745288E-02
  2.736881E-02
  2.728483E-02
  2.720158E-02
  2.712199E-02
  2.704234E-02
  2.696607E-02
  2.689231E-02
  2.681915E-02
  2.675186E-02
  2.668452E-02
  2.662198E-02
  2.656100E-02
  2.650315E-02
  2.644819E-02
  2.639543E-02
  2.634601E-02
  2.629853E-02
  2.625418E-02
  2.621243E-02
  2.617358E-02
  2.613957E-02
  2.610810E-02
  2.608704E-02
  2.607180E-02
  2.606889E-02
  2.608491E-02
  2.611706E-02
  2.617652E-02
  2.627688E-02
  2.641584E-02
  2.660249E-02
  2.684828E-02
  2.718056E-02
  2.762327E-02
  2.823563E-02
  2.911516E-02
  3.052265E-02
  3.325547E-02
  3.781509E-02
  4.230750E-02
  5.500951E-02
  1.742861E-02
  6.156647E-03
  1.358167E-01
  1.358068E-01
  1.357968E-01
  1.357869E-01
  1.357769E-01
  1.357669E-01
  1.357570E-01
  1.357470E-01
  1.357370E-01
  1.357123E-01
  1.356868E-01
  1.356614E-01
  1.356359E-01
  1.356105E-01
  1.355850E-01
  1.355596E-01
  1.355313E-01
  1.354971E-01
  1.354629E-01
  1.354287E-01
  1.353944E-01
  1.353602E-01
  1.353260E-01
  1.352912E-01
  1.352457E-01
  1.352002E-01
  1.351547E-01
  1.351092E-01
  1.350637E-01
  1.350182E-01
  1.349700E-01
  1.349073E-01
  1.348445E-01
  1.347818E-01
  1.347191E-01
  1.346563E-01
  1.345936E-01
  1.345176E-01
  1.344329E-01
  1.343483E-01
  1.342636E-01
  1.341789E-01
  1.340943E-01
  1.339994E-01
  1.338880E-01
  1.337766E-01
  1.336652E-01
  1.335538E-01
  1.334424E-01
  1.333153E-01
  1.331704E-01
  1.330255E-01
  1.328806E-01
  1.327358E-01
  1.325909E-01
  1.324075E-01
  1.322175E-01
  1.320275E-01
  1.318375E-01
  1.316474E-01
  1.314241E-01
  1.311697E-01
  1.309152E-01
  1.306607E-01
  1.304063E-01
  1.301125E-01
  1.297701E-01
  1.294277E-01
  1.290845E-01
  1.287421E-01
  1.283301E-01
  1.278774E-01
  1.274247E-01
  1.269721E-01
  1.265125E-01
  1.259362E-01
  1.253599E-01
  1.247836E-01
  1.242073E-01
  1.235506E-01
  1.228610E-01
  1.221715E-01
  1.214820E-01
  1.207478E-01
  1.199813E-01
  1.192148E-01
  1.184485E-01
  1.176598E-01
  1.168596E-01
  1.160594E-01
  1.152593E-01
  1.144624E-01
  1.136657E-01
  1.128692E-01
  1.120861E-01
  1.113242E-01
  1.105624E-01
  1.098020E-01
  1.090949E-01
  1.083877E-01
  1.076806E-01
  1.070208E-01
  1.063706E-01
  1.057204E-01
  1.051066E-01
  1.045021E-01
  1.038976E-01
  1.033212E-01
  1.027474E-01
  1.021765E-01
  1.016187E-01
  1.010610E-01
  1.005046E-01
  9.994908E-02
  9.939262E-02
  9.882717E-02
  9.826173E-02
  9.768114E-02
  9.709553E-02
  9.649551E-02
  9.588216E-02
  9.525583E-02
  9.461001E-02
  9.395077E-02
  9.327018E-02
  9.257338E-02
  9.185852E-02
  9.112395E-02
  9.037902E-02
  8.961420E-02
  8.884547E-02
  8.807082E-02
  8.730202E-02
  8.654162E-02
  8.579987E-02
  8.509145E-02
  8.441422E-02
  8.377380E-02
  8.317541E-02
  8.263365E-02
  8.219683E-02
  8.201225E-02
  8.234714E-02
  8.393730E-02
  8.911607E-02
  9.929122E-02
  1.071469E-01
  1.338578E-01
  4.687354E-03
  2.712200E-08
  6.719231E-01
  6.718421E-01
  6.717612E-01
  6.716803E-01
  6.715994E-01
  6.715184E-01
  6.714375E-01
  6.713566E-01
  6.712756E-01
  6.710446E-01
  6.708067E-01
  6.705689E-01
  6.703310E-01
  6.700931E-01
  6.698553E-01
  6.696174E-01
  6.693362E-01
  6.689606E-01
  6.685851E-01
  6.682096E-01
  6.678340E-01
  6.674585E-01
  6.670829E-01
  6.666998E-01
  6.661863E-01