 Title = "ADflow Slice Data"
Variables =  "CoordinateX"  "CoordinateY"  "CoordinateZ"  "XoC"  "YoC"  "ZoC" "VelocityX" "VelocityY" "VelocityZ" "CoefPressure" "Mach" 
Zone T= "Slice_0001 None Absolute Regular z = 0.50000000"
 Nodes =          192  Elements=          184  ZONETYPE=FELINESEG
 DATAPACKING=POINT
  5.653940E-01  5.960340E-03  5.000000E-01  5.711039E-01  6.009402E-03  0.000000E+00  6.652176E-03  1.049797E-03  8.803107E-19  2.058535E-01  0.000000E+00
  5.859770E-01  9.259001E-03  5.000000E-01  5.918948E-01  9.341377E-03  0.000000E+00  5.783384E-03  9.187211E-04  1.085492E-18  2.523681E-01  0.000000E+00
  6.063060E-01  1.245617E-02  5.000000E-01  6.124291E-01  1.257083E-02  0.000000E+00  5.112040E-03  7.766831E-04  2.229504E-18  2.990488E-01  0.000000E+00
  6.263240E-01  1.537500E-02  5.000000E-01  6.326492E-01  1.551914E-02  0.000000E+00  4.680006E-03  6.351014E-04  1.698412E-18  3.395931E-01  0.000000E+00
  6.459860E-01  1.783016E-02  5.000000E-01  6.525098E-01  1.799909E-02  0.000000E+00  4.499487E-03  4.958521E-04  2.151508E-18  3.712204E-01  0.000000E+00
  6.652460E-01  1.966724E-02  5.000000E-01  6.719643E-01  1.985473E-02  0.000000E+00  4.549448E-03  3.586511E-04  1.593899E-18  3.920996E-01  0.000000E+00
  6.840650E-01  2.084547E-02  5.000000E-01  6.909734E-01  2.104486E-02  0.000000E+00  4.772292E-03  2.314418E-04  5.436890E-19  3.997252E-01  0.000000E+00
  7.024070E-01  2.148797E-02  5.000000E-01  7.095006E-01  2.169384E-02  0.000000E+00  5.093046E-03  1.214634E-04  5.043483E-19  3.963065E-01  0.000000E+00
  7.202400E-01  2.172919E-02  5.000000E-01  7.275137E-01  2.193751E-02  0.000000E+00  5.445938E-03  2.794958E-05  5.081849E-19  3.882280E-01  0.000000E+00
  7.375350E-01  2.168367E-02  5.000000E-01  7.449833E-01  2.189153E-02  0.000000E+00  5.782367E-03 -5.024154E-05  4.231854E-19  3.792774E-01  0.000000E+00
  7.542690E-01  2.144292E-02  5.000000E-01  7.618863E-01  2.164834E-02  0.000000E+00  6.072462E-03 -1.134048E-04  7.179334E-19  3.707295E-01  0.000000E+00
  7.704220E-01  2.107435E-02  5.000000E-01  7.782025E-01  2.127605E-02  0.000000E+00  6.306929E-03 -1.636298E-04  5.356147E-19  3.629292E-01  0.000000E+00
  7.859770E-01  2.062379E-02  5.000000E-01  7.939146E-01  2.082094E-02  0.000000E+00  6.500071E-03 -2.128698E-04 -3.396586E-19  3.570663E-01  0.000000E+00
  8.009220E-01  2.008150E-02  5.000000E-01  8.090105E-01  2.027317E-02  0.000000E+00  6.684610E-03 -2.787735E-04 -2.036707E-19  3.541557E-01  0.000000E+00
  8.152480E-01  1.940872E-02  5.000000E-01  8.234812E-01  1.959360E-02  0.000000E+00  6.888099E-03 -3.626484E-04 -1.742032E-19  3.512266E-01  0.000000E+00
  8.289490E-01  1.861000E-02  5.000000E-01  8.373205E-01  1.878681E-02  0.000000E+00  7.117535E-03 -4.521808E-04 -4.626809E-19  3.449058E-01  0.000000E+00
  8.420260E-01  1.771249E-02  5.000000E-01  8.505296E-01  1.788023E-02  0.000000E+00  7.366286E-03 -5.387840E-04  3.999236E-20  3.356066E-01  0.000000E+00
  8.544790E-01  1.674770E-02  5.000000E-01  8.631084E-01  1.690571E-02  0.000000E+00  7.622584E-03 -6.183084E-04  6.306947E-19  3.249589E-01  0.000000E+00
  8.663160E-01  1.574605E-02  5.000000E-01  8.750649E-01  1.589393E-02  0.000000E+00  7.872310E-03 -6.880845E-04  5.417703E-19  3.139031E-01  0.000000E+00
  8.775420E-01  1.473453E-02  5.000000E-01  8.864043E-01  1.487220E-02  0.000000E+00  8.100943E-03 -7.458290E-04 -2.657013E-19  3.028972E-01  0.000000E+00
  8.881660E-01  1.373603E-02  5.000000E-01  8.971356E-01  1.386362E-02  0.000000E+00  8.296671E-03 -7.898794E-04 -1.369685E-19  2.923167E-01  0.000000E+00
  8.981970E-01  1.276900E-02  5.000000E-01  9.072679E-01  1.288682E-02  0.000000E+00  8.454331E-03 -8.221769E-04 -1.235567E-19  2.827197E-01  0.000000E+00
  9.076460E-01  1.184248E-02  5.000000E-01  9.168123E-01  1.195095E-02  0.000000E+00  8.578703E-03 -8.500443E-04 -5.198746E-20  2.748369E-01  0.000000E+00
  9.165220E-01  1.095415E-02  5.000000E-01  9.257779E-01  1.105364E-02  0.000000E+00  8.681700E-03 -8.803887E-04  7.568522E-19  2.685821E-01  0.000000E+00
  9.165220E-01  1.095415E-02  5.000000E-01  9.257779E-01  1.105364E-02  0.000000E+00  8.681700E-03 -8.803887E-04  7.568522E-19  2.685821E-01  0.000000E+00
  9.248360E-01  1.010004E-02  5.000000E-01  9.341759E-01  1.019091E-02  0.000000E+00  8.775638E-03 -9.157303E-04 -2.711974E-20  2.630467E-01  0.000000E+00
  9.325990E-01  9.277432E-03  5.000000E-01  9.420173E-01  9.359994E-03  0.000000E+00  8.870653E-03 -9.570353E-04 -7.092096E-19  2.576433E-01  0.000000E+00
  9.398210E-01  8.484514E-03  5.000000E-01  9.493122E-01  8.559067E-03  0.000000E+00  8.975214E-03 -1.005129E-03 -6.613157E-20  2.521556E-01  0.000000E+00
  9.465130E-01  7.720544E-03  5.000000E-01  9.560718E-01  7.787383E-03  0.000000E+00  9.096217E-03 -1.060548E-03  3.485487E-19  2.463906E-01  0.000000E+00
  9.526870E-01  6.985889E-03  5.000000E-01  9.623082E-01  7.045308E-03  0.000000E+00  9.238745E-03 -1.123577E-03  7.523463E-20  2.401499E-01  0.000000E+00
  9.583540E-01  6.282050E-03  5.000000E-01  9.680324E-01  6.334361E-03  0.000000E+00  9.406211E-03 -1.194275E-03 -7.314910E-20  2.332727E-01  0.000000E+00
  9.635240E-01  5.611569E-03  5.000000E-01  9.732546E-01  5.657109E-03  0.000000E+00  9.600944E-03 -1.272362E-03  3.985967E-19  2.256198E-01  0.000000E+00
  9.682080E-01  4.977795E-03  5.000000E-01  9.779859E-01  5.016935E-03  0.000000E+00  9.825911E-03 -1.357753E-03  7.320141E-19  2.171330E-01  0.000000E+00
  9.724140E-01  4.384799E-03  5.000000E-01  9.822344E-01  4.417950E-03  0.000000E+00  1.008721E-02 -1.450681E-03  1.977972E-20  2.078090E-01  0.000000E+00
  9.761510E-01  3.837078E-03  5.000000E-01  9.860091E-01  3.864697E-03  0.000000E+00  1.039440E-02 -1.551340E-03 -7.094206E-19  1.976203E-01  0.000000E+00
  9.794290E-01  3.339292E-03  5.000000E-01  9.893202E-01  3.361884E-03  0.000000E+00  1.075366E-02 -1.660034E-03 -6.883289E-19  1.865850E-01  0.000000E+00
  9.822540E-01  2.896237E-03  5.000000E-01  9.921738E-01  2.914355E-03  0.000000E+00  1.114966E-02 -1.774651E-03 -6.177264E-20  1.749637E-01  0.000000E+00
  9.846330E-01  2.512460E-03  5.000000E-01  9.945768E-01  2.526702E-03  0.000000E+00  1.152664E-02 -1.883614E-03  1.321023E-18  1.640070E-01  0.000000E+00
  9.865710E-01  2.192161E-03  5.000000E-01  9.965343E-01  2.203169E-03  0.000000E+00  1.174959E-02 -1.952113E-03  2.408202E-18  1.525519E-01  0.000000E+00
  9.880740E-01  1.938975E-03  5.000000E-01  9.980525E-01  1.947425E-03  0.000000E+00  1.160112E-02 -1.971707E-03 -2.346672E-18  1.343972E-01  0.000000E+00
  9.891450E-01  1.755894E-03  5.000000E-01  9.991343E-01  1.762496E-03  0.000000E+00  1.176650E-02 -2.103268E-03 -2.594223E-17  1.365475E-01  0.000000E+00
  9.897860E-01  1.645150E-03  5.000000E-01  9.997818E-01  1.650633E-03  0.000000E+00  1.514571E-02 -2.139931E-03 -7.384621E-17  1.849549E-01  0.000000E+00
  9.900000E-01  1.608078E-03  5.000000E-01  9.999980E-01  1.613187E-03  0.000000E+00  1.058259E-02 -4.488219E-03 -7.762175E-17 -5.894016E-02  0.000000E+00
  9.900000E-01  1.686788E-03  5.000000E-01  9.999980E-01  1.692692E-03  0.000000E+00  1.064600E-03 -1.480264E-02  8.047065E-18 -1.973787E-01  0.000000E+00
  9.900000E-01  1.765509E-03  5.000000E-01  9.999980E-01  1.772207E-03  0.000000E+00 -5.283308E-04 -1.377259E-02  8.933836E-17 -2.129022E-02  0.000000E+00
  9.900000E-01  1.844229E-03  5.000000E-01  9.999980E-01  1.851723E-03  0.000000E+00 -3.061264E-04  2.798808E-03  1.032475E-16 -2.615332E-02  0.000000E+00
  9.900000E-01  1.922939E-03  5.000000E-01  9.999980E-01  1.931228E-03  0.000000E+00  7.238276E-04  4.094401E-03  1.312460E-16 -1.463516E-01  0.000000E+00
  9.900000E-01  2.001660E-03  5.000000E-01  9.999980E-01  2.010743E-03  0.000000E+00  6.053467E-03 -2.665906E-03  1.715846E-16 -5.163651E-02  0.000000E+00
  9.900000E-01  2.001660E-03  5.000000E-01  9.999980E-01  2.010743E-03  0.000000E+00  6.053467E-03 -2.665906E-03  1.715846E-16 -5.163651E-02  0.000000E+00
  9.897900E-01  2.048288E-03  5.000000E-01  9.997859E-01  2.057843E-03  0.000000E+00  7.933009E-03 -2.096287E-03  1.242367E-16  9.274213E-02  0.000000E+00
  9.891580E-01  2.188167E-03  5.000000E-01  9.991475E-01  2.199134E-03  0.000000E+00  4.978555E-03 -1.039897E-03  4.212419E-17  5.056337E-02  0.000000E+00
  9.881040E-01  2.421197E-03  5.000000E-01  9.980828E-01  2.434518E-03  0.000000E+00  4.197285E-03 -9.256640E-04  3.939214E-18  4.127421E-02  0.000000E+00
  9.866260E-01  2.747223E-03  5.000000E-01  9.965899E-01  2.763836E-03  0.000000E+00  3.995905E-03 -8.857769E-04 -4.571506E-18  4.325133E-02  0.000000E+00
  9.847200E-01  3.166012E-03  5.000000E-01  9.946647E-01  3.186854E-03  0.000000E+00  3.907803E-03 -8.560160E-04 -3.442697E-18  3.806266E-02  0.000000E+00
  9.823820E-01  3.677193E-03  5.000000E-01  9.923030E-01  3.703198E-03  0.000000E+00  3.956150E-03 -8.618439E-04 -1.850003E-18  3.016151E-02  0.000000E+00
  9.796080E-01  4.280199E-03  5.000000E-01  9.895010E-01  4.312293E-03  0.000000E+00  4.116794E-03 -8.915607E-04 -9.252929E-19  2.147411E-02  0.000000E+00
  9.763910E-01  4.974292E-03  5.000000E-01  9.862515E-01  5.013396E-03  0.000000E+00  4.347016E-03 -9.339953E-04 -1.025736E-18  1.145777E-02  0.000000E+00
  9.727270E-01  5.758323E-03  5.000000E-01  9.825505E-01  5.805345E-03  0.000000E+00  4.618900E-03 -9.831470E-04 -1.304776E-18  1.842598E-05  0.000000E+00
  9.686070E-01  6.630948E-03  5.000000E-01  9.783889E-01  6.686782E-03  0.000000E+00  4.916206E-03 -1.034987E-03 -1.259516E-18 -1.260867E-02  0.000000E+00
  9.640240E-01  7.590301E-03  5.000000E-01  9.737596E-01  7.655824E-03  0.000000E+00  5.230476E-03 -1.087129E-03 -1.109044E-18 -2.628069E-02  0.000000E+00
  9.589680E-01  8.634114E-03  5.000000E-01  9.686526E-01  8.710179E-03  0.000000E+00  5.558499E-03 -1.138408E-03 -6.009403E-19 -4.087193E-02  0.000000E+00
  9.534310E-01  9.759503E-03  5.000000E-01  9.630597E-01  9.846933E-03  0.000000E+00  5.899103E-03 -1.188071E-03 -7.482246E-22 -5.625149E-02  0.000000E+00
  9.474030E-01  1.096303E-02  5.000000E-01  9.569708E-01  1.106261E-02  0.000000E+00  6.250737E-03 -1.235033E-03  6.971965E-20 -7.219236E-02  0.000000E+00
  9.408720E-01  1.224064E-02  5.000000E-01  9.503738E-01  1.235312E-02  0.000000E+00  6.610197E-03 -1.278160E-03 -5.925344E-19 -8.851258E-02  0.000000E+00
  9.338280E-01  1.358756E-02  5.000000E-01  9.432587E-01  1.371365E-02  0.000000E+00  6.973040E-03 -1.316222E-03 -1.350691E-18 -1.050287E-01  0.000000E+00
  9.262600E-01  1.499843E-02  5.000000E-01  9.356143E-01  1.513877E-02  0.000000E+00  7.333625E-03 -1.347605E-03 -8.526632E-19 -1.214577E-01  0.000000E+00
  9.181550E-01  1.646711E-02  5.000000E-01  9.274274E-01  1.662228E-02  0.000000E+00  7.684755E-03 -1.370751E-03 -4.290391E-19 -1.375420E-01  0.000000E+00
  9.095020E-01  1.798702E-02  5.000000E-01  9.186870E-01  1.815754E-02  0.000000E+00  8.017881E-03 -1.384125E-03 -7.124670E-19 -1.528968E-01  0.000000E+00
  9.002880E-01  1.955092E-02  5.000000E-01  9.093800E-01  1.973724E-02  0.000000E+00  8.322565E-03 -1.386408E-03  5.032988E-19 -1.669301E-01  0.000000E+00
  8.905020E-01  2.115147E-02  5.000000E-01  8.994952E-01  2.135394E-02  0.000000E+00  8.586477E-03 -1.377836E-03  7.161921E-19 -1.792299E-01  0.000000E+00
  8.801320E-01  2.278438E-02  5.000000E-01  8.890204E-01  2.300335E-02  0.000000E+00  8.798001E-03 -1.360453E-03  4.170122E-19 -1.897370E-01  0.000000E+00
  8.691700E-01  2.444899E-02  5.000000E-01  8.779477E-01  2.468477E-02  0.000000E+00  8.949081E-03 -1.336474E-03  1.025566E-18 -1.985427E-01  0.000000E+00
  8.691700E-01  2.444899E-02  5.000000E-01  8.779477E-01  2.468477E-02  0.000000E+00  8.949081E-03 -1.336474E-03  1.025566E-18 -1.985427E-01  0.000000E+00
  8.576080E-01  2.614701E-02  5.000000E-01  8.662690E-01  2.639994E-02  0.000000E+00  9.035919E-03 -1.307975E-03  7.495768E-19 -2.057007E-01  0.000000E+00
  8.454380E-01  2.788314E-02  5.000000E-01  8.539761E-01  2.815360E-02  0.000000E+00  9.058669E-03 -1.278086E-03  4.797217E-20 -2.112757E-01  0.000000E+00
  8.326580E-01  2.966639E-02  5.000000E-01  8.410670E-01  2.995486E-02  0.000000E+00  9.022641E-03 -1.251094E-03  4.670101E-19 -2.154214E-01  0.000000E+00
  8.192630E-01  3.151247E-02  5.000000E-01  8.275367E-01  3.181959E-02  0.000000E+00  8.940863E-03 -1.233099E-03  7.765835E-19 -2.187749E-01  0.000000E+00
  8.052550E-01  3.344639E-02  5.000000E-01  8.133872E-01  3.377303E-02  0.000000E+00  8.838114E-03 -1.231868E-03 -1.096984E-19 -2.231848E-01  0.000000E+00
  7.906370E-01  3.550328E-02  5.000000E-01  7.986216E-01  3.585069E-02  0.000000E+00  8.755274E-03 -1.254603E-03 -8.848886E-19 -2.318311E-01  0.000000E+00
  7.754120E-01  3.772363E-02  5.000000E-01  7.832429E-01  3.809347E-02  0.000000E+00  8.749371E-03 -1.304110E-03  3.471457E-19 -2.475673E-01  0.000000E+00
  7.595880E-01  4.013273E-02  5.000000E-01  7.672591E-01  4.052690E-02  0.000000E+00  8.882818E-03 -1.376301E-03  1.225370E-18 -2.712210E-01  0.000000E+00
  7.431760E-01  4.271922E-02  5.000000E-01  7.506813E-01  4.313950E-02  0.000000E+00  9.204417E-03 -1.466103E-03 -7.789021E-19 -3.035343E-01  0.000000E+00
  7.261880E-01  4.545144E-02  5.000000E-01  7.335218E-01  4.589933E-02  0.000000E+00  9.741217E-03 -1.567387E-03 -1.577871E-18 -3.462507E-01  0.000000E+00
  7.086430E-01  4.827290E-02  5.000000E-01  7.157996E-01  4.874927E-02  0.000000E+00  1.049710E-02 -1.663617E-03 -2.172044E-19 -3.991932E-01  0.000000E+00
  6.905640E-01  5.109643E-02  5.000000E-01  6.975380E-01  5.160132E-02  0.000000E+00  1.144046E-02 -1.724102E-03  1.197720E-18 -4.565951E-01  0.000000E+00
  6.719770E-01  5.380549E-02  5.000000E-01  6.787633E-01  5.433774E-02  0.000000E+00  1.248528E-02 -1.710242E-03  1.041767E-18 -5.065256E-01  0.000000E+00
  6.529150E-01  5.626728E-02  5.000000E-01  6.595088E-01  5.682439E-02  0.000000E+00  1.348112E-02 -1.608638E-03 -9.323208E-19 -5.398860E-01  0.000000E+00
  6.334180E-01  5.841621E-02  5.000000E-01  6.398149E-01  5.899502E-02  0.000000E+00  1.426137E-02 -1.454784E-03 -8.826238E-19 -5.582726E-01  0.000000E+00
  6.135280E-01  6.028825E-02  5.000000E-01  6.197240E-01  6.088596E-02  0.000000E+00  1.473943E-02 -1.290133E-03  3.492449E-20 -5.665843E-01  0.000000E+00
  5.932910E-01  6.192905E-02  5.000000E-01  5.992826E-01  6.254334E-02  0.000000E+00  1.493162E-02 -1.134049E-03  3.953208E-19 -5.678749E-01  0.000000E+00
  5.727570E-01  6.338345E-02  5.000000E-01  5.785413E-01  6.401243E-02  0.000000E+00  1.491183E-02 -9.983925E-04  7.592115E-19 -5.652705E-01  0.000000E+00
  5.519810E-01  6.469341E-02  5.000000E-01  5.575554E-01  6.533562E-02  0.000000E+00  1.477237E-02 -8.895277E-04  6.067260E-19 -5.613587E-01  0.000000E+00
  5.310180E-01  6.589585E-02  5.000000E-01  5.363807E-01  6.655020E-02  0.000000E+00  1.459436E-02 -8.096447E-04  5.889878E-19 -5.589272E-01  0.000000E+00
  5.099250E-01  6.702494E-02  5.000000E-01  5.150747E-01  6.769069E-02  0.000000E+00  1.443829E-02 -7.596156E-04  6.276967E-19 -5.616784E-01  0.000000E+00
  4.887640E-01  6.811747E-02  5.000000E-01  4.937000E-01  6.879425E-02  0.000000E+00  1.435422E-02 -7.299977E-04  6.664284E-19 -5.712180E-01  0.000000E+00
  4.675910E-01  6.917824E-02  5.000000E-01  4.723132E-01  6.986573E-02  0.000000E+00  1.437861E-02 -7.029472E-04  4.316011E-19 -5.863004E-01  0.000000E+00
  7.860720E-05 -1.273978E-03  5.000000E-01  7.940613E-05 -1.297975E-03  0.000000E+00  4.202774E-04 -1.838777E-03  1.538922E-17  1.058742E+00  0.000000E+00
  3.989240E-04 -2.803737E-03  5.000000E-01  4.029578E-04 -2.843183E-03  0.000000E+00  2.231726E-03 -6.292315E-03  7.502604E-18  1.052664E+00  0.000000E+00
  1.196920E-03 -4.688487E-03  5.000000E-01  1.209013E-03 -4.746967E-03  0.000000E+00  5.599345E-03 -9.733935E-03  1.415695E-18  9.522993E-01  0.000000E+00
  2.563580E-03 -6.671328E-03  5.000000E-01  2.589475E-03 -6.749833E-03  0.000000E+00  9.656525E-03 -1.139252E-02 -9.489747E-19  7.684806E-01  0.000000E+00
  4.492740E-03 -8.606207E-03  5.000000E-01  4.538117E-03 -8.704252E-03  0.000000E+00  1.341361E-02 -1.152185E-02 -1.429227E-19  5.584862E-01  0.000000E+00
  6.952190E-03 -1.044098E-02  5.000000E-01  7.022405E-03 -1.055755E-02  0.000000E+00  1.651403E-02 -1.093839E-02 -8.221014E-19  3.714547E-01  0.000000E+00
  9.910730E-03 -1.218739E-02  5.000000E-01  1.001082E-02 -1.232160E-02  0.000000E+00  1.913098E-02 -1.025814E-02 -4.169982E-18  2.211468E-01  0.000000E+00
  1.334950E-02 -1.386776E-02  5.000000E-01  1.348432E-02 -1.401894E-02  0.000000E+00  2.132679E-02 -9.313598E-03 -7.131081E-18  7.758474E-02  0.000000E+00
  1.728780E-02 -1.540511E-02  5.000000E-01  1.746239E-02 -1.557182E-02  0.000000E+00  2.268414E-02 -7.629825E-03 -7.730655E-18 -7.959918E-02  0.000000E+00
  2.175590E-02 -1.667556E-02  5.000000E-01  2.197562E-02 -1.685510E-02  0.000000E+00  2.277355E-02 -5.360830E-03 -6.457796E-18 -2.121861E-01  0.000000E+00
  2.676920E-02 -1.759973E-02  5.000000E-01  2.703955E-02 -1.778860E-02  0.000000E+00  2.172004E-02 -3.149426E-03 -3.519864E-18 -2.728897E-01  0.000000E+00
  3.232800E-02 -1.816729E-02  5.000000E-01  3.265448E-02 -1.836189E-02  0.000000E+00  2.006197E-02 -1.450451E-03 -1.312666E-18 -2.581886E-01  0.000000E+00
  3.842930E-02 -1.840924E-02  5.000000E-01  3.881740E-02 -1.860629E-02  0.000000E+00  1.829195E-02 -3.303058E-04 -1.552172E-18 -1.998532E-01  0.000000E+00
  4.507220E-02 -1.837324E-02  5.000000E-01  4.552739E-02 -1.856992E-02  0.000000E+00  1.670272E-02  3.160034E-04 -2.147276E-18 -1.282321E-01  0.000000E+00
  5.225680E-02 -1.813241E-02  5.000000E-01  5.278454E-02 -1.832666E-02  0.000000E+00  1.542461E-02  6.303101E-04 -1.685890E-18 -6.013920E-02  0.000000E+00
  5.998640E-02 -1.775735E-02  5.000000E-01  6.059221E-02 -1.794781E-02  0.000000E+00  1.442608E-02  7.741188E-04 -7.755437E-19 -6.851112E-03  0.000000E+00
  6.827110E-02 -1.726957E-02  5.000000E-01  6.896057E-02 -1.745511E-02  0.000000E+00  1.359951E-02  8.538840E-04 -8.464135E-21  3.068001E-02  0.000000E+00
  7.712280E-02 -1.667662E-02  5.000000E-01  7.790167E-02 -1.685617E-02  0.000000E+00  1.287537E-02  8.946348E-04  5.617879E-19  6.146360E-02  0.000000E+00
  8.655260E-02 -1.599518E-02  5.000000E-01  8.742670E-02 -1.616785E-02  0.000000E+00  1.222659E-02  9.009263E-04  1.671103E-19  9.106714E-02  0.000000E+00
  9.657140E-02 -1.524211E-02  5.000000E-01  9.754668E-02 -1.540717E-02  0.000000E+00  1.163644E-02  8.857765E-04 -1.395163E-19  1.186351E-01  0.000000E+00
  1.071900E-01 -1.442386E-02  5.000000E-01  1.082725E-01 -1.458066E-02  0.000000E+00  1.110871E-02  8.542138E-04  1.539604E-19  1.437790E-01  0.000000E+00
  1.184180E-01 -1.356167E-02  5.000000E-01  1.196139E-01 -1.370976E-02  0.000000E+00  1.068511E-02  7.970711E-04  1.346537E-19  1.683818E-01  0.000000E+00
  1.302610E-01 -1.270429E-02  5.000000E-01  1.315765E-01 -1.284372E-02  0.000000E+00  1.041908E-02  7.091383E-04 -2.533641E-19  1.916446E-01  0.000000E+00
  1.427230E-01 -1.191104E-02  5.000000E-01  1.441644E-01 -1.204246E-02  0.000000E+00  1.034035E-02  5.930243E-04 -4.131034E-19  2.102082E-01  0.000000E+00
  1.427230E-01 -1.191104E-02  5.000000E-01  1.441644E-01 -1.204246E-02  0.000000E+00  1.034035E-02  5.930243E-04 -4.131034E-19  2.102082E-01  0.000000E+00
  1.558070E-01 -1.124355E-02  5.000000E-01  1.573805E-01 -1.136822E-02  0.000000E+00  1.043540E-02  4.572530E-04 -7.201314E-20  2.207363E-01  0.000000E+00
  1.695140E-01 -1.074099E-02  5.000000E-01  1.712259E-01 -1.086059E-02  0.000000E+00  1.064471E-02  3.177984E-04 -1.929086E-19  2.215270E-01  0.000000E+00
  1.838420E-01 -1.040881E-02  5.000000E-01  1.856986E-01 -1.052506E-02  0.000000E+00  1.087852E-02  1.997439E-04 -5.288415E-19  2.136967E-01  0.000000E+00
  1.987870E-01 -1.020602E-02  5.000000E-01  2.007945E-01 -1.032022E-02  0.000000E+00  1.103855E-02  1.399836E-04 -3.965610E-19  1.989690E-01  0.000000E+00
  2.143420E-01 -1.002474E-02  5.000000E-01  2.165066E-01 -1.013711E-02  0.000000E+00  1.106306E-02  1.497788E-04 -4.892362E-19  1.818268E-01  0.000000E+00
  2.304940E-01 -9.772689E-03  5.000000E-01  2.328218E-01 -9.882514E-03  0.000000E+00  1.098348E-02  1.733809E-04 -3.697563E-19  1.729790E-01  0.000000E+00
  2.472290E-01 -9.500814E-03  5.000000E-01  2.497258E-01 -9.607894E-03  0.000000E+00  1.089068E-02  1.571539E-04  2.059064E-19  1.750520E-01  0.000000E+00
  2.645310E-01 -9.283687E-03  5.000000E-01  2.672025E-01 -9.388573E-03  0.000000E+00  1.086373E-02  1.039730E-04  2.237817E-19  1.783068E-01  0.000000E+00
  2.823750E-01 -9.168502E-03  5.000000E-01  2.852267E-01 -9.272225E-03  0.000000E+00  1.096420E-02  3.146618E-05  1.555615E-19  1.754812E-01  0.000000E+00
  3.007320E-01 -9.181385E-03  5.000000E-01  3.037691E-01 -9.285239E-03  0.000000E+00  1.124742E-02 -5.783756E-05 -2.012735E-19  1.658088E-01  0.000000E+00
  3.195690E-01 -9.357368E-03  5.000000E-01  3.227963E-01 -9.462999E-03  0.000000E+00  1.174836E-02 -1.728401E-04 -5.627998E-19  1.505309E-01  0.000000E+00
  3.388440E-01 -9.738338E-03  5.000000E-01  3.422660E-01 -9.847817E-03  0.000000E+00  1.243478E-02 -2.917284E-04 -2.246148E-19  1.264928E-01  0.000000E+00
  3.585140E-01 -1.027141E-02  5.000000E-01  3.621346E-01 -1.038627E-02  0.000000E+00  1.317753E-02 -3.444895E-04 -2.824205E-19  8.837794E-02  0.000000E+00
  3.785290E-01 -1.077924E-02  5.000000E-01  3.823518E-01 -1.089923E-02  0.000000E+00  1.378584E-02 -2.678318E-04 -5.412888E-19  3.986392E-02  0.000000E+00
  3.988350E-01 -1.105665E-02  5.000000E-01  4.028628E-01 -1.117944E-02  0.000000E+00  1.406200E-02 -3.777746E-05 -4.392744E-19 -7.376001E-03  0.000000E+00
  4.193750E-01 -1.088710E-02  5.000000E-01  4.236103E-01 -1.100818E-02  0.000000E+00  1.385334E-02  3.380102E-04  7.142134E-20 -4.352314E-02  0.000000E+00
  4.400850E-01 -1.003739E-02  5.000000E-01  4.445294E-01 -1.014989E-02  0.000000E+00  1.313305E-02  7.871220E-04  5.541251E-19 -5.983747E-02  0.000000E+00
  4.609060E-01 -8.360913E-03  5.000000E-01  4.655607E-01 -8.456481E-03  0.000000E+00  1.206668E-02  1.150878E-03  1.433054E-18 -4.284822E-02  0.000000E+00
  4.818030E-01 -6.015912E-03  5.000000E-01  4.866687E-01 -6.087797E-03  0.000000E+00  1.090040E-02  1.317399E-03  2.690226E-19  8.013784E-03  0.000000E+00
  5.027520E-01 -3.283178E-03  5.000000E-01  5.078293E-01 -3.327466E-03  0.000000E+00  9.774598E-03  1.318939E-03 -4.245587E-18  7.066580E-02  0.000000E+00
  5.237130E-01 -3.593385E-04  5.000000E-01  5.290020E-01 -3.740986E-04  0.000000E+00  8.699601E-03  1.246691E-03 -7.339258E-18  1.239638E-01  0.000000E+00
  5.446170E-01  2.717750E-03  5.000000E-01  5.501171E-01  2.734065E-03  0.000000E+00  7.649419E-03  1.156991E-03 -2.759718E-18  1.651221E-01  0.000000E+00
  5.653940E-01  5.960340E-03  5.000000E-01  5.711039E-01  6.009402E-03  0.000000E+00  6.652176E-03  1.049797E-03  8.803107E-19  2.058535E-01  0.000000E+00
  4.675910E-01  6.917824E-02  5.000000E-01  4.723132E-01  6.986573E-02  0.000000E+00  1.437861E-02 -7.029472E-04  4.316011E-19 -5.863004E-01  0.000000E+00
  4.464640E-01  7.018550E-02  5.000000E-01  4.509728E-01  7.088317E-02  0.000000E+00  1.452010E-02 -6.723489E-04 -1.879171E-19 -6.069301E-01  0.000000E+00
  4.254410E-01  7.112984E-02  5.000000E-01  4.297375E-01  7.183704E-02  0.000000E+00  1.477439E-02 -6.347788E-04 -1.230540E-19 -6.329540E-01  0.000000E+00
  4.045840E-01  7.198615E-02  5.000000E-01  4.086699E-01  7.270200E-02  0.000000E+00  1.513426E-02 -5.816798E-04  3.772073E-19 -6.626700E-01  0.000000E+00
  3.839530E-01  7.272661E-02  5.000000E-01  3.878305E-01  7.344994E-02  0.000000E+00  1.558574E-02 -5.086278E-04 -2.351996E-21 -6.948945E-01  0.000000E+00
  3.636060E-01  7.332662E-02  5.000000E-01  3.672780E-01  7.405601E-02  0.000000E+00  1.611492E-02 -4.136064E-04 -3.325980E-19 -7.291444E-01  0.000000E+00
  3.435960E-01  7.376636E-02  5.000000E-01  3.470660E-01  7.450019E-02  0.000000E+00  1.671300E-02 -2.945294E-04 -7.729966E-20 -7.657895E-01  0.000000E+00
  3.239710E-01  7.402934E-02  5.000000E-01  3.272428E-01  7.476583E-02  0.000000E+00  1.737864E-02 -1.473068E-04  2.213560E-19 -8.055739E-01  0.000000E+00
  3.047740E-01  7.410050E-02  5.000000E-01  3.078519E-01  7.483770E-02  0.000000E+00  1.811585E-02  3.917912E-05  6.080776E-20 -8.477218E-01  0.000000E+00
  2.860450E-01  7.395444E-02  5.000000E-01  2.889338E-01  7.469017E-02  0.000000E+00  1.891782E-02  2.810582E-04 -3.338084E-20 -8.892578E-01  0.000000E+00
  2.678190E-01  7.356033E-02  5.000000E-01  2.705237E-01  7.429209E-02  0.000000E+00  1.974585E-02  5.851429E-04 -4.619624E-19 -9.267448E-01  0.000000E+00
  2.501300E-01  7.289971E-02  5.000000E-01  2.526561E-01  7.362479E-02  0.000000E+00  2.053169E-02  9.440102E-04 -1.150479E-18 -9.563739E-01  0.000000E+00
  2.330040E-01  7.196976E-02  5.000000E-01  2.353571E-01  7.268544E-02  0.000000E+00  2.119673E-02  1.343007E-03 -1.432319E-18 -9.725715E-01  0.000000E+00
  2.164660E-01  7.077812E-02  5.000000E-01  2.186521E-01  7.148177E-02  0.000000E+00  2.166407E-02  1.758235E-03 -1.109546E-18 -9.700489E-01  0.000000E+00
  2.005340E-01  6.934422E-02  5.000000E-01  2.025592E-01  7.003339E-02  0.000000E+00  2.186601E-02  2.131160E-03 -2.696620E-19 -9.516965E-01  0.000000E+00
  1.852230E-01  6.773805E-02  5.000000E-01  1.870936E-01  6.841100E-02  0.000000E+00  2.180151E-02  2.400608E-03  4.377618E-19 -9.288431E-01  0.000000E+00
  1.705440E-01  6.604445E-02  5.000000E-01  1.722663E-01  6.670030E-02  0.000000E+00  2.158179E-02  2.568687E-03  1.079290E-19 -9.137408E-01  0.000000E+00
  1.565000E-01  6.431984E-02  5.000000E-01  1.580805E-01  6.495827E-02  0.000000E+00  2.138149E-02  2.682990E-03 -3.163606E-19 -9.184030E-01  0.000000E+00
  1.430940E-01  6.259815E-02  5.000000E-01  1.445391E-01  6.321919E-02  0.000000E+00  2.138928E-02  2.815227E-03  1.882002E-19 -9.494510E-01  0.000000E+00
  1.303270E-01  6.087528E-02  5.000000E-01  1.316432E-01  6.147893E-02  0.000000E+00  2.176801E-02  3.069494E-03 -7.385294E-19 -9.980707E-01  0.000000E+00
  1.182110E-01  5.909603E-02  5.000000E-01  1.194048E-01  5.968171E-02  0.000000E+00  2.255182E-02  3.522852E-03 -1.682646E-18 -1.045098E+00  0.000000E+00
  1.067560E-01  5.720768E-02  5.000000E-01  1.078341E-01  5.777429E-02  0.000000E+00  2.359006E-02  4.179553E-03 -1.873214E-18 -1.074757E+00  0.000000E+00
  9.596750E-02  5.517186E-02  5.000000E-01  9.693668E-02  5.571791E-02  0.000000E+00  2.460585E-02  4.928428E-03 -1.371325E-18 -1.092373E+00  0.000000E+00
  8.582800E-02  5.302478E-02  5.000000E-01  8.669478E-02  5.354915E-02  0.000000E+00  2.542627E-02  5.635238E-03 -4.667541E-19 -1.119444E+00  0.000000E+00
  8.582800E-02  5.302478E-02  5.000000E-01  8.669478E-02  5.354915E-02  0.000000E+00  2.542627E-02  5.635238E-03 -4.667541E-19 -1.119444E+00  0.000000E+00
  7.631050E-02  5.082139E-02  5.000000E-01  7.708116E-02  5.132351E-02  0.000000E+00  2.617300E-02  6.382303E-03  1.537345E-20 -1.159254E+00  0.000000E+00
  6.740780E-02  4.854427E-02  5.000000E-01  6.808855E-02  4.902339E-02  0.000000E+00  2.704197E-02  7.358502E-03  1.315113E-18 -1.196941E+00  0.000000E+00
  5.911740E-02  4.615843E-02  5.000000E-01  5.971443E-02  4.661345E-02  0.000000E+00  2.804318E-02  8.626799E-03  1.554707E-18 -1.220806E+00  0.000000E+00
  5.143150E-02  4.364764E-02  5.000000E-01  5.195091E-02  4.407730E-02  0.000000E+00  2.901965E-02  1.014717E-02  1.262959E-18 -1.225330E+00  0.000000E+00
  4.433770E-02  4.100927E-02  5.000000E-01  4.478547E-02  4.141229E-02  0.000000E+00  2.975482E-02  1.184968E-02  5.297308E-20 -1.209280E+00  0.000000E+00
  3.782240E-02  3.824604E-02  5.000000E-01  3.820437E-02  3.862115E-02  0.000000E+00  3.006482E-02  1.367297E-02 -1.759756E-18 -1.172316E+00  0.000000E+00
  3.187460E-02  3.535795E-02  5.000000E-01  3.219651E-02  3.570390E-02  0.000000E+00  2.983779E-02  1.556209E-02 -1.798924E-18 -1.110480E+00  0.000000E+00
  2.648400E-02  3.234879E-02  5.000000E-01  2.675147E-02  3.266435E-02  0.000000E+00  2.901630E-02  1.751046E-02 -7.216380E-19 -1.006156E+00  0.000000E+00
  2.164990E-02  2.920762E-02  5.000000E-01  2.186855E-02  2.949145E-02  0.000000E+00  2.748952E-02  1.944355E-02 -1.871699E-18 -8.333625E-01  0.000000E+00
  1.737670E-02  2.592551E-02  5.000000E-01  1.755219E-02  2.617620E-02  0.000000E+00  2.511997E-02  2.085938E-02 -4.659690E-18 -5.997338E-01  0.000000E+00
  1.364080E-02  2.256217E-02  5.000000E-01  1.377856E-02  2.277889E-02  0.000000E+00  2.207161E-02  2.113348E-02 -7.295497E-18 -3.561482E-01  0.000000E+00
  1.039090E-02  1.923085E-02  5.000000E-01  1.049584E-02  1.941393E-02  0.000000E+00  1.881878E-02  2.031577E-02 -1.017087E-17 -1.437888E-01  0.000000E+00
  7.586340E-03  1.602056E-02  5.000000E-01  7.662959E-03  1.617122E-02  0.000000E+00  1.572445E-02  1.910381E-02 -1.052482E-17  4.224603E-02  0.000000E+00
  5.226210E-03  1.295525E-02  5.000000E-01  5.278994E-03  1.307495E-02  0.000000E+00  1.287251E-02  1.805214E-02 -8.361193E-18  2.246315E-01  0.000000E+00
  3.324300E-03  1.004601E-02  5.000000E-01  3.357877E-03  1.013633E-02  0.000000E+00  1.020791E-02  1.718256E-02 -1.041899E-17  4.089293E-01  0.000000E+00
  1.883580E-03  7.336760E-03  5.000000E-01  1.902607E-03  7.399723E-03  0.000000E+00  7.642822E-03  1.624002E-02 -1.599516E-17  5.901142E-01  0.000000E+00
  8.951490E-04  4.900275E-03  5.000000E-01  9.041942E-04  4.938632E-03  0.000000E+00  5.151588E-03  1.488984E-02 -1.441705E-17  7.583788E-01  0.000000E+00
  3.201820E-04  2.843020E-03  5.000000E-01  3.234206E-04  2.860601E-03  0.000000E+00  2.896342E-03  1.278823E-02 -7.818628E-18  8.978967E-01  0.000000E+00
  6.852390E-05  1.287308E-03  5.000000E-01  6.922100E-05  1.289177E-03  0.000000E+00  1.219388E-03  9.779797E-03 -6.668761E-19  9.884330E-01  0.000000E+00
  4.217600E-06  3.313230E-04  5.000000E-01  4.265277E-06  3.235379E-04  0.000000E+00  2.940703E-04  6.475889E-03  8.390725E-18  1.003140E+00  0.000000E+00
 -5.032520E-09  1.101988E-05  5.000000E-01  0.000000E+00  0.000000E+00  0.000000E+00 -6.051159E-05  4.274445E-03  1.730592E-17  9.846517E-01  0.000000E+00
  5.154440E-06 -3.117898E-04  5.000000E-01  5.211578E-06 -3.260697E-04  0.000000E+00 -8.372727E-05  2.061195E-03  2.057457E-17  1.011655E+00  0.000000E+00