 Title = "ADflow Slice Data"
Variables =  "CoordinateX"  "CoordinateY"  "CoordinateZ"  "XoC"  "YoC"  "ZoC" "VelocityX" "VelocityY" "VelocityZ" "CoefPressure" "Mach" 
Zone T= "Slice_0001 None Absolute Regular z = 0.50000000"
 Nodes =          192  Elements=          184  ZONETYPE=FELINESEG
 DATAPACKING=POINT
  5.653940E-01  2.436897E-02  5.000000E-01  5.711042E-01  2.439193E-02  0.000000E+00 -6.053523E-04 -3.911746E-05  2.042769E-17  3.408696E-01  0.000000E+00
  5.859770E-01  2.519758E-02  5.000000E-01  5.918950E-01  2.522891E-02  0.000000E+00 -5.760731E-05 -4.840642E-06 -3.117885E-19  3.598320E-01  0.000000E+00
  6.063060E-01  2.550594E-02  5.000000E-01  6.124293E-01  2.554039E-02  0.000000E+00  5.298104E-04  9.934206E-07  2.477109E-17  3.694660E-01  0.000000E+00
  6.263240E-01  2.546608E-02  5.000000E-01  6.326495E-01  2.550012E-02  0.000000E+00  1.124270E-03 -9.878662E-06  3.594835E-17  3.711952E-01  0.000000E+00
  6.459860E-01  2.521360E-02  5.000000E-01  6.525101E-01  2.524509E-02  0.000000E+00  1.697190E-03 -2.571944E-05  2.151495E-17  3.667768E-01  0.000000E+00
  6.652460E-01  2.488447E-02  5.000000E-01  6.719646E-01  2.491263E-02  0.000000E+00  2.223213E-03 -3.802639E-05  5.021669E-17  3.582912E-01  0.000000E+00
  6.840650E-01  2.456569E-02  5.000000E-01  6.909737E-01  2.459064E-02  0.000000E+00  2.686531E-03 -4.718041E-05  3.175240E-17  3.501147E-01  0.000000E+00
  7.024070E-01  2.423863E-02  5.000000E-01  7.095009E-01  2.426028E-02  0.000000E+00  3.084738E-03 -5.977860E-05 -1.517300E-17  3.446538E-01  0.000000E+00
  7.202400E-01  2.386884E-02  5.000000E-01  7.275140E-01  2.388675E-02  0.000000E+00  3.424620E-03 -7.991958E-05 -2.358581E-17  3.409299E-01  0.000000E+00
  7.375350E-01  2.342352E-02  5.000000E-01  7.449837E-01  2.343693E-02  0.000000E+00  3.718945E-03 -1.088074E-04 -2.091365E-17  3.376834E-01  0.000000E+00
  7.542690E-01  2.287904E-02  5.000000E-01  7.618867E-01  2.288695E-02  0.000000E+00  3.985273E-03 -1.465184E-04 -2.538149E-17  3.342255E-01  0.000000E+00
  7.704220E-01  2.222107E-02  5.000000E-01  7.782028E-01  2.222233E-02  0.000000E+00  4.243096E-03 -1.930181E-04 -2.328792E-17  3.302109E-01  0.000000E+00
  7.859770E-01  2.144387E-02  5.000000E-01  7.939149E-01  2.143729E-02  0.000000E+00  4.509800E-03 -2.495248E-04  1.405257E-17  3.253890E-01  0.000000E+00
  8.009220E-01  2.054194E-02  5.000000E-01  8.090108E-01  2.052625E-02  0.000000E+00  4.797077E-03 -3.166221E-04  2.736399E-17  3.194941E-01  0.000000E+00
  8.152480E-01  1.951995E-02  5.000000E-01  8.234815E-01  1.949393E-02  0.000000E+00  5.107228E-03 -3.896981E-04 -9.175045E-18  3.117182E-01  0.000000E+00
  8.289490E-01  1.840985E-02  5.000000E-01  8.373209E-01  1.837262E-02  0.000000E+00  5.432994E-03 -4.614014E-04 -3.695614E-18  3.016911E-01  0.000000E+00
  8.420260E-01  1.725119E-02  5.000000E-01  8.505300E-01  1.720226E-02  0.000000E+00  5.762372E-03 -5.270979E-04  1.656177E-17  2.902198E-01  0.000000E+00
  8.544790E-01  1.607851E-02  5.000000E-01  8.631087E-01  1.601774E-02  0.000000E+00  6.082532E-03 -5.843681E-04  1.780078E-17  2.782260E-01  0.000000E+00
  8.663160E-01  1.491995E-02  5.000000E-01  8.750653E-01  1.484748E-02  0.000000E+00  6.381256E-03 -6.313754E-04  1.038164E-17  2.662913E-01  0.000000E+00
  8.775420E-01  1.379784E-02  5.000000E-01  8.864047E-01  1.371403E-02  0.000000E+00  6.647982E-03 -6.666036E-04  7.890420E-18  2.548188E-01  0.000000E+00
  8.881660E-01  1.272927E-02  5.000000E-01  8.971360E-01  1.263468E-02  0.000000E+00  6.874983E-03 -6.891998E-04  3.184433E-17  2.440783E-01  0.000000E+00
  8.981970E-01  1.172685E-02  5.000000E-01  9.072683E-01  1.162214E-02  0.000000E+00  7.059475E-03 -7.011940E-04  1.836961E-17  2.344676E-01  0.000000E+00
  9.076460E-01  1.079416E-02  5.000000E-01  9.168127E-01  1.068003E-02  0.000000E+00  7.206131E-03 -7.089346E-04 -3.993375E-17  2.265767E-01  0.000000E+00
  9.165220E-01  9.924054E-03  5.000000E-01  9.257783E-01  9.801128E-03  0.000000E+00  7.325262E-03 -7.184499E-04 -5.977552E-17  2.203433E-01  0.000000E+00
  9.165220E-01  9.924054E-03  5.000000E-01  9.257783E-01  9.801128E-03  0.000000E+00  7.325262E-03 -7.184499E-04 -5.977552E-17  2.203433E-01  0.000000E+00
  9.248360E-01  9.108139E-03  5.000000E-01  9.341763E-01  8.976973E-03  0.000000E+00  7.427670E-03 -7.321317E-04 -9.061559E-18  2.150466E-01  0.000000E+00
  9.325990E-01  8.339560E-03  5.000000E-01  9.420177E-01  8.200632E-03  0.000000E+00  7.522509E-03 -7.509688E-04  4.622592E-17  2.102169E-01  0.000000E+00
  9.398210E-01  7.612702E-03  5.000000E-01  9.493126E-01  7.466433E-03  0.000000E+00  7.617550E-03 -7.757305E-04  3.801602E-17  2.056401E-01  0.000000E+00
  9.465130E-01  6.923358E-03  5.000000E-01  9.560722E-01  6.770127E-03  0.000000E+00  7.719149E-03 -8.068410E-04  2.797352E-17  2.011192E-01  0.000000E+00
  9.526870E-01  6.268784E-03  5.000000E-01  9.623086E-01  6.108943E-03  0.000000E+00  7.832066E-03 -8.444449E-04  1.898723E-17  1.964615E-01  0.000000E+00
  9.583540E-01  5.647728E-03  5.000000E-01  9.680328E-01  5.481614E-03  0.000000E+00  7.959721E-03 -8.884751E-04 -1.829555E-17  1.915125E-01  0.000000E+00
  9.635240E-01  5.060306E-03  5.000000E-01  9.732550E-01  4.888259E-03  0.000000E+00  8.104880E-03 -9.386022E-04 -2.633301E-17  1.861346E-01  0.000000E+00
  9.682080E-01  4.507803E-03  5.000000E-01  9.779863E-01  4.330176E-03  0.000000E+00  8.271268E-03 -9.947025E-04 -3.880174E-17  1.802565E-01  0.000000E+00
  9.724140E-01  3.992499E-03  5.000000E-01  9.822348E-01  3.809668E-03  0.000000E+00  8.465520E-03 -1.056915E-03 -5.659367E-17  1.738552E-01  0.000000E+00
  9.761510E-01  3.517417E-03  5.000000E-01  9.860096E-01  3.329789E-03  0.000000E+00  8.696429E-03 -1.125213E-03 -5.559864E-17  1.668765E-01  0.000000E+00
  9.794290E-01  3.086043E-03  5.000000E-01  9.893207E-01  2.894057E-03  0.000000E+00  8.967513E-03 -1.199444E-03 -3.847368E-17  1.592898E-01  0.000000E+00
  9.822540E-01  2.702168E-03  5.000000E-01  9.921742E-01  2.506306E-03  0.000000E+00  9.262011E-03 -1.277566E-03 -6.184376E-18  1.513178E-01  0.000000E+00
  9.846330E-01  2.369576E-03  5.000000E-01  9.945772E-01  2.170355E-03  0.000000E+00  9.531527E-03 -1.350314E-03  5.831357E-17  1.440612E-01  0.000000E+00
  9.865710E-01  2.091857E-03  5.000000E-01  9.965348E-01  1.889830E-03  0.000000E+00  9.666055E-03 -1.391008E-03  1.128201E-16  1.361741E-01  0.000000E+00
  9.880740E-01  1.872220E-03  5.000000E-01  9.980530E-01  1.667976E-03  0.000000E+00  9.486837E-03 -1.400221E-03  2.749453E-17  1.218992E-01  0.000000E+00
  9.891450E-01  1.713321E-03  5.000000E-01  9.991348E-01  1.507472E-03  0.000000E+00  9.595936E-03 -1.503756E-03 -2.624818E-16  1.261177E-01  0.000000E+00
  9.897860E-01  1.617157E-03  5.000000E-01  9.997823E-01  1.410337E-03  0.000000E+00  1.247520E-02 -1.453778E-03 -5.374942E-16  1.710624E-01  0.000000E+00
  9.900000E-01  1.584971E-03  5.000000E-01  9.999984E-01  1.377825E-03  0.000000E+00  8.820480E-03 -3.693986E-03 -3.904645E-16 -3.441550E-02  0.000000E+00
  9.900000E-01  1.663681E-03  5.000000E-01  9.999984E-01  1.457331E-03  0.000000E+00  9.113237E-04 -1.281964E-02 -1.296782E-16 -1.508345E-01  0.000000E+00
  9.900000E-01  1.742401E-03  5.000000E-01  9.999984E-01  1.536846E-03  0.000000E+00 -4.634470E-04 -1.204455E-02  2.653643E-16  9.458076E-04  0.000000E+00
  9.900000E-01  1.821122E-03  5.000000E-01  9.999984E-01  1.616361E-03  0.000000E+00 -2.643445E-04  1.984848E-03  9.773140E-16 -2.907953E-03  0.000000E+00
  9.900000E-01  1.899832E-03  5.000000E-01  9.999984E-01  1.695867E-03  0.000000E+00  6.256157E-04  3.215159E-03  1.462175E-15 -1.053741E-01  0.000000E+00
  9.900000E-01  1.978553E-03  5.000000E-01  9.999984E-01  1.775382E-03  0.000000E+00  5.021317E-03 -2.220826E-03  1.345455E-15 -2.217943E-02  0.000000E+00
  9.900000E-01  1.978553E-03  5.000000E-01  9.999984E-01  1.775382E-03  0.000000E+00  5.021317E-03 -2.220826E-03  1.345455E-15 -2.217943E-02  0.000000E+00
  9.897900E-01  2.020348E-03  5.000000E-01  9.997863E-01  1.817599E-03  0.000000E+00  6.437748E-03 -1.577884E-03  6.751969E-16  1.015879E-01  0.000000E+00
  9.891580E-01  2.145720E-03  5.000000E-01  9.991479E-01  1.944238E-03  0.000000E+00  3.907676E-03 -7.207104E-04  3.448124E-17  6.309554E-02  0.000000E+00
  9.881040E-01  2.354691E-03  5.000000E-01  9.980833E-01  2.155319E-03  0.000000E+00  3.271523E-03 -6.461325E-04 -1.962839E-16  5.460806E-02  0.000000E+00
  9.866260E-01  2.647262E-03  5.000000E-01  9.965903E-01  2.450845E-03  0.000000E+00  3.101040E-03 -6.185392E-04 -1.653620E-16  5.806599E-02  0.000000E+00
  9.847200E-01  3.023408E-03  5.000000E-01  9.946651E-01  2.830789E-03  0.000000E+00  2.984082E-03 -5.875386E-04 -3.523704E-18  5.559515E-02  0.000000E+00
  9.823820E-01  3.483060E-03  5.000000E-01  9.923035E-01  3.295084E-03  0.000000E+00  2.958580E-03 -5.798344E-04  9.282870E-17  5.079287E-02  0.000000E+00
  9.796080E-01  4.026073E-03  5.000000E-01  9.895015E-01  3.843581E-03  0.000000E+00  3.016484E-03 -5.888097E-04  4.139195E-17  4.566409E-02  0.000000E+00
  9.763910E-01  4.652199E-03  5.000000E-01  9.862520E-01  4.476030E-03  0.000000E+00  3.126157E-03 -6.066257E-04 -2.177216E-17  3.979678E-02  0.000000E+00
  9.727270E-01  5.360993E-03  5.000000E-01  9.825510E-01  5.191983E-03  0.000000E+00  3.265463E-03 -6.292125E-04 -4.481716E-17  3.304216E-02  0.000000E+00
  9.686070E-01  6.151901E-03  5.000000E-01  9.783894E-01  5.990879E-03  0.000000E+00  3.420512E-03 -6.537287E-04 -2.193758E-17  2.556654E-02  0.000000E+00
  9.640240E-01  7.024109E-03  5.000000E-01  9.737601E-01  6.871895E-03  0.000000E+00  3.582949E-03 -6.783593E-04 -1.364465E-17  1.747684E-02  0.000000E+00
  9.589680E-01  7.976611E-03  5.000000E-01  9.686530E-01  7.834018E-03  0.000000E+00  3.748679E-03 -7.022222E-04 -2.658009E-17  8.856389E-03  0.000000E+00
  9.534310E-01  9.008146E-03  5.000000E-01  9.630601E-01  8.875971E-03  0.000000E+00  3.915769E-03 -7.248833E-04 -1.639652E-17 -2.140344E-04  0.000000E+00
  9.474030E-01  1.011725E-02  5.000000E-01  9.569712E-01  9.996275E-03  0.000000E+00  4.082468E-03 -7.458449E-04  1.213275E-17 -9.583066E-03  0.000000E+00
  9.408720E-01  1.130229E-02  5.000000E-01  9.503743E-01  1.119328E-02  0.000000E+00  4.246075E-03 -7.646539E-04  1.074518E-17 -1.914734E-02  0.000000E+00
  9.338280E-01  1.256151E-02  5.000000E-01  9.432591E-01  1.246522E-02  0.000000E+00  4.403091E-03 -7.808421E-04  8.087536E-18 -2.881296E-02  0.000000E+00
  9.262600E-01  1.389320E-02  5.000000E-01  9.356147E-01  1.381036E-02  0.000000E+00  4.549198E-03 -7.937555E-04 -7.450229E-18 -3.841850E-02  0.000000E+00
  9.181550E-01  1.529569E-02  5.000000E-01  9.274278E-01  1.522701E-02  0.000000E+00  4.679248E-03 -8.028026E-04 -5.723240E-18 -4.785341E-02  0.000000E+00
  9.095020E-01  1.676774E-02  5.000000E-01  9.186874E-01  1.671393E-02  0.000000E+00  4.787733E-03 -8.074732E-04  5.862024E-18 -5.696210E-02  0.000000E+00
  9.002880E-01  1.830855E-02  5.000000E-01  9.093804E-01  1.827030E-02  0.000000E+00  4.868770E-03 -8.074548E-04 -9.676543E-18 -6.548906E-02  0.000000E+00
  8.905020E-01  1.991828E-02  5.000000E-01  8.994956E-01  1.989629E-02  0.000000E+00  4.916608E-03 -8.033179E-04  1.766455E-18 -7.334013E-02  0.000000E+00
  8.801320E-01  2.160130E-02  5.000000E-01  8.890208E-01  2.159630E-02  0.000000E+00  4.927570E-03 -7.966193E-04  1.539757E-17 -8.066527E-02  0.000000E+00
  8.691700E-01  2.336651E-02  5.000000E-01  8.779481E-01  2.337934E-02  0.000000E+00  4.901817E-03 -7.888633E-04  3.207234E-17 -8.777501E-02  0.000000E+00
  8.691700E-01  2.336651E-02  5.000000E-01  8.779481E-01  2.337934E-02  0.000000E+00  4.901817E-03 -7.888633E-04  3.207234E-17 -8.777501E-02  0.000000E+00
  8.576080E-01  2.522599E-02  5.000000E-01  8.662693E-01  2.525761E-02  0.000000E+00  4.843622E-03 -7.812480E-04  1.369167E-17 -9.498185E-02  0.000000E+00
  8.454380E-01  2.719492E-02  5.000000E-01  8.539764E-01  2.724642E-02  0.000000E+00  4.760002E-03 -7.753260E-04  1.184644E-18 -1.025391E-01  0.000000E+00
  8.326580E-01  2.929134E-02  5.000000E-01  8.410674E-01  2.936401E-02  0.000000E+00  4.659329E-03 -7.724572E-04  2.565655E-17 -1.110523E-01  0.000000E+00
  8.192630E-01  3.153584E-02  5.000000E-01  8.275371E-01  3.163118E-02  0.000000E+00  4.551142E-03 -7.734078E-04  2.078718E-17 -1.217558E-01  0.000000E+00
  8.052550E-01  3.394877E-02  5.000000E-01  8.133876E-01  3.406848E-02  0.000000E+00  4.445168E-03 -7.772875E-04  2.290775E-17 -1.356942E-01  0.000000E+00
  7.906370E-01  3.654283E-02  5.000000E-01  7.986220E-01  3.668874E-02  0.000000E+00  4.346098E-03 -7.798511E-04  2.464847E-17 -1.520956E-01  0.000000E+00
  7.754120E-01  3.930764E-02  5.000000E-01  7.832432E-01  3.948147E-02  0.000000E+00  4.246505E-03 -7.769378E-04  1.933638E-17 -1.691213E-01  0.000000E+00
  7.595880E-01  4.222598E-02  5.000000E-01  7.672594E-01  4.242928E-02  0.000000E+00  4.130769E-03 -7.699854E-04  1.308765E-17 -1.871417E-01  0.000000E+00
  7.431760E-01  4.531762E-02  5.000000E-01  7.506816E-01  4.555215E-02  0.000000E+00  3.992505E-03 -7.634644E-04  1.051019E-17 -2.076420E-01  0.000000E+00
  7.261880E-01  4.861683E-02  5.000000E-01  7.335221E-01  4.888468E-02  0.000000E+00  3.846232E-03 -7.621729E-04  1.213998E-17 -2.312134E-01  0.000000E+00
  7.086430E-01  5.216880E-02  5.000000E-01  7.157999E-01  5.247252E-02  0.000000E+00  3.731979E-03 -7.752505E-04  4.267077E-18 -2.590061E-01  0.000000E+00
  6.905640E-01  5.602881E-02  5.000000E-01  6.975383E-01  5.637152E-02  0.000000E+00  3.724049E-03 -8.213819E-04  2.168162E-18 -2.949695E-01  0.000000E+00
  6.719770E-01  6.026054E-02  5.000000E-01  6.787636E-01  6.064599E-02  0.000000E+00  3.943321E-03 -9.332155E-04 -3.077516E-17 -3.484905E-01  0.000000E+00
  6.529150E-01  6.492883E-02  5.000000E-01  6.595091E-01  6.536142E-02  0.000000E+00  4.565895E-03 -1.150558E-03 -5.703677E-17 -4.319775E-01  0.000000E+00
  6.334180E-01  6.995820E-02  5.000000E-01  6.398152E-01  7.044158E-02  0.000000E+00  5.814081E-03 -1.498285E-03 -2.998158E-17 -5.596236E-01  0.000000E+00
  6.135280E-01  7.506213E-02  5.000000E-01  6.197243E-01  7.559706E-02  0.000000E+00  7.945805E-03 -1.963363E-03 -2.744791E-17 -7.497689E-01  0.000000E+00
  5.932910E-01  7.989146E-02  5.000000E-01  5.992829E-01  8.047516E-02  0.000000E+00  1.122916E-02 -2.446565E-03  4.791350E-18 -1.001261E+00  0.000000E+00
  5.727570E-01  8.404857E-02  5.000000E-01  5.785415E-01  8.467426E-02  0.000000E+00  1.574934E-02 -2.670395E-03  3.573301E-17 -1.259518E+00  0.000000E+00
  5.519810E-01  8.709397E-02  5.000000E-01  5.575557E-01  8.775042E-02  0.000000E+00  2.103230E-02 -2.203103E-03  2.330176E-17 -1.433547E+00  0.000000E+00
  5.310180E-01  8.863371E-02  5.000000E-01  5.363810E-01  8.930570E-02  0.000000E+00  2.574268E-02 -8.984486E-04  3.010212E-17 -1.473590E+00  0.000000E+00
  5.099250E-01  8.867912E-02  5.000000E-01  5.150749E-01  8.935158E-02  0.000000E+00  2.838106E-02  8.386180E-04  2.221671E-17 -1.394362E+00  0.000000E+00
  4.887640E-01  8.741282E-02  5.000000E-01  4.937002E-01  8.807248E-02  0.000000E+00  2.836982E-02  2.432551E-03 -3.906496E-18 -1.229655E+00  0.000000E+00
  4.675910E-01  8.502142E-02  5.000000E-01  4.723134E-01  8.565694E-02  0.000000E+00  2.610150E-02  3.494445E-03  4.230464E-18 -1.010079E+00  0.000000E+00
  7.860720E-05 -2.000078E-04  5.000000E-01  7.940617E-05 -4.251805E-04  0.000000E+00  8.752323E-03 -1.706878E-02  2.426334E-15  9.773872E-01  0.000000E+00
  3.989240E-04 -6.586839E-04  5.000000E-01  4.029580E-04 -8.884890E-04  0.000000E+00  1.719924E-02 -1.633208E-02  7.846112E-16  7.325486E-01  0.000000E+00
  1.196920E-03 -1.160947E-03  5.000000E-01  1.209013E-03 -1.395825E-03  0.000000E+00  1.956117E-02 -9.725724E-03  5.333354E-16  4.619077E-01  0.000000E+00
  2.563580E-03 -1.628470E-03  5.000000E-01  2.589476E-03 -1.868069E-03  0.000000E+00  1.699054E-02 -4.843569E-03  5.394358E-16  3.636880E-01  0.000000E+00
  4.492740E-03 -2.041316E-03  5.000000E-01  4.538119E-03 -2.285084E-03  0.000000E+00  1.443920E-02 -2.654520E-03  2.995470E-16  3.655887E-01  0.000000E+00
  6.952190E-03 -2.413650E-03  5.000000E-01  7.022408E-03 -2.661179E-03  0.000000E+00  1.328046E-02 -1.826126E-03  1.760852E-17  3.781804E-01  0.000000E+00
  9.910730E-03 -2.779861E-03  5.000000E-01  1.001083E-02 -3.031089E-03  0.000000E+00  1.313081E-02 -1.567481E-03 -1.247869E-16  3.765837E-01  0.000000E+00
  1.334950E-02 -3.175941E-03  5.000000E-01  1.348433E-02 -3.431169E-03  0.000000E+00  1.342943E-02 -1.476807E-03 -1.319349E-16  3.582192E-01  0.000000E+00
  1.728780E-02 -3.590472E-03  5.000000E-01  1.746240E-02 -3.849887E-03  0.000000E+00  1.373016E-02 -1.321884E-03 -9.486505E-17  3.256198E-01  0.000000E+00
  2.175590E-02 -3.981038E-03  5.000000E-01  2.197563E-02 -4.244396E-03  0.000000E+00  1.380127E-02 -1.062268E-03 -4.053756E-17  2.931660E-01  0.000000E+00
  2.676920E-02 -4.312769E-03  5.000000E-01  2.703956E-02 -4.579478E-03  0.000000E+00  1.363406E-02 -7.741461E-04  2.086147E-17  2.736458E-01  0.000000E+00
  3.232800E-02 -4.574058E-03  5.000000E-01  3.265450E-02 -4.843406E-03  0.000000E+00  1.332378E-02 -5.277447E-04  3.177875E-17  2.681515E-01  0.000000E+00
  3.842930E-02 -4.769613E-03  5.000000E-01  3.881742E-02 -5.040936E-03  0.000000E+00  1.296318E-02 -3.481101E-04  3.041098E-17  2.705654E-01  0.000000E+00
  4.507220E-02 -4.912842E-03  5.000000E-01  4.552741E-02 -5.185612E-03  0.000000E+00  1.262468E-02 -2.453130E-04  2.276710E-17  2.766995E-01  0.000000E+00
  5.225680E-02 -5.036214E-03  5.000000E-01  5.278457E-02 -5.310230E-03  0.000000E+00  1.236275E-02 -2.190664E-04  2.271797E-17  2.845827E-01  0.000000E+00
  5.998640E-02 -5.177913E-03  5.000000E-01  6.059223E-02 -5.453360E-03  0.000000E+00  1.218135E-02 -2.350833E-04  3.398262E-17  2.893523E-01  0.000000E+00
  6.827110E-02 -5.347194E-03  5.000000E-01  6.896060E-02 -5.624350E-03  0.000000E+00  1.203941E-02 -2.553798E-04  2.294527E-17  2.884559E-01  0.000000E+00
  7.712280E-02 -5.541916E-03  5.000000E-01  7.790170E-02 -5.821039E-03  0.000000E+00  1.189716E-02 -2.717630E-04 -2.192885E-17  2.853888E-01  0.000000E+00
  8.655260E-02 -5.764658E-03  5.000000E-01  8.742674E-02 -6.046031E-03  0.000000E+00  1.172775E-02 -2.857543E-04 -7.207474E-17  2.833001E-01  0.000000E+00
  9.657140E-02 -6.016529E-03  5.000000E-01  9.754672E-02 -6.300446E-03  0.000000E+00  1.150446E-02 -2.909845E-04 -6.998305E-17  2.820555E-01  0.000000E+00
  1.071900E-01 -6.287327E-03  5.000000E-01  1.082726E-01 -6.573978E-03  0.000000E+00  1.121008E-02 -2.887599E-04 -2.761550E-17  2.821340E-01  0.000000E+00
  1.184180E-01 -6.578916E-03  5.000000E-01  1.196140E-01 -6.868512E-03  0.000000E+00  1.085658E-02 -2.988326E-04  5.400831E-18  2.859458E-01  0.000000E+00
  1.302610E-01 -6.923180E-03  5.000000E-01  1.315766E-01 -7.216253E-03  0.000000E+00  1.047936E-02 -3.409937E-04  2.906211E-17  2.935849E-01  0.000000E+00
  1.427230E-01 -7.373263E-03  5.000000E-01  1.441644E-01 -7.670881E-03  0.000000E+00  1.012567E-02 -4.253761E-04  2.417875E-17  3.024934E-01  0.000000E+00
  1.427230E-01 -7.373263E-03  5.000000E-01  1.441644E-01 -7.670881E-03  0.000000E+00  1.012567E-02 -4.253761E-04  2.417875E-17  3.024934E-01  0.000000E+00
  1.558070E-01 -8.002586E-03  5.000000E-01  1.573806E-01 -8.306560E-03  0.000000E+00  9.856651E-03 -5.546576E-04  9.420749E-18  3.093611E-01  0.000000E+00
  1.695140E-01 -8.888539E-03  5.000000E-01  1.712260E-01 -9.201460E-03  0.000000E+00  9.760754E-03 -7.337032E-04 -3.749412E-18  3.110529E-01  0.000000E+00
  1.838420E-01 -1.011591E-02  5.000000E-01  1.856987E-01 -1.044123E-02  0.000000E+00  9.971182E-03 -9.878560E-04 -4.468876E-17  3.050620E-01  0.000000E+00
  1.987870E-01 -1.178769E-02  5.000000E-01  2.007946E-01 -1.212989E-02  0.000000E+00  1.066812E-02 -1.373241E-03 -4.047348E-17  2.882014E-01  0.000000E+00
  2.143420E-01 -1.402697E-02  5.000000E-01  2.165067E-01 -1.439179E-02  0.000000E+00  1.204605E-02 -1.960487E-03 -9.670062E-18  2.539313E-01  0.000000E+00
  2.304940E-01 -1.691813E-02  5.000000E-01  2.328219E-01 -1.731214E-02  0.000000E+00  1.423449E-02 -2.773569E-03 -2.517407E-17  1.899998E-01  0.000000E+00
  2.472290E-01 -2.040098E-02  5.000000E-01  2.497259E-01 -2.083017E-02  0.000000E+00  1.717886E-02 -3.722428E-03 -2.468444E-17  8.561590E-02  0.000000E+00
  2.645310E-01 -2.427421E-02  5.000000E-01  2.672026E-01 -2.474252E-02  0.000000E+00  2.045060E-02 -4.483221E-03  1.475319E-17 -6.465638E-02  0.000000E+00
  2.823750E-01 -2.811947E-02  5.000000E-01  2.852268E-01 -2.862662E-02  0.000000E+00  2.304572E-02 -4.443088E-03  2.456546E-17 -2.587236E-01  0.000000E+00
  3.007320E-01 -3.128156E-02  5.000000E-01  3.037692E-01 -3.182064E-02  0.000000E+00  2.345318E-02 -3.055963E-03  3.427218E-17 -4.748963E-01  0.000000E+00
  3.195690E-01 -3.291949E-02  5.000000E-01  3.227965E-01 -3.347511E-02  0.000000E+00  2.042423E-02 -6.278176E-04  5.245328E-17 -6.603393E-01  0.000000E+00
  3.388440E-01 -3.211826E-02  5.000000E-01  3.422661E-01 -3.266579E-02  0.000000E+00  1.452171E-02  1.330999E-03  4.763780E-17 -7.091026E-01  0.000000E+00
  3.585140E-01 -2.863932E-02  5.000000E-01  3.621348E-01 -2.915171E-02  0.000000E+00  8.203375E-03  1.715382E-03  1.139347E-17 -5.503003E-01  0.000000E+00
  3.785290E-01 -2.303266E-02  5.000000E-01  3.823519E-01 -2.348843E-02  0.000000E+00  3.477585E-03  1.039525E-03 -3.023550E-17 -2.718267E-01  0.000000E+00
  3.988350E-01 -1.597740E-02  5.000000E-01  4.028630E-01 -1.636191E-02  0.000000E+00  6.692604E-04  2.385561E-04 -4.698806E-17 -2.482463E-02  0.000000E+00
  4.193750E-01 -8.232705E-03  5.000000E-01  4.236104E-01 -8.539003E-03  0.000000E+00 -7.685833E-04 -2.811588E-04 -4.842528E-17  1.224426E-01  0.000000E+00
  4.400850E-01 -5.973419E-04  5.000000E-01  4.445296E-01 -8.265275E-04  0.000000E+00 -1.441404E-03 -4.989948E-04 -2.141166E-17  1.869944E-01  0.000000E+00
  4.609060E-01  6.235178E-03  5.000000E-01  4.655609E-01  6.074997E-03  0.000000E+00 -1.721370E-03 -5.230695E-04 -4.294382E-18  2.118727E-01  0.000000E+00
  4.818030E-01  1.207173E-02  5.000000E-01  4.866689E-01  1.197050E-02  0.000000E+00 -1.780821E-03 -4.512267E-04  1.801913E-17  2.291832E-01  0.000000E+00
  5.027520E-01  1.679129E-02  5.000000E-01  5.078295E-01  1.673772E-02  0.000000E+00 -1.683574E-03 -3.351129E-04  5.036746E-17  2.529799E-01  0.000000E+00
  5.237130E-01  2.033970E-02  5.000000E-01  5.290022E-01  2.032196E-02  0.000000E+00 -1.445670E-03 -2.116352E-04  3.646252E-17  2.831851E-01  0.000000E+00
  5.446170E-01  2.281145E-02  5.000000E-01  5.501173E-01  2.281868E-02  0.000000E+00 -1.078576E-03 -1.086091E-04  2.243623E-17  3.141477E-01  0.000000E+00
  5.653940E-01  2.436897E-02  5.000000E-01  5.711042E-01  2.439193E-02  0.000000E+00 -6.053523E-04 -3.911746E-05  2.042769E-17  3.408696E-01  0.000000E+00
  4.675910E-01  8.502142E-02  5.000000E-01  4.723134E-01  8.565694E-02  0.000000E+00  2.610150E-02  3.494445E-03  4.230464E-18 -1.010079E+00  0.000000E+00
  4.464640E-01  8.169480E-02  5.000000E-01  4.509730E-01  8.229672E-02  0.000000E+00  2.238852E-02  3.868369E-03  3.224715E-17 -7.619456E-01  0.000000E+00
  4.254410E-01  7.767369E-02  5.000000E-01  4.297377E-01  7.823500E-02  0.000000E+00  1.798173E-02  3.538844E-03 -4.983171E-18 -5.188296E-01  0.000000E+00
  4.045840E-01  7.341372E-02  5.000000E-01  4.086701E-01  7.393200E-02  0.000000E+00  1.346898E-02  2.676630E-03 -3.447188E-17 -3.132165E-01  0.000000E+00
  3.839530E-01  6.946922E-02  5.000000E-01  3.878307E-01  6.994766E-02  0.000000E+00  9.326483E-03  1.644272E-03 -7.368662E-18 -1.594407E-01  0.000000E+00
  3.636060E-01  6.634449E-02  5.000000E-01  3.672782E-01  6.679138E-02  0.000000E+00  5.862252E-03  7.671377E-04 -7.283718E-18 -6.558481E-02  0.000000E+00
  3.435960E-01  6.448819E-02  5.000000E-01  3.470661E-01  6.491633E-02  0.000000E+00  3.224697E-03  2.092057E-04 -5.068909E-18 -4.337881E-02  0.000000E+00
  3.239710E-01  6.428348E-02  5.000000E-01  3.272429E-01  6.470955E-02  0.000000E+00  1.505936E-03 -2.115167E-05  5.323104E-17 -9.241518E-02  0.000000E+00
  3.047740E-01  6.570863E-02  5.000000E-01  3.078520E-01  6.614909E-02  0.000000E+00  7.982938E-04 -7.665733E-05  5.929688E-17 -1.926206E-01  0.000000E+00
  2.860450E-01  6.811430E-02  5.000000E-01  2.889339E-01  6.857907E-02  0.000000E+00  1.185813E-03 -1.704895E-04  2.415012E-17 -3.305871E-01  0.000000E+00
  2.678190E-01  7.084893E-02  5.000000E-01  2.705238E-01  7.134131E-02  0.000000E+00  2.764839E-03 -4.052404E-04  1.643789E-17 -5.085273E-01  0.000000E+00
  2.501300E-01  7.340200E-02  5.000000E-01  2.526562E-01  7.392017E-02  0.000000E+00  5.640064E-03 -7.202427E-04  4.139870E-18 -7.284610E-01  0.000000E+00
  2.330040E-01  7.542813E-02  5.000000E-01  2.353572E-01  7.596675E-02  0.000000E+00  9.821574E-03 -9.210239E-04 -9.893897E-19 -9.828030E-01  0.000000E+00
  2.164660E-01  7.672529E-02  5.000000E-01  2.186522E-01  7.727702E-02  0.000000E+00  1.505633E-02 -7.458149E-04 -4.806220E-18 -1.245320E+00  0.000000E+00
  2.005340E-01  7.720095E-02  5.000000E-01  2.025593E-01  7.775748E-02  0.000000E+00  2.072358E-02  3.448719E-05 -8.864446E-18 -1.470387E+00  0.000000E+00
  1.852230E-01  7.681659E-02  5.000000E-01  1.870936E-01  7.736924E-02  0.000000E+00  2.593829E-02  1.457581E-03  1.107649E-17 -1.616475E+00  0.000000E+00
  1.705440E-01  7.561781E-02  5.000000E-01  1.722664E-01  7.615835E-02  0.000000E+00  2.986549E-02  3.281150E-03  9.644037E-18 -1.672912E+00  0.000000E+00
  1.565000E-01  7.371919E-02  5.000000E-01  1.580806E-01  7.424056E-02  0.000000E+00  3.210916E-02  5.137981E-03 -3.433611E-17 -1.657533E+00  0.000000E+00
  1.430940E-01  7.125317E-02  5.000000E-01  1.445392E-01  7.174964E-02  0.000000E+00  3.284978E-02  6.793120E-03 -2.577887E-17 -1.593985E+00  0.000000E+00
  1.303270E-01  6.832116E-02  5.000000E-01  1.316432E-01  6.878801E-02  0.000000E+00  3.260220E-02  8.242599E-03  1.418997E-17 -1.492944E+00  0.000000E+00
  1.182110E-01  6.497292E-02  5.000000E-01  1.194049E-01  6.540595E-02  0.000000E+00  3.181669E-02  9.540198E-03  7.399793E-18 -1.357139E+00  0.000000E+00
  1.067560E-01  6.126267E-02  5.000000E-01  1.078342E-01  6.165823E-02  0.000000E+00  3.069816E-02  1.065461E-02  5.291369E-18 -1.193360E+00  0.000000E+00
  9.596750E-02  5.725844E-02  5.000000E-01  9.693672E-02  5.761357E-02  0.000000E+00  2.928813E-02  1.144283E-02  2.359832E-17 -1.021542E+00  0.000000E+00
  8.582800E-02  5.308536E-02  5.000000E-01  8.669482E-02  5.339834E-02  0.000000E+00  2.765160E-02  1.180707E-02  1.223633E-17 -8.652531E-01  0.000000E+00
  8.582800E-02  5.308536E-02  5.000000E-01  8.669482E-02  5.339834E-02  0.000000E+00  2.765160E-02  1.180707E-02  1.223633E-17 -8.652531E-01  0.000000E+00
  7.631050E-02  4.886384E-02  5.000000E-01  7.708120E-02  4.913418E-02  0.000000E+00  2.597314E-02  1.190500E-02 -1.518352E-17 -7.271676E-01  0.000000E+00
  6.740780E-02  4.464377E-02  5.000000E-01  6.808858E-02  4.487149E-02  0.000000E+00  2.440589E-02  1.193424E-02  1.357607E-18 -5.983750E-01  0.000000E+00
  5.911740E-02  4.045858E-02  5.000000E-01  5.971446E-02  4.064404E-02  0.000000E+00  2.298156E-02  1.193247E-02  3.972547E-17 -4.757046E-01  0.000000E+00
  5.143150E-02  3.635082E-02  5.000000E-01  5.195093E-02  3.649479E-02  0.000000E+00  2.167029E-02  1.187145E-02  2.242248E-17 -3.592895E-01  0.000000E+00
  4.433770E-02  3.236440E-02  5.000000E-01  4.478549E-02  3.246811E-02  0.000000E+00  2.043339E-02  1.173435E-02 -1.523034E-17 -2.497871E-01  0.000000E+00
  3.782240E-02  2.853793E-02  5.000000E-01  3.820439E-02  2.860299E-02  0.000000E+00  1.924461E-02  1.152781E-02 -2.453640E-17 -1.481972E-01  0.000000E+00
  3.187460E-02  2.490071E-02  5.000000E-01  3.219652E-02  2.492904E-02  0.000000E+00  1.809567E-02  1.127267E-02 -1.774060E-17 -5.575755E-02  0.000000E+00
  2.648400E-02  2.147653E-02  5.000000E-01  2.675148E-02  2.147028E-02  0.000000E+00  1.699073E-02  1.101318E-02 -7.742108E-18  3.076769E-02  0.000000E+00
  2.164990E-02  1.827733E-02  5.000000E-01  2.186856E-02  1.823877E-02  0.000000E+00  1.592359E-02  1.078910E-02  5.308820E-18  1.207879E-01  0.000000E+00
  1.737670E-02  1.531171E-02  5.000000E-01  1.755220E-02  1.524319E-02  0.000000E+00  1.487796E-02  1.054955E-02  1.125209E-17  2.171060E-01  0.000000E+00
  1.364080E-02  1.260234E-02  5.000000E-01  1.377857E-02  1.250647E-02  0.000000E+00  1.388124E-02  1.021212E-02  8.448393E-18  3.100098E-01  0.000000E+00
  1.039090E-02  1.017381E-02  5.000000E-01  1.049585E-02  1.005341E-02  0.000000E+00  1.302761E-02  9.836059E-03  5.160688E-17  3.902229E-01  0.000000E+00
  7.586340E-03  8.032868E-03  5.000000E-01  7.662963E-03  7.890843E-03  0.000000E+00  1.240772E-02  9.638778E-03  3.910412E-17  4.607792E-01  0.000000E+00
  5.226210E-03  6.166930E-03  5.000000E-01  5.278997E-03  6.006059E-03  0.000000E+00  1.201626E-02  9.818981E-03 -3.257060E-17  5.308562E-01  0.000000E+00
  3.324300E-03  4.561007E-03  5.000000E-01  3.357879E-03  4.383918E-03  0.000000E+00  1.169529E-02  1.042327E-02 -4.828484E-17  6.070622E-01  0.000000E+00
  1.883580E-03  3.207756E-03  5.000000E-01  1.902608E-03  3.017000E-03  0.000000E+00  1.100596E-02  1.127182E-02  1.140413E-16  7.012703E-01  0.000000E+00
  8.951490E-04  2.105906E-03  5.000000E-01  9.041946E-04  1.904022E-03  0.000000E+00  9.084918E-03  1.152780E-02  7.256262E-16  8.290380E-01  0.000000E+00
  3.201820E-04  1.259461E-03  5.000000E-01  3.234207E-04  1.049028E-03  0.000000E+00  5.290456E-03  9.000660E-03  2.094022E-15  9.745899E-01  0.000000E+00
  6.852390E-05  6.704910E-04  5.000000E-01  6.922103E-05  4.541098E-04  0.000000E+00  1.136596E-03  1.354858E-03  4.266498E-15  1.050552E+00  0.000000E+00
  4.217600E-06  3.308113E-04  5.000000E-01  4.265279E-06  1.109995E-04  0.000000E+00 -7.071196E-04 -7.803248E-03  6.543573E-15  9.789029E-01  0.000000E+00
 -5.032520E-09  2.209216E-04  5.000000E-01  0.000000E+00  0.000000E+00  0.000000E+00 -4.163141E-04 -9.573577E-03  7.296997E-15  9.022393E-01  0.000000E+00
  5.154440E-06  1.121991E-04  5.000000E-01  5.211580E-06 -1.098205E-04  0.000000E+00  1.773074E-03 -1.100087E-02  5.387414E-15  9.716708E-01  0.000000E+00