 Title = "ADflow Slice Data"
Variables =  "CoordinateX"  "CoordinateY"  "CoordinateZ"  "XoC"  "YoC"  "ZoC" "VelocityX" "VelocityY" "VelocityZ" "CoefPressure" "Mach" 
Zone T= "Slice_0001 None Absolute Regular z = 0.50000000"
 Nodes =          192  Elements=          184  ZONETYPE=FELINESEG
 DATAPACKING=POINT
  5.653940E-01 -2.450595E-03  5.000000E-01  5.711040E-01 -2.545715E-03  0.000000E+00  9.878352E-03  5.289404E-04  5.957592E-19  1.488164E-01  0.000000E+00
  5.859770E-01 -1.281803E-03  5.000000E-01  5.918948E-01 -1.365119E-03  0.000000E+00  9.677168E-03  5.824377E-04  5.762070E-19  1.505770E-01  0.000000E+00
  6.063060E-01  1.348521E-05  5.000000E-01  6.124291E-01 -5.674929E-05  0.000000E+00  9.413085E-03  6.271482E-04 -1.753931E-19  1.599962E-01  0.000000E+00
  6.263240E-01  1.407037E-03  5.000000E-01  6.326493E-01  1.350876E-03  0.000000E+00  9.121120E-03  6.479929E-04 -1.056671E-18  1.743020E-01  0.000000E+00
  6.459860E-01  2.833122E-03  5.000000E-01  6.525099E-01  2.791363E-03  0.000000E+00  8.828978E-03  6.403336E-04 -4.663843E-19  1.909711E-01  0.000000E+00
  6.652460E-01  4.229404E-03  5.000000E-01  6.719644E-01  4.201747E-03  0.000000E+00  8.538426E-03  6.162405E-04  1.012367E-19  2.069049E-01  0.000000E+00
  6.840650E-01  5.579001E-03  5.000000E-01  6.909734E-01  5.564973E-03  0.000000E+00  8.225396E-03  5.950124E-04 -6.129940E-20  2.198645E-01  0.000000E+00
  7.024070E-01  6.916754E-03  5.000000E-01  7.095007E-01  6.916237E-03  0.000000E+00  7.866849E-03  5.804551E-04 -1.134154E-19  2.319718E-01  0.000000E+00
  7.202400E-01  8.250356E-03  5.000000E-01  7.275138E-01  8.263306E-03  0.000000E+00  7.462842E-03  5.606015E-04 -4.621085E-19  2.472116E-01  0.000000E+00
  7.375350E-01  9.557010E-03  5.000000E-01  7.449834E-01  9.583157E-03  0.000000E+00  7.033371E-03  5.270101E-04 -1.487962E-18  2.661335E-01  0.000000E+00
  7.542690E-01  1.080004E-02  5.000000E-01  7.618864E-01  1.083874E-02  0.000000E+00  6.610669E-03  4.792478E-04 -2.279790E-18  2.868593E-01  0.000000E+00
  7.704220E-01  1.193911E-02  5.000000E-01  7.782026E-01  1.198931E-02  0.000000E+00  6.232870E-03  4.204393E-04 -9.240790E-19  3.070257E-01  0.000000E+00
  7.859770E-01  1.293770E-02  5.000000E-01  7.939147E-01  1.299799E-02  0.000000E+00  5.943873E-03  3.458434E-04 -5.487373E-19  3.262713E-01  0.000000E+00
  8.009220E-01  1.371655E-02  5.000000E-01  8.090106E-01  1.378471E-02  0.000000E+00  5.786545E-03  2.468884E-04 -6.920726E-19  3.447289E-01  0.000000E+00
  8.152480E-01  1.418992E-02  5.000000E-01  8.234813E-01  1.426285E-02  0.000000E+00  5.775905E-03  1.309737E-04  6.424476E-21  3.580997E-01  0.000000E+00
  8.289490E-01  1.435678E-02  5.000000E-01  8.373206E-01  1.443140E-02  0.000000E+00  5.891022E-03  1.336148E-05  1.654264E-19  3.628412E-01  0.000000E+00
  8.420260E-01  1.425993E-02  5.000000E-01  8.505297E-01  1.433357E-02  0.000000E+00  6.096389E-03 -9.902514E-05  4.076065E-20  3.609277E-01  0.000000E+00
  8.544790E-01  1.395264E-02  5.000000E-01  8.631085E-01  1.402318E-02  0.000000E+00  6.357661E-03 -2.043270E-04  1.489583E-19  3.554110E-01  0.000000E+00
  8.663160E-01  1.348807E-02  5.000000E-01  8.750650E-01  1.355392E-02  0.000000E+00  6.644430E-03 -3.012393E-04  1.817963E-19  3.478619E-01  0.000000E+00
  8.775420E-01  1.291373E-02  5.000000E-01  8.864044E-01  1.297377E-02  0.000000E+00  6.930630E-03 -3.878023E-04 -6.536580E-20  3.390346E-01  0.000000E+00
  8.881660E-01  1.227027E-02  5.000000E-01  8.971357E-01  1.232382E-02  0.000000E+00  7.196551E-03 -4.620154E-04 -3.903984E-19  3.295561E-01  0.000000E+00
  8.981970E-01  1.159103E-02  5.000000E-01  9.072680E-01  1.163772E-02  0.000000E+00  7.431793E-03 -5.249838E-04 -1.994296E-19  3.202150E-01  0.000000E+00
  9.076460E-01  1.089700E-02  5.000000E-01  9.168124E-01  1.093668E-02  0.000000E+00  7.637523E-03 -5.826900E-04  3.203203E-19  3.119182E-01  0.000000E+00
  9.165220E-01  1.019546E-02  5.000000E-01  9.257780E-01  1.022806E-02  0.000000E+00  7.822834E-03 -6.407638E-04  5.491875E-19  3.046991E-01  0.000000E+00
  9.165220E-01  1.019546E-02  5.000000E-01  9.257780E-01  1.022806E-02  0.000000E+00  7.822834E-03 -6.407638E-04  5.491875E-19  3.046991E-01  0.000000E+00
  9.248360E-01  9.490997E-03  5.000000E-01  9.341760E-01  9.516477E-03  0.000000E+00  7.997674E-03 -7.010230E-04  3.996972E-19  2.977808E-01  0.000000E+00
  9.325990E-01  8.788233E-03  5.000000E-01  9.420174E-01  8.806616E-03  0.000000E+00  8.170322E-03 -7.642000E-04  7.756330E-20  2.907326E-01  0.000000E+00
  9.398210E-01  8.091468E-03  5.000000E-01  9.493123E-01  8.102814E-03  0.000000E+00  8.348014E-03 -8.311931E-04 -1.136655E-19  2.834708E-01  0.000000E+00
  9.465130E-01  7.404925E-03  5.000000E-01  9.560719E-01  7.409337E-03  0.000000E+00  8.537001E-03 -9.028071E-04 -9.419229E-20  2.758912E-01  0.000000E+00
  9.526870E-01  6.732920E-03  5.000000E-01  9.623083E-01  6.730546E-03  0.000000E+00  8.742188E-03 -9.796822E-04  1.733440E-19  2.678514E-01  0.000000E+00
  9.583540E-01  6.080036E-03  5.000000E-01  9.680325E-01  6.071068E-03  0.000000E+00  8.967182E-03 -1.062264E-03  9.991730E-20  2.592254E-01  0.000000E+00
  9.635240E-01  5.451180E-03  5.000000E-01  9.732547E-01  5.435862E-03  0.000000E+00  9.214806E-03 -1.150659E-03 -2.395969E-19  2.498947E-01  0.000000E+00
  9.682080E-01  4.851532E-03  5.000000E-01  9.779860E-01  4.830157E-03  0.000000E+00  9.488748E-03 -1.245131E-03 -3.074413E-19  2.398078E-01  0.000000E+00
  9.724140E-01  4.286542E-03  5.000000E-01  9.822345E-01  4.259461E-03  0.000000E+00  9.795961E-03 -1.346208E-03 -8.021933E-19  2.289608E-01  0.000000E+00
  9.761510E-01  3.761777E-03  5.000000E-01  9.860092E-01  3.729397E-03  0.000000E+00  1.014689E-02 -1.454334E-03 -2.283674E-18  2.173234E-01  0.000000E+00
  9.794290E-01  3.282732E-03  5.000000E-01  9.893203E-01  3.245514E-03  0.000000E+00  1.054859E-02 -1.570017E-03 -3.036389E-18  2.049067E-01  0.000000E+00
  9.822540E-01  2.854834E-03  5.000000E-01  9.921739E-01  2.813294E-03  0.000000E+00  1.098653E-02 -1.691413E-03  1.270946E-20  1.919616E-01  0.000000E+00
  9.846330E-01  2.483132E-03  5.000000E-01  9.945769E-01  2.437839E-03  0.000000E+00  1.140589E-02 -1.807406E-03  7.329595E-18  1.797368E-01  0.000000E+00
  9.865710E-01  2.172218E-03  5.000000E-01  9.965345E-01  2.123784E-03  0.000000E+00  1.167298E-02 -1.883964E-03  1.081802E-17  1.670967E-01  0.000000E+00
  9.880740E-01  1.926032E-03  5.000000E-01  9.980527E-01  1.875113E-03  0.000000E+00  1.157005E-02 -1.913190E-03 -2.660481E-18  1.478107E-01  0.000000E+00
  9.891450E-01  1.747795E-03  5.000000E-01  9.991345E-01  1.695075E-03  0.000000E+00  1.177151E-02 -2.051093E-03 -4.201163E-17  1.487455E-01  0.000000E+00
  9.897860E-01  1.639891E-03  5.000000E-01  9.997819E-01  1.586082E-03  0.000000E+00  1.515157E-02 -2.077062E-03 -9.703204E-17  1.961399E-01  0.000000E+00
  9.900000E-01  1.603758E-03  5.000000E-01  9.999981E-01  1.549584E-03  0.000000E+00  1.057274E-02 -4.463176E-03 -8.404766E-17 -4.724599E-02  0.000000E+00
  9.900000E-01  1.682468E-03  5.000000E-01  9.999981E-01  1.629089E-03  0.000000E+00  1.058643E-03 -1.484795E-02  1.499671E-17 -1.849322E-01  0.000000E+00
  9.900000E-01  1.761188E-03  5.000000E-01  9.999981E-01  1.708604E-03  0.000000E+00 -5.266111E-04 -1.395821E-02  1.120281E-16 -9.279487E-03  0.000000E+00
  9.900000E-01  1.839909E-03  5.000000E-01  9.999981E-01  1.788119E-03  0.000000E+00 -2.984863E-04  2.397090E-03  1.605410E-16 -1.397507E-02  0.000000E+00
  9.900000E-01  1.918619E-03  5.000000E-01  9.999981E-01  1.867625E-03  0.000000E+00  7.089386E-04  3.821166E-03  2.042644E-16 -1.314882E-01  0.000000E+00
  9.900000E-01  1.997339E-03  5.000000E-01  9.999981E-01  1.947140E-03  0.000000E+00  5.862754E-03 -2.623720E-03  2.342223E-16 -3.806806E-02  0.000000E+00
  9.900000E-01  1.997339E-03  5.000000E-01  9.999981E-01  1.947140E-03  0.000000E+00  5.862754E-03 -2.623720E-03  2.342223E-16 -3.806806E-02  0.000000E+00
  9.897900E-01  2.043048E-03  5.000000E-01  9.997860E-01  1.993310E-03  0.000000E+00  7.629296E-03 -1.989509E-03  1.571284E-16  1.031017E-01  0.000000E+00
  9.891580E-01  2.180133E-03  5.000000E-01  9.991476E-01  2.131780E-03  0.000000E+00  4.722857E-03 -9.633887E-04  4.162630E-17  6.102661E-02  0.000000E+00
  9.881040E-01  2.408419E-03  5.000000E-01  9.980830E-01  2.362371E-03  0.000000E+00  3.962438E-03 -8.555538E-04 -1.056292E-17  5.137377E-02  0.000000E+00
  9.866260E-01  2.727615E-03  5.000000E-01  9.965900E-01  2.684791E-03  0.000000E+00  3.775247E-03 -8.194038E-04 -1.472423E-17  5.313584E-02  0.000000E+00
  9.847200E-01  3.137305E-03  5.000000E-01  9.946648E-01  3.098619E-03  0.000000E+00  3.698624E-03 -7.922206E-04 -4.939835E-18  4.783852E-02  0.000000E+00
  9.823820E-01  3.636895E-03  5.000000E-01  9.923032E-01  3.603254E-03  0.000000E+00  3.755954E-03 -7.991760E-04  1.385428E-18  3.976778E-02  0.000000E+00
  9.796080E-01  4.225570E-03  5.000000E-01  9.895012E-01  4.197874E-03  0.000000E+00  3.924289E-03 -8.291292E-04  2.615482E-18  3.089486E-02  0.000000E+00
  9.763910E-01  4.902316E-03  5.000000E-01  9.862517E-01  4.881455E-03  0.000000E+00  4.161540E-03 -8.711961E-04  7.830295E-19  2.070876E-02  0.000000E+00
  9.727270E-01  5.665732E-03  5.000000E-01  9.825507E-01  5.652580E-03  0.000000E+00  4.439982E-03 -9.195387E-04 -4.676669E-19  9.112986E-03  0.000000E+00
  9.686070E-01  6.514217E-03  5.000000E-01  9.783891E-01  6.509634E-03  0.000000E+00  4.743249E-03 -9.702374E-04  1.045507E-20 -3.653453E-03  0.000000E+00
  9.640240E-01  7.445717E-03  5.000000E-01  9.737598E-01  7.450541E-03  0.000000E+00  5.062440E-03 -1.020927E-03  3.375539E-19 -1.743509E-02  0.000000E+00
  9.589680E-01  8.457839E-03  5.000000E-01  9.686527E-01  8.472885E-03  0.000000E+00  5.393722E-03 -1.070435E-03  6.509439E-21 -3.209558E-02  0.000000E+00
  9.534310E-01  9.547713E-03  5.000000E-01  9.630598E-01  9.573765E-03  0.000000E+00  5.735334E-03 -1.118038E-03 -2.441110E-19 -4.749733E-02  0.000000E+00
  9.474030E-01  1.071206E-02  5.000000E-01  9.569709E-01  1.074987E-02  0.000000E+00  6.085299E-03 -1.162760E-03  1.118665E-19 -6.341310E-02  0.000000E+00
  9.408720E-01  1.194717E-02  5.000000E-01  9.503740E-01  1.199745E-02  0.000000E+00  6.440237E-03 -1.203672E-03  3.676061E-19 -7.966963E-02  0.000000E+00
  9.338280E-01  1.324887E-02  5.000000E-01  9.432588E-01  1.331230E-02  0.000000E+00  6.795842E-03 -1.239842E-03 -5.703076E-19 -9.610583E-02  0.000000E+00
  9.262600E-01  1.461267E-02  5.000000E-01  9.356144E-01  1.468988E-02  0.000000E+00  7.147016E-03 -1.270037E-03 -1.140054E-18 -1.124831E-01  0.000000E+00
  9.181550E-01  1.603355E-02  5.000000E-01  9.274275E-01  1.612510E-02  0.000000E+00  7.487620E-03 -1.293137E-03 -6.274745E-19 -1.286138E-01  0.000000E+00
  9.095020E-01  1.750628E-02  5.000000E-01  9.186871E-01  1.761271E-02  0.000000E+00  7.810747E-03 -1.308033E-03 -6.281615E-19 -1.441939E-01  0.000000E+00
  9.002880E-01  1.902516E-02  5.000000E-01  9.093801E-01  1.914692E-02  0.000000E+00  8.108139E-03 -1.313762E-03 -9.994533E-19 -1.587023E-01  0.000000E+00
  8.905020E-01  2.058431E-02  5.000000E-01  8.994953E-01  2.072182E-02  0.000000E+00  8.370190E-03 -1.310875E-03 -1.206160E-18 -1.718136E-01  0.000000E+00
  8.801320E-01  2.218108E-02  5.000000E-01  8.890205E-01  2.233472E-02  0.000000E+00  8.588861E-03 -1.301773E-03 -4.697623E-21 -1.836083E-01  0.000000E+00
  8.691700E-01  2.381661E-02  5.000000E-01  8.779478E-01  2.398676E-02  0.000000E+00  8.761007E-03 -1.289050E-03  9.817353E-19 -1.943120E-01  0.000000E+00
  8.691700E-01  2.381661E-02  5.000000E-01  8.779478E-01  2.398676E-02  0.000000E+00  8.761007E-03 -1.289050E-03  9.817353E-19 -1.943120E-01  0.000000E+00
  8.576080E-01  2.549431E-02  5.000000E-01  8.662691E-01  2.568140E-02  0.000000E+00  8.889138E-03 -1.275031E-03 -3.424071E-19 -2.040657E-01  0.000000E+00
  8.454380E-01  2.721999E-02  5.000000E-01  8.539762E-01  2.742451E-02  0.000000E+00  8.980609E-03 -1.262881E-03 -5.284237E-19 -2.130805E-01  0.000000E+00
  8.326580E-01  2.900257E-02  5.000000E-01  8.410671E-01  2.922510E-02  0.000000E+00  9.047874E-03 -1.256404E-03  6.964756E-20 -2.219066E-01  0.000000E+00
  8.192630E-01  3.085461E-02  5.000000E-01  8.275368E-01  3.109584E-02  0.000000E+00  9.109390E-03 -1.259937E-03 -2.014412E-19 -2.319178E-01  0.000000E+00
  8.052550E-01  3.279231E-02  5.000000E-01  8.133873E-01  3.305311E-02  0.000000E+00  9.190694E-03 -1.276599E-03 -1.688293E-19 -2.451102E-01  0.000000E+00
  7.906370E-01  3.483030E-02  5.000000E-01  7.986217E-01  3.511169E-02  0.000000E+00  9.321777E-03 -1.304034E-03 -2.286386E-19 -2.625005E-01  0.000000E+00
  7.754120E-01  3.696711E-02  5.000000E-01  7.832430E-01  3.727008E-02  0.000000E+00  9.526079E-03 -1.335015E-03 -2.558034E-19 -2.835143E-01  0.000000E+00
  7.595880E-01  3.918154E-02  5.000000E-01  7.672592E-01  3.950687E-02  0.000000E+00  9.809312E-03 -1.363633E-03 -4.672932E-19 -3.074264E-01  0.000000E+00
  7.431760E-01  4.144789E-02  5.000000E-01  7.506814E-01  4.179610E-02  0.000000E+00  1.016031E-02 -1.385936E-03 -5.493716E-20 -3.335723E-01  0.000000E+00
  7.261880E-01  4.373725E-02  5.000000E-01  7.335218E-01  4.410859E-02  0.000000E+00  1.055710E-02 -1.397245E-03  1.829191E-19 -3.604824E-01  0.000000E+00
  7.086430E-01  4.601890E-02  5.000000E-01  7.157997E-01  4.641327E-02  0.000000E+00  1.097112E-02 -1.393662E-03  6.379098E-19 -3.860755E-01  0.000000E+00
  6.905640E-01  4.826403E-02  5.000000E-01  6.975381E-01  4.868108E-02  0.000000E+00  1.137278E-02 -1.375783E-03  1.445663E-18 -4.090302E-01  0.000000E+00
  6.719770E-01  5.045525E-02  5.000000E-01  6.787634E-01  5.089443E-02  0.000000E+00  1.174079E-02 -1.351746E-03  1.193408E-18 -4.306029E-01  0.000000E+00
  6.529150E-01  5.259816E-02  5.000000E-01  6.595089E-01  5.305898E-02  0.000000E+00  1.207598E-02 -1.329269E-03  1.456362E-18 -4.531979E-01  0.000000E+00
  6.334180E-01  5.469950E-02  5.000000E-01  6.398150E-01  5.518154E-02  0.000000E+00  1.240182E-02 -1.305942E-03  2.033533E-18 -4.776804E-01  0.000000E+00
  6.135280E-01  5.674578E-02  5.000000E-01  6.197241E-01  5.724849E-02  0.000000E+00  1.274445E-02 -1.276549E-03  1.325501E-18 -5.043011E-01  0.000000E+00
  5.932910E-01  5.871860E-02  5.000000E-01  5.992827E-01  5.924123E-02  0.000000E+00  1.312009E-02 -1.238052E-03  1.194025E-18 -5.329287E-01  0.000000E+00
  5.727570E-01  6.059372E-02  5.000000E-01  5.785413E-01  6.113529E-02  0.000000E+00  1.353315E-02 -1.185902E-03  1.664558E-18 -5.617202E-01  0.000000E+00
  5.519810E-01  6.234118E-02  5.000000E-01  5.575555E-01  6.290040E-02  0.000000E+00  1.397354E-02 -1.116101E-03  5.060007E-19 -5.882932E-01  0.000000E+00
  5.310180E-01  6.393057E-02  5.000000E-01  5.363808E-01  6.450584E-02  0.000000E+00  1.441879E-02 -1.033773E-03 -3.243589E-19 -6.132275E-01  0.000000E+00
  5.099250E-01  6.535738E-02  5.000000E-01  5.150748E-01  6.594706E-02  0.000000E+00  1.485369E-02 -9.495278E-04 -1.738407E-20 -6.399629E-01  0.000000E+00
  4.887640E-01  6.663218E-02  5.000000E-01  4.937001E-01  6.723473E-02  0.000000E+00  1.529078E-02 -8.591917E-04  3.723504E-19 -6.692495E-01  0.000000E+00
  4.675910E-01  6.773887E-02  5.000000E-01  4.723132E-01  6.835260E-02  0.000000E+00  1.575168E-02 -7.469033E-04  6.065728E-19 -6.981483E-01  0.000000E+00
  7.860720E-05 -4.980614E-04  5.000000E-01  7.940614E-05 -5.734620E-04  0.000000E+00 -8.735344E-03  3.087395E-02  9.906685E-17  8.269340E-01  0.000000E+00
  3.989240E-04 -1.163366E-03  5.000000E-01  4.029579E-04 -1.245486E-03  0.000000E+00 -7.931482E-03  1.374111E-02  4.473596E-17  1.079421E+00  0.000000E+00
  1.196920E-03 -1.971902E-03  5.000000E-01  1.209013E-03 -2.062187E-03  0.000000E+00 -1.533618E-03  2.054454E-03  1.119554E-17  1.077147E+00  0.000000E+00
  2.563580E-03 -2.820701E-03  5.000000E-01  2.589475E-03 -2.919558E-03  0.000000E+00  5.054415E-03 -2.451849E-03 -9.129725E-18  9.357916E-01  0.000000E+00
  4.492740E-03 -3.662061E-03  5.000000E-01  4.538118E-03 -3.769415E-03  0.000000E+00  9.149959E-03 -3.474898E-03 -9.719825E-18  8.067817E-01  0.000000E+00
  6.952190E-03 -4.489554E-03  5.000000E-01  7.022406E-03 -4.605265E-03  0.000000E+00  1.129974E-02 -3.476519E-03 -3.554993E-18  7.153011E-01  0.000000E+00
  9.910730E-03 -5.324286E-03  5.000000E-01  1.001082E-02 -5.448427E-03  0.000000E+00  1.247785E-02 -3.325769E-03 -5.927735E-20  6.440305E-01  0.000000E+00
  1.334950E-02 -6.191617E-03  5.000000E-01  1.348432E-02 -6.324518E-03  0.000000E+00  1.321631E-02 -3.127333E-03  6.513956E-20  5.744553E-01  0.000000E+00
  1.728780E-02 -7.066767E-03  5.000000E-01  1.746240E-02 -7.208506E-03  0.000000E+00  1.366789E-02 -2.782784E-03 -1.827712E-18  4.990920E-01  0.000000E+00
  2.175590E-02 -7.895351E-03  5.000000E-01  2.197562E-02 -8.045457E-03  0.000000E+00  1.386462E-02 -2.312385E-03 -2.549667E-18  4.293973E-01  0.000000E+00
  2.676920E-02 -8.636888E-03  5.000000E-01  2.703955E-02 -8.794483E-03  0.000000E+00  1.387541E-02 -1.831103E-03 -1.783874E-18  3.781197E-01  0.000000E+00
  3.232800E-02 -9.280198E-03  5.000000E-01  3.265449E-02 -9.444290E-03  0.000000E+00  1.378676E-02 -1.423303E-03 -6.840568E-19  3.461508E-01  0.000000E+00
  3.842930E-02 -9.833300E-03  5.000000E-01  3.881741E-02 -1.000298E-02  0.000000E+00  1.365533E-02 -1.112521E-03  2.128613E-20  3.264376E-01  0.000000E+00
  4.507220E-02 -1.031316E-02  5.000000E-01  4.552739E-02 -1.048768E-02  0.000000E+00  1.352306E-02 -9.040904E-04  7.263530E-20  3.136284E-01  0.000000E+00
  5.225680E-02 -1.075398E-02  5.000000E-01  5.278455E-02 -1.093295E-02  0.000000E+00  1.343205E-02 -7.927408E-04  3.206171E-19  3.047072E-01  0.000000E+00
  5.998640E-02 -1.119241E-02  5.000000E-01  6.059221E-02 -1.137581E-02  0.000000E+00  1.339115E-02 -7.366949E-04  5.619358E-19  2.940936E-01  0.000000E+00
  6.827110E-02 -1.163512E-02  5.000000E-01  6.896058E-02 -1.182299E-02  0.000000E+00  1.337436E-02 -6.913546E-04  1.933296E-19  2.788230E-01  0.000000E+00
  7.712280E-02 -1.207715E-02  5.000000E-01  7.790168E-02 -1.226949E-02  0.000000E+00  1.335915E-02 -6.454343E-04 -2.737248E-19  2.618892E-01  0.000000E+00
  8.655260E-02 -1.251676E-02  5.000000E-01  8.742671E-02 -1.271354E-02  0.000000E+00  1.333385E-02 -5.982619E-04 -2.965007E-19  2.458396E-01  0.000000E+00
  9.657140E-02 -1.294883E-02  5.000000E-01  9.754669E-02 -1.314998E-02  0.000000E+00  1.328548E-02 -5.405441E-04 -2.326230E-19  2.301309E-01  0.000000E+00
  1.071900E-01 -1.335530E-02  5.000000E-01  1.082725E-01 -1.356054E-02  0.000000E+00  1.320994E-02 -4.702986E-04 -1.525712E-19  2.149313E-01  0.000000E+00
  1.184180E-01 -1.372432E-02  5.000000E-01  1.196139E-01 -1.393330E-02  0.000000E+00  1.312831E-02 -4.038076E-04 -8.401903E-20  2.023545E-01  0.000000E+00
  1.302610E-01 -1.406292E-02  5.000000E-01  1.315765E-01 -1.427531E-02  0.000000E+00  1.307278E-02 -3.561733E-04  1.602881E-19  1.925238E-01  0.000000E+00
  1.427230E-01 -1.438554E-02  5.000000E-01  1.441644E-01 -1.460119E-02  0.000000E+00  1.306275E-02 -3.302971E-04  4.215554E-19  1.833372E-01  0.000000E+00
  1.427230E-01 -1.438554E-02  5.000000E-01  1.441644E-01 -1.460119E-02  0.000000E+00  1.306275E-02 -3.302971E-04  4.215554E-19  1.833372E-01  0.000000E+00
  1.558070E-01 -1.470878E-02  5.000000E-01  1.573805E-01 -1.492770E-02  0.000000E+00  1.309111E-02 -3.156095E-04  3.056107E-20  1.723539E-01  0.000000E+00
  1.695140E-01 -1.503176E-02  5.000000E-01  1.712259E-01 -1.525394E-02  0.000000E+00  1.312509E-02 -2.921607E-04 -5.819646E-19  1.582608E-01  0.000000E+00
  1.838420E-01 -1.533237E-02  5.000000E-01  1.856986E-01 -1.555759E-02  0.000000E+00  1.312378E-02 -2.423341E-04 -6.647772E-19  1.421733E-01  0.000000E+00
  1.987870E-01 -1.557094E-02  5.000000E-01  2.007946E-01 -1.579856E-02  0.000000E+00  1.305628E-02 -1.564820E-04 -1.864932E-19  1.262549E-01  0.000000E+00
  2.143420E-01 -1.569517E-02  5.000000E-01  2.165067E-01 -1.592405E-02  0.000000E+00  1.292046E-02 -4.623569E-05  2.058896E-19  1.135266E-01  0.000000E+00
  2.304940E-01 -1.567947E-02  5.000000E-01  2.328218E-01 -1.590819E-02  0.000000E+00  1.275039E-02  5.303287E-05 -4.343670E-20  1.074790E-01  0.000000E+00
  2.472290E-01 -1.555430E-02  5.000000E-01  2.497258E-01 -1.578176E-02  0.000000E+00  1.258502E-02  1.193293E-04 -3.919488E-19  1.071430E-01  0.000000E+00
  2.645310E-01 -1.535594E-02  5.000000E-01  2.672025E-01 -1.558139E-02  0.000000E+00  1.243410E-02  1.654882E-04 -1.661516E-19  1.070398E-01  0.000000E+00
  2.823750E-01 -1.508694E-02  5.000000E-01  2.852267E-01 -1.530967E-02  0.000000E+00  1.228523E-02  2.141616E-04 -2.169081E-20  1.040102E-01  0.000000E+00
  3.007320E-01 -1.472365E-02  5.000000E-01  3.037691E-01 -1.494271E-02  0.000000E+00  1.212940E-02  2.716010E-04 -2.351370E-19  9.994932E-02  0.000000E+00
  3.195690E-01 -1.425126E-02  5.000000E-01  3.227964E-01 -1.446555E-02  0.000000E+00  1.196898E-02  3.287604E-04 -2.210908E-19  9.807886E-02  0.000000E+00
  3.388440E-01 -1.367425E-02  5.000000E-01  3.422660E-01 -1.388271E-02  0.000000E+00  1.180508E-02  3.780637E-04  9.878267E-20  9.899643E-02  0.000000E+00
  3.585140E-01 -1.300293E-02  5.000000E-01  3.621347E-01 -1.320462E-02  0.000000E+00  1.162598E-02  4.215512E-04 -9.485846E-20  1.009397E-01  0.000000E+00
  3.785290E-01 -1.223471E-02  5.000000E-01  3.823518E-01 -1.242864E-02  0.000000E+00  1.141218E-02  4.635353E-04 -1.086865E-18  1.028959E-01  0.000000E+00
  3.988350E-01 -1.136354E-02  5.000000E-01  4.028629E-01 -1.154867E-02  0.000000E+00  1.115124E-02  5.047277E-04 -9.498290E-19  1.058930E-01  0.000000E+00
  4.193750E-01 -1.038405E-02  5.000000E-01  4.236103E-01 -1.055929E-02  0.000000E+00  1.084626E-02  5.484484E-04 -1.182504E-19  1.107051E-01  0.000000E+00
  4.400850E-01 -9.275973E-03  5.000000E-01  4.445295E-01 -9.440022E-03  0.000000E+00  1.052502E-02  5.938380E-04  4.232855E-20  1.178061E-01  0.000000E+00
  4.609060E-01 -8.038131E-03  5.000000E-01  4.655607E-01 -8.189680E-03  0.000000E+00  1.024498E-02  6.210618E-04 -7.021281E-21  1.288330E-01  0.000000E+00
  4.818030E-01 -6.743472E-03  5.000000E-01  4.866688E-01 -6.881945E-03  0.000000E+00  1.006983E-02  6.021883E-04 -2.551650E-20  1.442710E-01  0.000000E+00
  5.027520E-01 -5.534730E-03  5.000000E-01  5.078293E-01 -5.660996E-03  0.000000E+00  1.001539E-02  5.413529E-04  4.319656E-19  1.584927E-01  0.000000E+00
  5.237130E-01 -4.482152E-03  5.000000E-01  5.290020E-01 -4.597788E-03  0.000000E+00  1.002070E-02  4.880083E-04  7.689125E-19  1.625196E-01  0.000000E+00
  5.446170E-01 -3.501345E-03  5.000000E-01  5.501171E-01 -3.607076E-03  0.000000E+00  9.992647E-03  4.867693E-04  5.205053E-19  1.556361E-01  0.000000E+00
  5.653940E-01 -2.450595E-03  5.000000E-01  5.711040E-01 -2.545715E-03  0.000000E+00  9.878352E-03  5.289404E-04  5.957592E-19  1.488164E-01  0.000000E+00
  4.675910E-01  6.773887E-02  5.000000E-01  4.723132E-01  6.835260E-02  0.000000E+00  1.575168E-02 -7.469033E-04  6.065728E-19 -6.981483E-01  0.000000E+00
  4.464640E-01  6.864189E-02  5.000000E-01  4.509729E-01  6.926474E-02  0.000000E+00  1.623487E-02 -6.093198E-04  3.906076E-19 -7.248338E-01  0.000000E+00
  4.254410E-01  6.932466E-02  5.000000E-01  4.297376E-01  6.995441E-02  0.000000E+00  1.672095E-02 -4.543081E-04 -1.765101E-19 -7.496545E-01  0.000000E+00
  4.045840E-01  6.978348E-02  5.000000E-01  4.086699E-01  7.041786E-02  0.000000E+00  1.719320E-02 -2.871146E-04 -1.130706E-19 -7.733395E-01  0.000000E+00
  3.839530E-01  7.002119E-02  5.000000E-01  3.878306E-01  7.065797E-02  0.000000E+00  1.764587E-02 -1.071670E-04  1.422024E-20 -7.959433E-01  0.000000E+00
  3.636060E-01  7.003655E-02  5.000000E-01  3.672781E-01  7.067348E-02  0.000000E+00  1.808066E-02  8.844788E-05 -3.027130E-19 -8.166063E-01  0.000000E+00
  3.435960E-01  6.982867E-02  5.000000E-01  3.470660E-01  7.046351E-02  0.000000E+00  1.849823E-02  3.004191E-04 -2.613886E-19 -8.344354E-01  0.000000E+00
  3.239710E-01  6.939792E-02  5.000000E-01  3.272428E-01  7.002840E-02  0.000000E+00  1.889392E-02  5.235010E-04 -3.811303E-19 -8.499836E-01  0.000000E+00
  3.047740E-01  6.875715E-02  5.000000E-01  3.078519E-01  6.938116E-02  0.000000E+00  1.926582E-02  7.498013E-04 -9.141553E-19 -8.650867E-01  0.000000E+00
  2.860450E-01  6.792606E-02  5.000000E-01  2.889338E-01  6.854168E-02  0.000000E+00  1.962759E-02  9.834700E-04 -1.372834E-18 -8.799855E-01  0.000000E+00
  2.678190E-01  6.691050E-02  5.000000E-01  2.705237E-01  6.751587E-02  0.000000E+00  1.999543E-02  1.233429E-03 -1.423366E-18 -8.939599E-01  0.000000E+00
  2.501300E-01  6.571581E-02  5.000000E-01  2.526561E-01  6.630911E-02  0.000000E+00  2.037380E-02  1.500748E-03 -1.186828E-18 -9.074650E-01  0.000000E+00
  2.330040E-01  6.435106E-02  5.000000E-01  2.353571E-01  6.493058E-02  0.000000E+00  2.076207E-02  1.784674E-03 -9.988514E-19 -9.213702E-01  0.000000E+00
  2.164660E-01  6.282697E-02  5.000000E-01  2.186521E-01  6.339110E-02  0.000000E+00  2.116251E-02  2.086940E-03 -3.442355E-19 -9.354930E-01  0.000000E+00
  2.005340E-01  6.115498E-02  5.000000E-01  2.025592E-01  6.170222E-02  0.000000E+00  2.158414E-02  2.418911E-03  5.232524E-19 -9.467840E-01  0.000000E+00
  1.852230E-01  5.933348E-02  5.000000E-01  1.870936E-01  5.986233E-02  0.000000E+00  2.202406E-02  2.786751E-03  3.175087E-19 -9.526429E-01  0.000000E+00
  1.705440E-01  5.736809E-02  5.000000E-01  1.722663E-01  5.787709E-02  0.000000E+00  2.245969E-02  3.174476E-03  6.397063E-19 -9.564129E-01  0.000000E+00
  1.565000E-01  5.527946E-02  5.000000E-01  1.580805E-01  5.576736E-02  0.000000E+00  2.288462E-02  3.567396E-03  1.254734E-18 -9.656349E-01  0.000000E+00
  1.430940E-01  5.309291E-02  5.000000E-01  1.445391E-01  5.355873E-02  0.000000E+00  2.333981E-02  3.988476E-03  5.453023E-19 -9.834640E-01  0.000000E+00
  1.303270E-01  5.081281E-02  5.000000E-01  1.316432E-01  5.125560E-02  0.000000E+00  2.388629E-02  4.506506E-03 -2.518604E-19 -1.000764E+00  0.000000E+00
  1.182110E-01  4.840904E-02  5.000000E-01  1.194048E-01  4.882756E-02  0.000000E+00  2.450899E-02  5.160385E-03 -1.242756E-18 -1.002523E+00  0.000000E+00
  1.067560E-01  4.586443E-02  5.000000E-01  1.078341E-01  4.625725E-02  0.000000E+00  2.507742E-02  5.908381E-03 -1.035418E-18 -9.794593E-01  0.000000E+00
  9.596750E-02  4.318178E-02  5.000000E-01  9.693669E-02  4.354751E-02  0.000000E+00  2.540769E-02  6.612350E-03 -6.230651E-19 -9.395609E-01  0.000000E+00
  8.582800E-02  4.042399E-02  5.000000E-01  8.669479E-02  4.076187E-02  0.000000E+00  2.542653E-02  7.146392E-03 -3.900609E-19 -9.015973E-01  0.000000E+00
  8.582800E-02  4.042399E-02  5.000000E-01  8.669479E-02  4.076187E-02  0.000000E+00  2.542653E-02  7.146392E-03 -3.900609E-19 -9.015973E-01  0.000000E+00
  7.631050E-02  3.766066E-02  5.000000E-01  7.708117E-02  3.797062E-02  0.000000E+00  2.526753E-02  7.580715E-03  1.549790E-19 -8.696994E-01  0.000000E+00
  6.740780E-02  3.490351E-02  5.000000E-01  6.808856E-02  3.518564E-02  0.000000E+00  2.509773E-02  8.050192E-03 -5.843891E-19 -8.367134E-01  0.000000E+00
  5.911740E-02  3.215268E-02  5.000000E-01  5.971444E-02  3.240703E-02  0.000000E+00  2.497024E-02  8.580121E-03  7.313738E-19 -7.995070E-01  0.000000E+00
  5.143150E-02  2.942089E-02  5.000000E-01  5.195092E-02  2.964764E-02  0.000000E+00  2.485991E-02  9.137957E-03  1.284370E-18 -7.586647E-01  0.000000E+00
  4.433770E-02  2.672699E-02  5.000000E-01  4.478548E-02  2.692654E-02  0.000000E+00  2.472381E-02  9.697931E-03 -2.473192E-19 -7.168402E-01  0.000000E+00
  3.782240E-02  2.408935E-02  5.000000E-01  3.820438E-02  2.426226E-02  0.000000E+00  2.453764E-02  1.026131E-02  8.248893E-19 -6.779566E-01  0.000000E+00
  3.187460E-02  2.152102E-02  5.000000E-01  3.219651E-02  2.166800E-02  0.000000E+00  2.431166E-02  1.085449E-02  2.051468E-18 -6.447884E-01  0.000000E+00
  2.648400E-02  1.903351E-02  5.000000E-01  2.675147E-02  1.915536E-02  0.000000E+00  2.407879E-02  1.154853E-02  2.585171E-18 -6.102503E-01  0.000000E+00
  2.164990E-02  1.662775E-02  5.000000E-01  2.186855E-02  1.672531E-02  0.000000E+00  2.380457E-02  1.240023E-02  4.300273E-18 -5.557471E-01  0.000000E+00
  1.737670E-02  1.430345E-02  5.000000E-01  1.755219E-02  1.437753E-02  0.000000E+00  2.331758E-02  1.325000E-02  5.329873E-18 -4.750372E-01  0.000000E+00
  1.364080E-02  1.208755E-02  5.000000E-01  1.377856E-02  1.213925E-02  0.000000E+00  2.247119E-02  1.378453E-02  7.957934E-18 -3.891388E-01  0.000000E+00
  1.039090E-02  1.002324E-02  5.000000E-01  1.049584E-02  1.005409E-02  0.000000E+00  2.135508E-02  1.394893E-02  1.339705E-17 -3.244689E-01  0.000000E+00
  7.586340E-03  8.136908E-03  5.000000E-01  7.662960E-03  8.148713E-03  0.000000E+00  2.025589E-02  1.414382E-02  1.780023E-17 -2.854186E-01  0.000000E+00
  5.226210E-03  6.425453E-03  5.000000E-01  5.278995E-03  6.419974E-03  0.000000E+00  1.947022E-02  1.495229E-02  1.711746E-17 -2.600088E-01  0.000000E+00
  3.324300E-03  4.880518E-03  5.000000E-01  3.357877E-03  4.859436E-03  0.000000E+00  1.918829E-02  1.693604E-02  1.012534E-17 -2.365092E-01  0.000000E+00
  1.883580E-03  3.507164E-03  5.000000E-01  1.902608E-03  3.472213E-03  0.000000E+00  1.926639E-02  2.075814E-02  9.320660E-18 -1.907661E-01  0.000000E+00
  8.951490E-04  2.322019E-03  5.000000E-01  9.041943E-04  2.275098E-03  0.000000E+00  1.865329E-02  2.676159E-02  3.419555E-17 -7.946423E-02  0.000000E+00
  3.201820E-04  1.355151E-03  5.000000E-01  3.234206E-04  1.298466E-03  0.000000E+00  1.545435E-02  3.347300E-02  8.386180E-17  1.226859E-01  0.000000E+00
  6.852390E-05  6.428459E-04  5.000000E-01  6.922101E-05  5.789674E-04  0.000000E+00  9.375518E-03  3.719165E-02  1.308648E-16  3.443388E-01  0.000000E+00
  4.217600E-06  2.126008E-04  5.000000E-01  4.265277E-06  1.443772E-04  0.000000E+00  3.414592E-03  3.738653E-02  1.609571E-16  4.225648E-01  0.000000E+00
 -5.032520E-09  6.966712E-05  5.000000E-01  0.000000E+00  0.000000E+00  0.000000E+00 -5.178514E-04  4.115875E-02  1.786736E-16  3.865981E-01  0.000000E+00
  5.154440E-06 -7.378513E-05  5.000000E-01  5.211578E-06 -1.449010E-04  0.000000E+00 -4.554659E-03  4.258300E-02  1.602748E-16  5.037563E-01  0.000000E+00