 Title = "ADflow Slice Data"
Variables =  "CoordinateX"  "CoordinateY"  "CoordinateZ"  "XoC"  "YoC"  "ZoC" "VelocityX" "VelocityY" "VelocityZ" "CoefPressure" "Mach" 
Zone T= "Slice_0001 None Absolute Regular z = 0.50000000"
 Nodes =          192  Elements=          184  ZONETYPE=FELINESEG
 DATAPACKING=POINT
  5.653940E-01 -2.673515E-03  5.000000E-01  5.711040E-01 -2.775956E-03  0.000000E+00  9.769325E-03  6.154273E-04 -2.880021E-19  1.433538E-01  0.000000E+00
  5.859770E-01 -1.297669E-03  5.000000E-01  5.918948E-01 -1.386215E-03  0.000000E+00  9.468999E-03  6.654591E-04  2.224185E-19  1.501988E-01  0.000000E+00
  6.063060E-01  2.042466E-04  5.000000E-01  6.124291E-01  1.308687E-04  0.000000E+00  9.126411E-03  6.968136E-04 -9.197592E-19  1.650233E-01  0.000000E+00
  6.263240E-01  1.783546E-03  5.000000E-01  6.326493E-01  1.726117E-03  0.000000E+00  8.786562E-03  6.981157E-04 -6.792593E-19  1.839054E-01  0.000000E+00
  6.459860E-01  3.357193E-03  5.000000E-01  6.525099E-01  3.315657E-03  0.000000E+00  8.481327E-03  6.682799E-04  2.056805E-19  2.037849E-01  0.000000E+00
  6.652460E-01  4.849550E-03  5.000000E-01  6.719644E-01  4.823085E-03  0.000000E+00  8.210676E-03  6.223040E-04 -9.245014E-19  2.213912E-01  0.000000E+00
  6.840650E-01  6.240365E-03  5.000000E-01  6.909734E-01  6.227946E-03  0.000000E+00  7.942723E-03  5.828468E-04 -6.848281E-19  2.343069E-01  0.000000E+00
  7.024070E-01  7.575106E-03  5.000000E-01  7.095007E-01  7.576167E-03  0.000000E+00  7.643440E-03  5.560568E-04 -2.573446E-19  2.449394E-01  0.000000E+00
  7.202400E-01  8.874083E-03  5.000000E-01  7.275138E-01  8.888263E-03  0.000000E+00  7.302581E-03  5.300716E-04 -6.903535E-19  2.580170E-01  0.000000E+00
  7.375350E-01  1.012634E-02  5.000000E-01  7.449834E-01  1.015317E-02  0.000000E+00  6.932224E-03  4.952629E-04 -6.330906E-19  2.746403E-01  0.000000E+00
  7.542690E-01  1.130517E-02  5.000000E-01  7.618864E-01  1.134390E-02  0.000000E+00  6.559480E-03  4.494684E-04 -5.244563E-19  2.932225E-01  0.000000E+00
  7.704220E-01  1.237793E-02  5.000000E-01  7.782026E-01  1.242749E-02  0.000000E+00  6.220140E-03  3.941618E-04 -1.826154E-19  3.115467E-01  0.000000E+00
  7.859770E-01  1.331355E-02  5.000000E-01  7.939147E-01  1.337256E-02  0.000000E+00  5.958126E-03  3.232494E-04  3.683464E-19  3.293250E-01  0.000000E+00
  8.009220E-01  1.403583E-02  5.000000E-01  8.090106E-01  1.410214E-02  0.000000E+00  5.817976E-03  2.271621E-04  7.405500E-20  3.467102E-01  0.000000E+00
  8.152480E-01  1.446005E-02  5.000000E-01  8.234813E-01  1.453064E-02  0.000000E+00  5.817226E-03  1.129795E-04 -2.155528E-19  3.593521E-01  0.000000E+00
  8.289490E-01  1.458489E-02  5.000000E-01  8.373206E-01  1.465674E-02  0.000000E+00  5.937421E-03 -3.739542E-06 -1.371596E-19  3.636011E-01  0.000000E+00
  8.420260E-01  1.445231E-02  5.000000E-01  8.505297E-01  1.452283E-02  0.000000E+00  6.144945E-03 -1.156642E-04 -1.305455E-19  3.613299E-01  0.000000E+00
  8.544790E-01  1.411469E-02  5.000000E-01  8.631085E-01  1.418180E-02  0.000000E+00  6.406699E-03 -2.206516E-04 -1.775020E-19  3.555353E-01  0.000000E+00
  8.663160E-01  1.362435E-02  5.000000E-01  8.750650E-01  1.368650E-02  0.000000E+00  6.693040E-03 -3.172448E-04  7.209674E-20  3.477668E-01  0.000000E+00
  8.775420E-01  1.302806E-02  5.000000E-01  8.864044E-01  1.308420E-02  0.000000E+00  6.978340E-03 -4.034156E-04  3.932618E-19  3.387661E-01  0.000000E+00
  8.881660E-01  1.236590E-02  5.000000E-01  8.971357E-01  1.241534E-02  0.000000E+00  7.243103E-03 -4.771356E-04  3.398565E-19  3.291508E-01  0.000000E+00
  8.981970E-01  1.167068E-02  5.000000E-01  9.072680E-01  1.171310E-02  0.000000E+00  7.477000E-03 -5.394984E-04 -1.348244E-19  3.197018E-01  0.000000E+00
  9.076460E-01  1.096305E-02  5.000000E-01  9.168124E-01  1.099833E-02  0.000000E+00  7.681173E-03 -5.964921E-04 -6.048227E-19  3.113198E-01  0.000000E+00
  9.165220E-01  1.025006E-02  5.000000E-01  9.257781E-01  1.027813E-02  0.000000E+00  7.864677E-03 -6.537818E-04 -6.877522E-19  3.040398E-01  0.000000E+00
  9.165220E-01  1.025006E-02  5.000000E-01  9.257781E-01  1.027813E-02  0.000000E+00  7.864677E-03 -6.537818E-04 -6.877522E-19  3.040398E-01  0.000000E+00
  9.248360E-01  9.536026E-03  5.000000E-01  9.341760E-01  9.556890E-03  0.000000E+00  8.037471E-03 -7.132372E-04 -6.765085E-19  2.970882E-01  0.000000E+00
  9.325990E-01  8.825321E-03  5.000000E-01  9.420174E-01  8.839008E-03  0.000000E+00  8.207888E-03 -7.756353E-04 -5.591523E-19  2.900317E-01  0.000000E+00
  9.398210E-01  8.121986E-03  5.000000E-01  9.493124E-01  8.128570E-03  0.000000E+00  8.383239E-03 -8.419050E-04 -4.195202E-19  2.827804E-01  0.000000E+00
  9.465130E-01  7.430013E-03  5.000000E-01  9.560719E-01  7.429608E-03  0.000000E+00  8.569851E-03 -9.128706E-04 -8.832035E-19  2.752247E-01  0.000000E+00
  9.526870E-01  6.753511E-03  5.000000E-01  9.623083E-01  6.746275E-03  0.000000E+00  8.772704E-03 -9.891835E-04 -9.287835E-19  2.672181E-01  0.000000E+00
  9.583540E-01  6.096887E-03  5.000000E-01  9.680325E-01  6.083019E-03  0.000000E+00  8.995473E-03 -1.071296E-03  3.156231E-19  2.586307E-01  0.000000E+00
  9.635240E-01  5.464905E-03  5.000000E-01  9.732547E-01  5.444655E-03  0.000000E+00  9.241030E-03 -1.159315E-03  2.780739E-18  2.493409E-01  0.000000E+00
  9.682080E-01  4.862626E-03  5.000000E-01  9.779860E-01  4.836294E-03  0.000000E+00  9.513098E-03 -1.253504E-03  4.549455E-18  2.392946E-01  0.000000E+00
  9.724140E-01  4.295414E-03  5.000000E-01  9.822345E-01  4.263353E-03  0.000000E+00  9.818653E-03 -1.354391E-03 -1.166182E-18  2.284856E-01  0.000000E+00
  9.761510E-01  3.768764E-03  5.000000E-01  9.860093E-01  3.731385E-03  0.000000E+00  1.016817E-02 -1.462420E-03 -1.997666E-17  2.168822E-01  0.000000E+00
  9.794290E-01  3.288122E-03  5.000000E-01  9.893204E-01  3.245888E-03  0.000000E+00  1.056871E-02 -1.578100E-03 -2.997352E-17  2.044945E-01  0.000000E+00
  9.822540E-01  2.858878E-03  5.000000E-01  9.921739E-01  2.812310E-03  0.000000E+00  1.100577E-02 -1.699573E-03  1.203179E-17  1.915727E-01  0.000000E+00
  9.846330E-01  2.486060E-03  5.000000E-01  9.945769E-01  2.435727E-03  0.000000E+00  1.142440E-02 -1.815676E-03  6.241940E-17  1.793661E-01  0.000000E+00
  9.865710E-01  2.174244E-03  5.000000E-01  9.965345E-01  2.120761E-03  0.000000E+00  1.169065E-02 -1.892253E-03 -5.769830E-17  1.667384E-01  0.000000E+00
  9.880740E-01  1.927361E-03  5.000000E-01  9.980527E-01  1.871385E-03  0.000000E+00  1.158639E-02 -1.921264E-03 -3.679942E-16  1.474588E-01  0.000000E+00
  9.891450E-01  1.748627E-03  5.000000E-01  9.991345E-01  1.690846E-03  0.000000E+00  1.178690E-02 -2.059196E-03 -4.047894E-16  1.484177E-01  0.000000E+00
  9.897860E-01  1.640427E-03  5.000000E-01  9.997820E-01  1.581553E-03  0.000000E+00  1.517003E-02 -2.086674E-03  3.984081E-16  1.958587E-01  0.000000E+00
  9.900000E-01  1.604194E-03  5.000000E-01  9.999981E-01  1.544955E-03  0.000000E+00  1.058521E-02 -4.471951E-03  2.189917E-15 -4.782403E-02  0.000000E+00
  9.900000E-01  1.682905E-03  5.000000E-01  9.999981E-01  1.624460E-03  0.000000E+00  1.059896E-03 -1.486150E-02  3.634468E-15 -1.856901E-01  0.000000E+00
  9.900000E-01  1.761625E-03  5.000000E-01  9.999981E-01  1.703975E-03  0.000000E+00 -5.271072E-04 -1.396568E-02  3.335097E-15 -9.861183E-03  0.000000E+00
  9.900000E-01  1.840345E-03  5.000000E-01  9.999981E-01  1.783491E-03  0.000000E+00 -2.989385E-04  2.412719E-03  1.727641E-15 -1.457177E-02  0.000000E+00
  9.900000E-01  1.919056E-03  5.000000E-01  9.999981E-01  1.862996E-03  0.000000E+00  7.099397E-04  3.833792E-03 -1.086582E-16 -1.322674E-01  0.000000E+00
  9.900000E-01  1.997776E-03  5.000000E-01  9.999981E-01  1.942511E-03  0.000000E+00  5.874515E-03 -2.628802E-03 -4.107603E-16 -3.874892E-02  0.000000E+00
  9.900000E-01  1.997776E-03  5.000000E-01  9.999981E-01  1.942511E-03  0.000000E+00  5.874515E-03 -2.628802E-03 -4.107603E-16 -3.874892E-02  0.000000E+00
  9.897900E-01  2.043576E-03  5.000000E-01  9.997860E-01  1.988773E-03  0.000000E+00  7.647296E-03 -1.997087E-03  1.681608E-16  1.026271E-01  0.000000E+00
  9.891580E-01  2.180931E-03  5.000000E-01  9.991476E-01  2.127516E-03  0.000000E+00  4.736842E-03 -9.683615E-04  6.257436E-17  6.053331E-02  0.000000E+00
  9.881040E-01  2.409661E-03  5.000000E-01  9.980830E-01  2.358556E-03  0.000000E+00  3.974688E-03 -8.598699E-04 -1.068469E-16  5.088905E-02  0.000000E+00
  9.866260E-01  2.729465E-03  5.000000E-01  9.965900E-01  2.681589E-03  0.000000E+00  3.786794E-03 -8.234246E-04 -8.174096E-17  5.264530E-02  0.000000E+00
  9.847200E-01  3.139911E-03  5.000000E-01  9.946648E-01  3.096180E-03  0.000000E+00  3.710141E-03 -7.961229E-04 -6.558213E-18  4.733066E-02  0.000000E+00
  9.823820E-01  3.640385E-03  5.000000E-01  9.923032E-01  3.601709E-03  0.000000E+00  3.767966E-03 -8.031163E-04  1.227963E-17  3.924185E-02  0.000000E+00
  9.796080E-01  4.230047E-03  5.000000E-01  9.895012E-01  4.197326E-03  0.000000E+00  3.937134E-03 -8.331908E-04 -5.657545E-19  3.034870E-02  0.000000E+00
  9.763910E-01  4.907853E-03  5.000000E-01  9.862517E-01  4.881977E-03  0.000000E+00  4.175417E-03 -8.754080E-04 -7.337562E-18  2.013985E-02  0.000000E+00
  9.727270E-01  5.672360E-03  5.000000E-01  9.825507E-01  5.654205E-03  0.000000E+00  4.454996E-03 -9.238920E-04 -3.986573E-18  8.520732E-03  0.000000E+00
  9.686070E-01  6.521923E-03  5.000000E-01  9.783891E-01  6.512348E-03  0.000000E+00  4.759445E-03 -9.746947E-04  4.484029E-19 -4.267505E-03  0.000000E+00
  9.640240E-01  7.454434E-03  5.000000E-01  9.737598E-01  7.454276E-03  0.000000E+00  5.079819E-03 -1.025430E-03  1.168683E-18 -1.806724E-02  0.000000E+00
  9.589680E-01  8.467436E-03  5.000000E-01  9.686527E-01  8.477509E-03  0.000000E+00  5.412242E-03 -1.074909E-03  2.036630E-19 -3.273938E-02  0.000000E+00
  9.534310E-01  9.557989E-03  5.000000E-01  9.630598E-01  9.579075E-03  0.000000E+00  5.754900E-03 -1.122389E-03 -3.508407E-19 -4.814287E-02  0.000000E+00
  9.474030E-01  1.072273E-02  5.000000E-01  9.569709E-01  1.075558E-02  0.000000E+00  6.105734E-03 -1.166874E-03 -2.638658E-19 -6.404654E-02  0.000000E+00
  9.408720E-01  1.195787E-02  5.000000E-01  9.503740E-01  1.200319E-02  0.000000E+00  6.461263E-03 -1.207412E-03 -1.147074E-19 -8.027251E-02  0.000000E+00
  9.338280E-01  1.325914E-02  5.000000E-01  9.432588E-01  1.331760E-02  0.000000E+00  6.817056E-03 -1.243051E-03  7.008682E-19 -9.665440E-02  0.000000E+00
  9.262600E-01  1.462195E-02  5.000000E-01  9.356144E-01  1.469418E-02  0.000000E+00  7.167869E-03 -1.272545E-03  5.319625E-19 -1.129473E-01  0.000000E+00
  9.181550E-01  1.604119E-02  5.000000E-01  9.274275E-01  1.612775E-02  0.000000E+00  7.507399E-03 -1.294766E-03  5.761200E-19 -1.289562E-01  0.000000E+00
  9.095020E-01  1.751156E-02  5.000000E-01  9.186872E-01  1.761297E-02  0.000000E+00  7.828561E-03 -1.308612E-03  1.226189E-18 -1.443715E-01  0.000000E+00
  9.002880E-01  1.902729E-02  5.000000E-01  9.093801E-01  1.914401E-02  0.000000E+00  8.122920E-03 -1.313143E-03  4.933691E-19 -1.586699E-01  0.000000E+00
  8.905020E-01  2.058252E-02  5.000000E-01  8.994953E-01  2.071494E-02  0.000000E+00  8.380709E-03 -1.308937E-03 -1.041635E-18 -1.715236E-01  0.000000E+00
  8.801320E-01  2.217457E-02  5.000000E-01  8.890205E-01  2.232307E-02  0.000000E+00  8.593702E-03 -1.298412E-03 -1.763752E-18 -1.830062E-01  0.000000E+00
  8.691700E-01  2.380462E-02  5.000000E-01  8.779478E-01  2.396958E-02  0.000000E+00  8.758499E-03 -1.284170E-03 -1.017213E-18 -1.933380E-01  0.000000E+00
  8.691700E-01  2.380462E-02  5.000000E-01  8.779478E-01  2.396958E-02  0.000000E+00  8.758499E-03 -1.284170E-03 -1.017213E-18 -1.933380E-01  0.000000E+00
  8.576080E-01  2.547616E-02  5.000000E-01  8.662691E-01  2.565801E-02  0.000000E+00  8.877281E-03 -1.268551E-03  5.787725E-19 -2.026587E-01  0.000000E+00
  8.454380E-01  2.719519E-02  5.000000E-01  8.539762E-01  2.739440E-02  0.000000E+00  8.957038E-03 -1.254743E-03  8.609564E-19 -2.111733E-01  0.000000E+00
  8.326580E-01  2.897097E-02  5.000000E-01  8.410671E-01  2.918811E-02  0.000000E+00  9.009868E-03 -1.246592E-03 -4.914961E-19 -2.194140E-01  0.000000E+00
  8.192630E-01  3.081666E-02  5.000000E-01  8.275368E-01  3.105244E-02  0.000000E+00  9.053975E-03 -1.248553E-03 -8.961021E-19 -2.287198E-01  0.000000E+00
  8.052550E-01  3.274954E-02  5.000000E-01  8.133874E-01  3.300484E-02  0.000000E+00  9.114894E-03 -1.264023E-03 -7.399120E-19 -2.410909E-01  0.000000E+00
  7.906370E-01  3.478603E-02  5.000000E-01  7.986217E-01  3.506190E-02  0.000000E+00  9.223259E-03 -1.291235E-03  8.394593E-19 -2.576808E-01  0.000000E+00
  7.754120E-01  3.692758E-02  5.000000E-01  7.832430E-01  3.722507E-02  0.000000E+00  9.404440E-03 -1.323605E-03  1.788082E-18 -2.781156E-01  0.000000E+00
  7.595880E-01  3.915593E-02  5.000000E-01  7.672592E-01  3.947593E-02  0.000000E+00  9.667412E-03 -1.355378E-03  1.535402E-18 -3.017648E-01  0.000000E+00
  7.431760E-01  4.144663E-02  5.000000E-01  7.506814E-01  4.178977E-02  0.000000E+00  1.000446E-02 -1.382555E-03  1.639636E-19 -3.280473E-01  0.000000E+00
  7.261880E-01  4.377127E-02  5.000000E-01  7.335218E-01  4.413788E-02  0.000000E+00  1.039646E-02 -1.400383E-03 -7.025152E-19 -3.556550E-01  0.000000E+00
  7.086430E-01  4.609857E-02  5.000000E-01  7.157997E-01  4.648868E-02  0.000000E+00  1.081675E-02 -1.404356E-03  1.806997E-20 -3.825956E-01  0.000000E+00
  6.905640E-01  4.839778E-02  5.000000E-01  6.975381E-01  4.881111E-02  0.000000E+00  1.123615E-02 -1.393734E-03  1.175240E-18 -4.073749E-01  0.000000E+00
  6.719770E-01  5.064763E-02  5.000000E-01  6.787634E-01  5.108368E-02  0.000000E+00  1.163148E-02 -1.374925E-03  1.249490E-18 -4.307593E-01  0.000000E+00
  6.529150E-01  5.284804E-02  5.000000E-01  6.595089E-01  5.330632E-02  0.000000E+00  1.199884E-02 -1.355145E-03 -1.059869E-18 -4.548032E-01  0.000000E+00
  6.334180E-01  5.500251E-02  5.000000E-01  6.398150E-01  5.548254E-02  0.000000E+00  1.235608E-02 -1.333363E-03 -1.215529E-18 -4.805433E-01  0.000000E+00
  6.135280E-01  5.709847E-02  5.000000E-01  6.197241E-01  5.759967E-02  0.000000E+00  1.272659E-02 -1.305198E-03 -6.322680E-19 -5.084975E-01  0.000000E+00
  5.932910E-01  5.911762E-02  5.000000E-01  5.992827E-01  5.963921E-02  0.000000E+00  1.312688E-02 -1.267039E-03 -5.468703E-19 -5.385733E-01  0.000000E+00
  5.727570E-01  6.103451E-02  5.000000E-01  5.785413E-01  6.157547E-02  0.000000E+00  1.356221E-02 -1.213404E-03  5.901740E-19 -5.687233E-01  0.000000E+00
  5.519810E-01  6.281650E-02  5.000000E-01  5.575555E-01  6.337545E-02  0.000000E+00  1.402174E-02 -1.139504E-03 -2.941936E-19 -5.961434E-01  0.000000E+00
  5.310180E-01  6.442992E-02  5.000000E-01  5.363808E-01  6.500516E-02  0.000000E+00  1.447957E-02 -1.051320E-03 -8.729849E-19 -6.212307E-01  0.000000E+00
  5.099250E-01  6.587120E-02  5.000000E-01  5.150748E-01  6.646100E-02  0.000000E+00  1.491675E-02 -9.615127E-04  1.564501E-19 -6.475569E-01  0.000000E+00
  4.887640E-01  6.715419E-02  5.000000E-01  4.937001E-01  6.775695E-02  0.000000E+00  1.534530E-02 -8.672280E-04  3.871120E-19 -6.760571E-01  0.000000E+00
  4.675910E-01  6.826645E-02  5.000000E-01  4.723133E-01  6.888043E-02  0.000000E+00  1.578969E-02 -7.534583E-04  1.866854E-19 -7.041830E-01  0.000000E+00
  7.860720E-05 -4.426729E-04  5.000000E-01  7.940615E-05 -5.225841E-04  0.000000E+00 -1.122916E-02  3.626733E-02  6.451176E-15  7.928091E-01  0.000000E+00
  3.989240E-04 -1.047073E-03  5.000000E-01  4.029579E-04 -1.133088E-03  0.000000E+00 -1.022910E-02  1.602784E-02  4.281692E-15  1.080881E+00  0.000000E+00
  1.196920E-03 -1.779435E-03  5.000000E-01  1.209013E-03 -1.872846E-03  0.000000E+00 -2.693783E-03  2.815936E-03  2.535782E-15  1.079497E+00  0.000000E+00
  2.563580E-03 -2.547495E-03  5.000000E-01  2.589475E-03 -2.648663E-03  0.000000E+00  4.643701E-03 -2.013989E-03  9.247231E-16  9.357353E-01  0.000000E+00
  4.492740E-03 -3.310404E-03  5.000000E-01  4.538118E-03 -3.419276E-03  0.000000E+00  8.994526E-03 -3.103214E-03 -1.298831E-16  8.113888E-01  0.000000E+00
  6.952190E-03 -4.064874E-03  5.000000E-01  7.022406E-03 -4.181366E-03  0.000000E+00  1.117907E-02 -3.148624E-03 -4.759763E-16  7.250268E-01  0.000000E+00
  9.910730E-03 -4.832565E-03  5.000000E-01  1.001082E-02 -4.956810E-03  0.000000E+00  1.231025E-02 -3.033917E-03 -4.250911E-16  6.569570E-01  0.000000E+00
  1.334950E-02 -5.638900E-03  5.000000E-01  1.348432E-02 -5.771288E-03  0.000000E+00  1.297851E-02 -2.872407E-03 -2.830149E-16  5.901127E-01  0.000000E+00
  1.728780E-02 -6.462494E-03  5.000000E-01  1.746240E-02 -6.603200E-03  0.000000E+00  1.337679E-02 -2.580300E-03 -1.659566E-16  5.179392E-01  0.000000E+00
  2.175590E-02 -7.253475E-03  5.000000E-01  2.197562E-02 -7.402169E-03  0.000000E+00  1.355922E-02 -2.175323E-03 -8.429685E-17  4.507153E-01  0.000000E+00
  2.676920E-02 -7.973660E-03  5.000000E-01  2.703955E-02 -8.129628E-03  0.000000E+00  1.359329E-02 -1.757592E-03 -2.662391E-17  3.998803E-01  0.000000E+00
  3.232800E-02 -8.611343E-03  5.000000E-01  3.265449E-02 -8.773750E-03  0.000000E+00  1.355146E-02 -1.400644E-03  1.015865E-17  3.663646E-01  0.000000E+00
  3.842930E-02 -9.172408E-03  5.000000E-01  3.881741E-02 -9.340482E-03  0.000000E+00  1.347668E-02 -1.125600E-03  2.488056E-17  3.440043E-01  0.000000E+00
  4.507220E-02 -9.671079E-03  5.000000E-01  4.552739E-02 -9.844189E-03  0.000000E+00  1.340116E-02 -9.392896E-04  2.260310E-17  3.281738E-01  0.000000E+00
  5.225680E-02 -1.013818E-02  5.000000E-01  5.278455E-02 -1.031601E-02  0.000000E+00  1.336113E-02 -8.394534E-04  1.297288E-17  3.162522E-01  0.000000E+00
  5.998640E-02 -1.060725E-02  5.000000E-01  6.059221E-02 -1.078981E-02  0.000000E+00  1.336418E-02 -7.883670E-04  3.905193E-18  3.029726E-01  0.000000E+00
  6.827110E-02 -1.108302E-02  5.000000E-01  6.896058E-02 -1.127039E-02  0.000000E+00  1.338556E-02 -7.440577E-04 -1.231738E-18  2.854243E-01  0.000000E+00
  7.712280E-02 -1.155873E-02  5.000000E-01  7.790168E-02 -1.175090E-02  0.000000E+00  1.340319E-02 -6.956980E-04 -2.396664E-18  2.664202E-01  0.000000E+00
  8.655260E-02 -1.203027E-02  5.000000E-01  8.742671E-02 -1.222721E-02  0.000000E+00  1.340445E-02 -6.425533E-04 -2.175219E-18  2.484453E-01  0.000000E+00
  9.657140E-02 -1.248992E-02  5.000000E-01  9.754669E-02 -1.269149E-02  0.000000E+00  1.337422E-02 -5.754178E-04 -1.903584E-18  2.310569E-01  0.000000E+00
  1.071900E-01 -1.291680E-02  5.000000E-01  1.082725E-01 -1.312269E-02  0.000000E+00  1.330483E-02 -4.924225E-04 -1.005624E-18  2.145411E-01  0.000000E+00
  1.184180E-01 -1.329585E-02  5.000000E-01  1.196139E-01 -1.350557E-02  0.000000E+00  1.321249E-02 -4.101461E-04 -2.733818E-19  2.011285E-01  0.000000E+00
  1.302610E-01 -1.363052E-02  5.000000E-01  1.315765E-01 -1.384362E-02  0.000000E+00  1.312446E-02 -3.444084E-04  1.220293E-20  1.911250E-01  0.000000E+00
  1.427230E-01 -1.393214E-02  5.000000E-01  1.441644E-01 -1.414829E-02  0.000000E+00  1.305753E-02 -2.992576E-04  2.878827E-19  1.826520E-01  0.000000E+00
  1.427230E-01 -1.393214E-02  5.000000E-01  1.441644E-01 -1.414829E-02  0.000000E+00  1.305753E-02 -2.992576E-04  2.878827E-19  1.826520E-01  0.000000E+00
  1.558070E-01 -1.421538E-02  5.000000E-01  1.573805E-01 -1.443439E-02  0.000000E+00  1.300696E-02 -2.660641E-04  1.632585E-19  1.734773E-01  0.000000E+00
  1.695140E-01 -1.447998E-02  5.000000E-01  1.712259E-01 -1.470166E-02  0.000000E+00  1.294966E-02 -2.284500E-04 -1.461606E-19  1.623941E-01  0.000000E+00
  1.838420E-01 -1.470908E-02  5.000000E-01  1.856986E-01 -1.493307E-02  0.000000E+00  1.286205E-02 -1.747369E-04 -1.735627E-19  1.504030E-01  0.000000E+00
  1.987870E-01 -1.487597E-02  5.000000E-01  2.007946E-01 -1.510164E-02  0.000000E+00  1.273562E-02 -1.028095E-04 -2.073557E-19  1.393857E-01  0.000000E+00
  2.143420E-01 -1.495268E-02  5.000000E-01  2.165067E-01 -1.517913E-02  0.000000E+00  1.258692E-02 -2.606251E-05 -3.156804E-19  1.313975E-01  0.000000E+00
  2.304940E-01 -1.493830E-02  5.000000E-01  2.328218E-01 -1.516461E-02  0.000000E+00  1.245339E-02  3.079118E-05 -2.423748E-19  1.278159E-01  0.000000E+00
  2.472290E-01 -1.486930E-02  5.000000E-01  2.497258E-01 -1.509490E-02  0.000000E+00  1.236562E-02  5.677800E-05 -1.264273E-19  1.267204E-01  0.000000E+00
  2.645310E-01 -1.478245E-02  5.000000E-01  2.672025E-01 -1.500718E-02  0.000000E+00  1.232211E-02  6.833532E-05  9.801590E-20  1.235250E-01  0.000000E+00
  2.823750E-01 -1.467573E-02  5.000000E-01  2.852267E-01 -1.489939E-02  0.000000E+00  1.229571E-02  9.127543E-05  2.496893E-19  1.158193E-01  0.000000E+00
  3.007320E-01 -1.451347E-02  5.000000E-01  3.037691E-01 -1.473548E-02  0.000000E+00  1.225929E-02  1.363969E-04  2.130854E-19  1.058539E-01  0.000000E+00
  3.195690E-01 -1.426001E-02  5.000000E-01  3.227964E-01 -1.447946E-02  0.000000E+00  1.219756E-02  1.982843E-04  1.348157E-19  9.728530E-02  0.000000E+00
  3.388440E-01 -1.389158E-02  5.000000E-01  3.422660E-01 -1.410732E-02  0.000000E+00  1.210232E-02  2.665541E-04  1.362865E-19  9.190829E-02  0.000000E+00
  3.585140E-01 -1.340032E-02  5.000000E-01  3.621347E-01 -1.361109E-02  0.000000E+00  1.196364E-02  3.346424E-04  1.100277E-19  8.938674E-02  0.000000E+00
  3.785290E-01 -1.278017E-02  5.000000E-01  3.823518E-01 -1.298468E-02  0.000000E+00  1.176758E-02  4.014527E-04 -5.168160E-19  8.871259E-02  0.000000E+00
  3.988350E-01 -1.202274E-02  5.000000E-01  4.028629E-01 -1.221960E-02  0.000000E+00  1.150583E-02  4.667161E-04 -6.419691E-19  9.006439E-02  0.000000E+00
  4.193750E-01 -1.112090E-02  5.000000E-01  4.236103E-01 -1.130865E-02  0.000000E+00  1.118490E-02  5.334314E-04 -1.519529E-19  9.384660E-02  0.000000E+00
  4.400850E-01 -1.005290E-02  5.000000E-01  4.445295E-01 -1.022987E-02  0.000000E+00  1.083559E-02  6.002449E-04  7.086343E-19  1.005687E-01  0.000000E+00
  4.609060E-01 -8.816704E-03  5.000000E-01  4.655607E-01 -8.981185E-03  0.000000E+00  1.051765E-02  6.463648E-04  8.897237E-19  1.119525E-01  0.000000E+00
  4.818030E-01 -7.484922E-03  5.000000E-01  4.866688E-01 -7.635954E-03  0.000000E+00  1.029518E-02  6.430524E-04 -1.704570E-19  1.285018E-01  0.000000E+00
  5.027520E-01 -6.201855E-03  5.000000E-01  5.078293E-01 -6.339928E-03  0.000000E+00  1.018139E-02  5.953748E-04 -1.601417E-19  1.444642E-01  0.000000E+00
  5.237130E-01 -5.038627E-03  5.000000E-01  5.290020E-01 -5.164953E-03  0.000000E+00  1.011063E-02  5.550032E-04 -1.972625E-19  1.506498E-01  0.000000E+00
  5.446170E-01 -3.909639E-03  5.000000E-01  5.501171E-01 -4.024564E-03  0.000000E+00  9.988231E-03  5.662913E-04 -6.726453E-19  1.464086E-01  0.000000E+00
  5.653940E-01 -2.673515E-03  5.000000E-01  5.711040E-01 -2.775956E-03  0.000000E+00  9.769325E-03  6.154273E-04 -2.880021E-19  1.433538E-01  0.000000E+00
  4.675910E-01  6.826645E-02  5.000000E-01  4.723133E-01  6.888043E-02  0.000000E+00  1.578969E-02 -7.534583E-04  1.866854E-19 -7.041830E-01  0.000000E+00
  4.464640E-01  6.917636E-02  5.000000E-01  4.509729E-01  6.979953E-02  0.000000E+00  1.625398E-02 -6.177245E-04 -3.826148E-20 -7.307458E-01  0.000000E+00
  4.254410E-01  6.987176E-02  5.000000E-01  4.297376E-01  7.050197E-02  0.000000E+00  1.672708E-02 -4.666997E-04 -1.232711E-19 -7.563759E-01  0.000000E+00
  4.045840E-01  7.034840E-02  5.000000E-01  4.086699E-01  7.098342E-02  0.000000E+00  1.720011E-02 -3.026020E-04 -1.605239E-19 -7.815645E-01  0.000000E+00
  3.839530E-01  7.060543E-02  5.000000E-01  3.878306E-01  7.124304E-02  0.000000E+00  1.767027E-02 -1.230167E-04 -1.869202E-19 -8.061264E-01  0.000000E+00
  3.636060E-01  7.063808E-02  5.000000E-01  3.672781E-01  7.127602E-02  0.000000E+00  1.813781E-02  7.565003E-05  1.956481E-20 -8.290722E-01  0.000000E+00
  3.435960E-01  7.044231E-02  5.000000E-01  3.470660E-01  7.107828E-02  0.000000E+00  1.859971E-02  2.946115E-04  4.507316E-21 -8.494042E-01  0.000000E+00
  3.239710E-01  7.001573E-02  5.000000E-01  3.272428E-01  7.064739E-02  0.000000E+00  1.904718E-02  5.293428E-04 -1.390290E-19 -8.674703E-01  0.000000E+00
  3.047740E-01  6.936809E-02  5.000000E-01  3.078519E-01  6.999320E-02  0.000000E+00  1.947427E-02  7.728276E-04  7.725180E-20 -8.846907E-01  0.000000E+00
  2.860450E-01  6.851551E-02  5.000000E-01  2.889338E-01  6.913201E-02  0.000000E+00  1.988972E-02  1.029064E-03  3.684335E-19 -9.008950E-01  0.000000E+00
  2.678190E-01  6.746184E-02  5.000000E-01  2.705237E-01  6.806770E-02  0.000000E+00  2.030393E-02  1.305365E-03  2.724363E-19 -9.151513E-01  0.000000E+00
  2.501300E-01  6.621234E-02  5.000000E-01  2.526561E-01  6.680558E-02  0.000000E+00  2.071611E-02  1.600645E-03 -1.846805E-19 -9.278641E-01  0.000000E+00
  2.330040E-01  6.477746E-02  5.000000E-01  2.353571E-01  6.535622E-02  0.000000E+00  2.112240E-02  1.912153E-03 -4.711325E-19 -9.399458E-01  0.000000E+00
  2.164660E-01  6.317016E-02  5.000000E-01  2.186521E-01  6.373268E-02  0.000000E+00  2.152427E-02  2.240174E-03 -1.049119E-19 -9.512914E-01  0.000000E+00
  2.005340E-01  6.140438E-02  5.000000E-01  2.025592E-01  6.194906E-02  0.000000E+00  2.193183E-02  2.595284E-03  3.824379E-19 -9.589647E-01  0.000000E+00
  1.852230E-01  5.948111E-02  5.000000E-01  1.870936E-01  6.000638E-02  0.000000E+00  2.234392E-02  2.982738E-03  5.246644E-19 -9.605518E-01  0.000000E+00
  1.705440E-01  5.740880E-02  5.000000E-01  1.722663E-01  5.791314E-02  0.000000E+00  2.273980E-02  3.385330E-03  8.407719E-19 -9.595531E-01  0.000000E+00
  1.565000E-01  5.521076E-02  5.000000E-01  1.580805E-01  5.569290E-02  0.000000E+00  2.311469E-02  3.787857E-03  9.848721E-19 -9.634871E-01  0.000000E+00
  1.430940E-01  5.291441E-02  5.000000E-01  1.445391E-01  5.337335E-02  0.000000E+00  2.350976E-02  4.213478E-03  9.203902E-19 -9.754316E-01  0.000000E+00
  1.303270E-01  5.052586E-02  5.000000E-01  1.316432E-01  5.096069E-02  0.000000E+00  2.398476E-02  4.730548E-03  6.594404E-20 -9.864282E-01  0.000000E+00
  1.182110E-01  4.801705E-02  5.000000E-01  1.194048E-01  4.842654E-02  0.000000E+00  2.452440E-02  5.375821E-03 -1.659684E-19 -9.819601E-01  0.000000E+00
  1.067560E-01  4.537295E-02  5.000000E-01  1.078341E-01  4.575574E-02  0.000000E+00  2.500247E-02  6.104902E-03  1.650739E-19 -9.532548E-01  0.000000E+00
  9.596750E-02  4.259856E-02  5.000000E-01  9.693669E-02  4.295333E-02  0.000000E+00  2.524440E-02  6.780067E-03  4.402008E-19 -9.083043E-01  0.000000E+00
  8.582800E-02  3.975779E-02  5.000000E-01  8.669479E-02  4.008386E-02  0.000000E+00  2.518377E-02  7.278957E-03  1.338222E-18 -8.653960E-01  0.000000E+00
  8.582800E-02  3.975779E-02  5.000000E-01  8.669479E-02  4.008386E-02  0.000000E+00  2.518377E-02  7.278957E-03  1.338222E-18 -8.653960E-01  0.000000E+00
  7.631050E-02  3.692041E-02  5.000000E-01  7.708117E-02  3.721783E-02  0.000000E+00  2.495038E-02  7.671561E-03  3.169995E-18 -8.285065E-01  0.000000E+00
  6.740780E-02  3.409956E-02  5.000000E-01  6.808856E-02  3.436850E-02  0.000000E+00  2.470369E-02  8.088430E-03  3.198028E-18 -7.908574E-01  0.000000E+00
  5.911740E-02  3.129726E-02  5.000000E-01  5.971444E-02  3.153790E-02  0.000000E+00  2.449580E-02  8.552787E-03 -2.149304E-18 -7.496962E-01  0.000000E+00
  5.143150E-02  2.852774E-02  5.000000E-01  5.195092E-02  2.874041E-02  0.000000E+00  2.430661E-02  9.033146E-03 -1.966899E-17 -7.057386E-01  0.000000E+00
  4.433770E-02  2.581090E-02  5.000000E-01  4.478548E-02  2.599613E-02  0.000000E+00  2.410008E-02  9.505811E-03 -5.308404E-17 -6.615242E-01  0.000000E+00
  3.782240E-02  2.316579E-02  5.000000E-01  3.820438E-02  2.332430E-02  0.000000E+00  2.385718E-02  9.973109E-03 -8.813974E-17 -6.208238E-01  0.000000E+00
  3.187460E-02  2.060607E-02  5.000000E-01  3.219651E-02  2.073874E-02  0.000000E+00  2.359031E-02  1.046081E-02 -9.611289E-17 -5.865977E-01  0.000000E+00
  2.648400E-02  1.814348E-02  5.000000E-01  2.675147E-02  1.825127E-02  0.000000E+00  2.333287E-02  1.103558E-02 -4.018391E-17 -5.528372E-01  0.000000E+00
  2.164990E-02  1.577957E-02  5.000000E-01  2.186855E-02  1.586348E-02  0.000000E+00  2.305650E-02  1.175113E-02  1.357499E-16 -5.026660E-01  0.000000E+00
  1.737670E-02  1.351443E-02  5.000000E-01  1.755219E-02  1.357547E-02  0.000000E+00  2.260490E-02  1.246611E-02  5.110519E-16 -4.302116E-01  0.000000E+00
  1.364080E-02  1.137249E-02  5.000000E-01  1.377856E-02  1.141190E-02  0.000000E+00  2.183649E-02  1.290068E-02  1.023420E-15 -3.545980E-01  0.000000E+00
  1.039090E-02  9.391811E-03  5.000000E-01  1.049584E-02  9.411220E-03  0.000000E+00  2.082076E-02  1.300554E-02  1.263256E-15 -3.003453E-01  0.000000E+00
  7.586340E-03  7.594177E-03  5.000000E-01  7.662960E-03  7.595431E-03  0.000000E+00  1.981840E-02  1.314218E-02  7.970072E-16 -2.725989E-01  0.000000E+00
  5.226210E-03  5.974455E-03  5.000000E-01  5.278995E-03  5.959351E-03  0.000000E+00  1.913472E-02  1.385553E-02 -1.115002E-16 -2.625994E-01  0.000000E+00
  3.324300E-03  4.522813E-03  5.000000E-01  3.357878E-03  4.493049E-03  0.000000E+00  1.904901E-02  1.574325E-02 -8.334623E-16 -2.620565E-01  0.000000E+00
  1.883580E-03  3.241474E-03  5.000000E-01  1.902608E-03  3.198770E-03  0.000000E+00  1.959211E-02  1.965632E-02 -1.743161E-15 -2.472932E-01  0.000000E+00
  8.951490E-04  2.143016E-03  5.000000E-01  9.041943E-04  2.089218E-03  0.000000E+00  1.976920E-02  2.632190E-02 -3.425088E-15 -1.674225E-01  0.000000E+00
  3.201820E-04  1.252029E-03  5.000000E-01  3.234206E-04  1.189233E-03  0.000000E+00  1.720457E-02  3.450660E-02 -3.565323E-15  1.834356E-02  0.000000E+00
  6.852390E-05  5.986245E-04  5.000000E-01  6.922101E-05  5.292295E-04  0.000000E+00  1.090016E-02  3.991763E-02  1.296695E-15  2.429157E-01  0.000000E+00
  4.217600E-06  2.051860E-04  5.000000E-01  4.265277E-06  1.318176E-04  0.000000E+00  4.103763E-03  4.145554E-02  9.152594E-15  3.220289E-01  0.000000E+00
 -5.032520E-09  7.468630E-05  5.000000E-01  0.000000E+00  0.000000E+00  0.000000E+00 -6.907292E-04  4.745060E-02  1.259484E-14  2.784544E-01  0.000000E+00
  5.154440E-06 -5.618394E-05  5.000000E-01  5.211579E-06 -1.321919E-04  0.000000E+00 -5.898796E-03  5.017332E-02  9.955564E-15  4.155648E-01  0.000000E+00