 Title = "ADflow Slice Data"
Variables =  "CoordinateX"  "CoordinateY"  "CoordinateZ"  "XoC"  "YoC"  "ZoC" "VelocityX" "VelocityY" "VelocityZ" "CoefPressure" "Mach" 
Zone T= "Slice_0001 None Absolute Regular z = 0.50000000"
 Nodes =          192  Elements=          184  ZONETYPE=FELINESEG
 DATAPACKING=POINT
  5.653940E-01 -8.578824E-03  5.000000E-01  5.711039E-01 -8.734928E-03  0.000000E+00  1.245862E-02 -6.659456E-04 -7.895912E-19  7.540408E-02  0.000000E+00
  5.859770E-01 -9.649917E-03  5.000000E-01  5.918947E-01 -9.816838E-03  0.000000E+00  1.293111E-02 -6.283847E-04 -2.087644E-18  4.141343E-02  0.000000E+00
  6.063060E-01 -1.057051E-02  5.000000E-01  6.124290E-01 -1.074673E-02  0.000000E+00  1.342267E-02 -5.436369E-04 -1.407108E-18  8.048248E-03  0.000000E+00
  6.263240E-01 -1.128843E-02  5.000000E-01  6.326492E-01 -1.147190E-02  0.000000E+00  1.391414E-02 -4.218642E-04 -3.080449E-19 -2.303492E-02  0.000000E+00
  6.459860E-01 -1.177878E-02  5.000000E-01  6.525098E-01 -1.196720E-02  0.000000E+00  1.433788E-02 -2.561401E-04  1.414061E-19 -5.184094E-02  0.000000E+00
  6.652460E-01 -1.199116E-02  5.000000E-01  6.719643E-01 -1.218173E-02  0.000000E+00  1.455009E-02 -7.261180E-06  4.464308E-19 -7.983303E-02  0.000000E+00
  6.840650E-01 -1.180621E-02  5.000000E-01  6.909733E-01 -1.199491E-02  0.000000E+00  1.435944E-02  3.563962E-04  2.899578E-19 -1.049194E-01  0.000000E+00
  7.024070E-01 -1.106771E-02  5.000000E-01  7.095006E-01 -1.124895E-02  0.000000E+00  1.362586E-02  7.827051E-04 -6.883930E-19 -1.156375E-01  0.000000E+00
  7.202400E-01 -9.709281E-03  5.000000E-01  7.275137E-01 -9.876802E-03  0.000000E+00  1.233558E-02  1.151780E-03 -1.318277E-18 -9.940058E-02  0.000000E+00
  7.375350E-01 -7.753588E-03  5.000000E-01  7.449833E-01 -7.901358E-03  0.000000E+00  1.060334E-02  1.366077E-03 -4.207928E-19 -5.447444E-02  0.000000E+00
  7.542690E-01 -5.280286E-03  5.000000E-01  7.618863E-01 -5.403079E-03  0.000000E+00  8.639577E-03  1.394279E-03  1.404958E-18  1.163892E-02  0.000000E+00
  7.704220E-01 -2.399308E-03  5.000000E-01  7.782024E-01 -2.493006E-03  0.000000E+00  6.689425E-03  1.265726E-03  2.295541E-20  8.757363E-02  0.000000E+00
  7.859770E-01  7.669123E-04  5.000000E-01  7.939145E-01  7.051899E-04  0.000000E+00  4.990333E-03  1.032754E-03 -1.792902E-18  1.675889E-01  0.000000E+00
  8.009220E-01  3.938320E-03  5.000000E-01  8.090105E-01  3.908626E-03  0.000000E+00  3.719678E-03  7.653152E-04 -7.787550E-19  2.475015E-01  0.000000E+00
  8.152480E-01  6.757637E-03  5.000000E-01  8.234811E-01  6.756415E-03  0.000000E+00  2.918606E-03  5.386851E-04  1.561588E-18  3.125919E-01  0.000000E+00
  8.289490E-01  9.061140E-03  5.000000E-01  8.373205E-01  9.083181E-03  0.000000E+00  2.507689E-03  3.816124E-04  1.796210E-18  3.534656E-01  0.000000E+00
  8.420260E-01  1.081826E-02  5.000000E-01  8.505296E-01  1.085805E-02  0.000000E+00  2.376594E-03  2.779352E-04  7.180861E-19  3.765655E-01  0.000000E+00
  8.544790E-01  1.206286E-02  5.000000E-01  8.631083E-01  1.211522E-02  0.000000E+00  2.437931E-03  2.023493E-04  1.165380E-18  3.905619E-01  0.000000E+00
  8.663160E-01  1.285938E-02  5.000000E-01  8.750649E-01  1.291978E-02  0.000000E+00  2.630177E-03  1.359474E-04  5.019940E-19  3.992084E-01  0.000000E+00
  8.775420E-01  1.328038E-02  5.000000E-01  8.864042E-01  1.334504E-02  0.000000E+00  2.906737E-03  6.855915E-05  3.559525E-19  4.034822E-01  0.000000E+00
  8.881660E-01  1.339765E-02  5.000000E-01  8.971355E-01  1.346348E-02  0.000000E+00  3.232093E-03 -3.653050E-06  8.774383E-19  4.039946E-01  0.000000E+00
  8.981970E-01  1.327636E-02  5.000000E-01  9.072678E-01  1.334097E-02  0.000000E+00  3.582760E-03 -8.217197E-05  1.059920E-18  4.016981E-01  0.000000E+00
  9.076460E-01  1.296747E-02  5.000000E-01  9.168123E-01  1.302896E-02  0.000000E+00  3.948083E-03 -1.692833E-04  9.498079E-19  3.977073E-01  0.000000E+00
  9.165220E-01  1.250496E-02  5.000000E-01  9.257779E-01  1.256177E-02  0.000000E+00  4.326559E-03 -2.671865E-04  6.035340E-19  3.923545E-01  0.000000E+00
  9.165220E-01  1.250496E-02  5.000000E-01  9.257779E-01  1.256177E-02  0.000000E+00  4.326559E-03 -2.671865E-04  6.035340E-19  3.923545E-01  0.000000E+00
  9.248360E-01  1.191796E-02  5.000000E-01  9.341759E-01  1.196885E-02  0.000000E+00  4.719682E-03 -3.763827E-04  9.049258E-19  3.852910E-01  0.000000E+00
  9.325990E-01  1.123353E-02  5.000000E-01  9.420173E-01  1.127751E-02  0.000000E+00  5.129394E-03 -4.968273E-04  1.044377E-18  3.764314E-01  0.000000E+00
  9.398210E-01  1.047615E-02  5.000000E-01  9.493122E-01  1.051249E-02  0.000000E+00  5.558351E-03 -6.287634E-04  6.771440E-19  3.659173E-01  0.000000E+00
  9.465130E-01  9.668124E-03  5.000000E-01  9.560718E-01  9.696294E-03  0.000000E+00  6.009600E-03 -7.726003E-04 -2.021997E-20  3.538097E-01  0.000000E+00
  9.526870E-01  8.829687E-03  5.000000E-01  9.623081E-01  8.849390E-03  0.000000E+00  6.485980E-03 -9.287412E-04 -2.309126E-22  3.401208E-01  0.000000E+00
  9.583540E-01  7.979357E-03  5.000000E-01  9.680324E-01  7.990472E-03  0.000000E+00  6.990096E-03 -1.097540E-03  1.383976E-20  3.248561E-01  0.000000E+00
  9.635240E-01  7.134126E-03  5.000000E-01  9.732546E-01  7.136705E-03  0.000000E+00  7.524980E-03 -1.279240E-03 -3.105372E-19  3.079961E-01  0.000000E+00
  9.682080E-01  6.309474E-03  5.000000E-01  9.779859E-01  6.303726E-03  0.000000E+00  8.096144E-03 -1.474538E-03 -2.977829E-19  2.895765E-01  0.000000E+00
  9.724140E-01  5.519688E-03  5.000000E-01  9.822344E-01  5.505963E-03  0.000000E+00  8.714298E-03 -1.685008E-03 -3.263410E-19  2.696597E-01  0.000000E+00
  9.761510E-01  4.777684E-03  5.000000E-01  9.860091E-01  4.756466E-03  0.000000E+00  9.395100E-03 -1.912805E-03 -4.050520E-19  2.482653E-01  0.000000E+00
  9.794290E-01  4.094934E-03  5.000000E-01  9.893202E-01  4.066821E-03  0.000000E+00  1.014993E-02 -2.159790E-03 -1.291444E-18  2.254622E-01  0.000000E+00
  9.822540E-01  3.481907E-03  5.000000E-01  9.921737E-01  3.447603E-03  0.000000E+00  1.096217E-02 -2.422466E-03 -1.007299E-18  2.015809E-01  0.000000E+00
  9.846330E-01  2.947619E-03  5.000000E-01  9.945767E-01  2.907919E-03  0.000000E+00  1.175893E-02 -2.680915E-03  9.659067E-19  1.779617E-01  0.000000E+00
  9.865710E-01  2.499849E-03  5.000000E-01  9.965343E-01  2.455628E-03  0.000000E+00  1.236366E-02 -2.880062E-03  1.856107E-18  1.536004E-01  0.000000E+00
  9.880740E-01  2.144862E-03  5.000000E-01  9.980525E-01  2.097056E-03  0.000000E+00  1.249834E-02 -2.981404E-03 -2.847293E-18  1.232247E-01  0.000000E+00
  9.891450E-01  1.887699E-03  5.000000E-01  9.991343E-01  1.837296E-03  0.000000E+00  1.278872E-02 -3.166511E-03 -2.527884E-17  1.155380E-01  0.000000E+00
  9.897860E-01  1.732010E-03  5.000000E-01  9.997818E-01  1.680034E-03  0.000000E+00  1.598554E-02 -3.396867E-03 -7.151581E-17  1.508961E-01  0.000000E+00
  9.900000E-01  1.679833E-03  5.000000E-01  9.999979E-01  1.627330E-03  0.000000E+00  1.092577E-02 -5.973597E-03 -7.620958E-17 -1.033644E-01  0.000000E+00
  9.900000E-01  1.758543E-03  5.000000E-01  9.999979E-01  1.706835E-03  0.000000E+00  1.062754E-03 -1.661066E-02  5.446279E-18 -2.397679E-01  0.000000E+00
  9.900000E-01  1.837263E-03  5.000000E-01  9.999979E-01  1.786350E-03  0.000000E+00 -5.378194E-04 -1.674960E-02  8.842382E-17 -6.640370E-02  0.000000E+00
  9.900000E-01  1.915983E-03  5.000000E-01  9.999979E-01  1.865865E-03  0.000000E+00 -2.021132E-04 -2.241969E-03  1.114510E-16 -7.250089E-02  0.000000E+00
  9.900000E-01  1.994693E-03  5.000000E-01  9.999979E-01  1.945370E-03  0.000000E+00  5.505489E-04  3.226639E-04  1.303366E-16 -1.578760E-01  0.000000E+00
  9.900000E-01  2.073414E-03  5.000000E-01  9.999979E-01  2.024885E-03  0.000000E+00  4.144747E-03 -3.124502E-03  1.468381E-16 -8.142486E-02  0.000000E+00
  9.900000E-01  2.073414E-03  5.000000E-01  9.999979E-01  2.024885E-03  0.000000E+00  4.144747E-03 -3.124502E-03  1.468381E-16 -8.142486E-02  0.000000E+00
  9.897900E-01  2.134989E-03  5.000000E-01  9.997858E-01  2.087083E-03  0.000000E+00  5.040910E-03 -1.728863E-03  9.989772E-17  2.179860E-02  0.000000E+00
  9.891580E-01  2.319600E-03  5.000000E-01  9.991474E-01  2.273558E-03  0.000000E+00  2.469685E-03 -6.731888E-04  3.394896E-17 -1.136182E-02  0.000000E+00
  9.881040E-01  2.626385E-03  5.000000E-01  9.980828E-01  2.583441E-03  0.000000E+00  1.558716E-03 -4.505802E-04  3.562599E-18 -1.953164E-02  0.000000E+00
  9.866260E-01  3.054049E-03  5.000000E-01  9.965899E-01  3.015424E-03  0.000000E+00  1.148568E-03 -3.356071E-04 -3.416650E-18 -1.684417E-02  0.000000E+00
  9.847200E-01  3.600809E-03  5.000000E-01  9.946646E-01  3.567706E-03  0.000000E+00  8.671541E-04 -2.477053E-04 -2.199931E-18 -1.854902E-02  0.000000E+00
  9.823820E-01  4.264157E-03  5.000000E-01  9.923030E-01  4.237754E-03  0.000000E+00  7.273621E-04 -2.046267E-04 -5.147127E-19 -2.301693E-02  0.000000E+00
  9.796080E-01  5.040765E-03  5.000000E-01  9.895010E-01  5.022204E-03  0.000000E+00  7.174806E-04 -1.991295E-04  1.686604E-19 -2.850020E-02  0.000000E+00
  9.763910E-01  5.926621E-03  5.000000E-01  9.862515E-01  5.917006E-03  0.000000E+00  8.021051E-04 -2.186416E-04 -8.693623E-20 -3.512757E-02  0.000000E+00
  9.727270E-01  6.916373E-03  5.000000E-01  9.825505E-01  6.916753E-03  0.000000E+00  9.526401E-04 -2.541098E-04  2.231036E-19 -4.312316E-02  0.000000E+00
  9.686070E-01  8.003883E-03  5.000000E-01  9.783889E-01  8.015246E-03  0.000000E+00  1.151177E-03 -2.994305E-04  9.236638E-19 -5.251898E-02  0.000000E+00
  9.640240E-01  9.181406E-03  5.000000E-01  9.737596E-01  9.204661E-03  0.000000E+00  1.388438E-03 -3.506376E-04 -2.292662E-20 -6.334309E-02  0.000000E+00
  9.589680E-01  1.043979E-02  5.000000E-01  9.686526E-01  1.047575E-02  0.000000E+00  1.661102E-03 -4.052844E-04 -1.726326E-19 -7.557810E-02  0.000000E+00
  9.534310E-01  1.176788E-02  5.000000E-01  9.630596E-01  1.181726E-02  0.000000E+00  1.968570E-03 -4.613617E-04 -3.995187E-19 -8.914364E-02  0.000000E+00
  9.474030E-01  1.315254E-02  5.000000E-01  9.569708E-01  1.321590E-02  0.000000E+00  2.309993E-03 -5.164282E-04 -8.345186E-19 -1.038483E-01  0.000000E+00
  9.408720E-01  1.457822E-02  5.000000E-01  9.503738E-01  1.465597E-02  0.000000E+00  2.682067E-03 -5.672764E-04 -5.150100E-19 -1.194257E-01  0.000000E+00
  9.338280E-01  1.602654E-02  5.000000E-01  9.432587E-01  1.611892E-02  0.000000E+00  3.077686E-03 -6.097444E-04 -1.282533E-19 -1.354887E-01  0.000000E+00
  9.262600E-01  1.747609E-02  5.000000E-01  9.356142E-01  1.758311E-02  0.000000E+00  3.484499E-03 -6.386018E-04  4.786887E-19 -1.514422E-01  0.000000E+00
  9.181550E-01  1.890172E-02  5.000000E-01  9.274274E-01  1.902314E-02  0.000000E+00  3.883428E-03 -6.479632E-04 -9.496456E-20 -1.665377E-01  0.000000E+00
  9.095020E-01  2.027449E-02  5.000000E-01  9.186870E-01  2.040978E-02  0.000000E+00  4.247555E-03 -6.318245E-04 -1.274656E-18 -1.797693E-01  0.000000E+00
  9.002880E-01  2.156086E-02  5.000000E-01  9.093800E-01  2.170914E-02  0.000000E+00  4.541159E-03 -5.852865E-04 -1.634545E-18 -1.898118E-01  0.000000E+00
  8.905020E-01  2.272290E-02  5.000000E-01  8.994951E-01  2.288291E-02  0.000000E+00  4.721259E-03 -5.070495E-04 -2.888546E-19 -1.953489E-01  0.000000E+00
  8.801320E-01  2.372192E-02  5.000000E-01  8.890204E-01  2.389202E-02  0.000000E+00  4.744222E-03 -4.015570E-04  1.667726E-18 -1.953269E-01  0.000000E+00
  8.691700E-01  2.452019E-02  5.000000E-01  8.779477E-01  2.469835E-02  0.000000E+00  4.576118E-03 -2.790445E-04  1.401646E-18 -1.890822E-01  0.000000E+00
  8.691700E-01  2.452019E-02  5.000000E-01  8.779477E-01  2.469835E-02  0.000000E+00  4.576118E-03 -2.790445E-04  1.401646E-18 -1.890822E-01  0.000000E+00
  8.576080E-01  2.508079E-02  5.000000E-01  8.662689E-01  2.526461E-02  0.000000E+00  4.203184E-03 -1.548036E-04 -3.121031E-20 -1.766186E-01  0.000000E+00
  8.454380E-01  2.537150E-02  5.000000E-01  8.539760E-01  2.555825E-02  0.000000E+00  3.638088E-03 -4.741849E-05 -1.116958E-19 -1.590494E-01  0.000000E+00
  8.326580E-01  2.537396E-02  5.000000E-01  8.410670E-01  2.556074E-02  0.000000E+00  2.919051E-03  2.598624E-05  3.486056E-19 -1.390251E-01  0.000000E+00
  8.192630E-01  2.509728E-02  5.000000E-01  8.275367E-01  2.528127E-02  0.000000E+00  2.102922E-03  5.553566E-05  3.725487E-19 -1.209849E-01  0.000000E+00
  8.052550E-01  2.460410E-02  5.000000E-01  8.133872E-01  2.478311E-02  0.000000E+00  1.256905E-03  4.486296E-05  2.501824E-19 -1.107373E-01  0.000000E+00
  7.906370E-01  2.404196E-02  5.000000E-01  7.986216E-01  2.421529E-02  0.000000E+00  4.517756E-04  1.620258E-05  4.604669E-19 -1.131890E-01  0.000000E+00
  7.754120E-01  2.367315E-02  5.000000E-01  7.832428E-01  2.384276E-02  0.000000E+00 -2.496612E-04  2.692629E-06  1.037816E-18 -1.277894E-01  0.000000E+00
  7.595880E-01  2.377024E-02  5.000000E-01  7.672590E-01  2.394082E-02  0.000000E+00 -8.077664E-04  2.382732E-05  9.603138E-19 -1.490709E-01  0.000000E+00
  7.431760E-01  2.445471E-02  5.000000E-01  7.506813E-01  2.463221E-02  0.000000E+00 -1.208062E-03  7.753967E-05 -7.444890E-20 -1.726914E-01  0.000000E+00
  7.261880E-01  2.583838E-02  5.000000E-01  7.335217E-01  2.602986E-02  0.000000E+00 -1.451860E-03  1.520433E-04 -2.909822E-19 -1.962070E-01  0.000000E+00
  7.086430E-01  2.803683E-02  5.000000E-01  7.157995E-01  2.825050E-02  0.000000E+00 -1.550537E-03  2.314728E-04  8.910162E-19 -2.170393E-01  0.000000E+00
  6.905640E-01  3.115656E-02  5.000000E-01  6.975380E-01  3.140174E-02  0.000000E+00 -1.519638E-03  2.989096E-04  3.109458E-19 -2.336404E-01  0.000000E+00
  6.719770E-01  3.528136E-02  5.000000E-01  6.787633E-01  3.556820E-02  0.000000E+00 -1.368955E-03  3.364830E-04 -1.445888E-18 -2.459860E-01  0.000000E+00
  6.529150E-01  4.045583E-02  5.000000E-01  6.595088E-01  4.079492E-02  0.000000E+00 -1.092523E-03  3.171382E-04 -1.511863E-18 -2.564096E-01  0.000000E+00
  6.334180E-01  4.653186E-02  5.000000E-01  6.398149E-01  4.693231E-02  0.000000E+00 -6.428947E-04  2.027664E-04  3.225013E-18 -2.777025E-01  0.000000E+00
  6.135280E-01  5.309639E-02  5.000000E-01  6.197240E-01  5.356314E-02  0.000000E+00  1.141029E-04 -4.287157E-05  4.343993E-18 -3.387072E-01  0.000000E+00
  5.932910E-01  5.962841E-02  5.000000E-01  5.992826E-01  6.016113E-02  0.000000E+00  1.388445E-03 -4.162071E-04  1.168687E-18 -4.616588E-01  0.000000E+00
  5.727570E-01  6.551410E-02  5.000000E-01  5.785412E-01  6.610626E-02  0.000000E+00  3.269379E-03 -7.822509E-04  8.954548E-19 -6.131235E-01  0.000000E+00
  5.519810E-01  7.005594E-02  5.000000E-01  5.575554E-01  7.069396E-02  0.000000E+00  5.365607E-03 -8.609954E-04 -1.414086E-18 -7.028412E-01  0.000000E+00
  5.310180E-01  7.266635E-02  5.000000E-01  5.363807E-01  7.333074E-02  0.000000E+00  6.736226E-03 -5.664454E-04 -2.304207E-18 -6.886284E-01  0.000000E+00
  5.099250E-01  7.368891E-02  5.000000E-01  5.150747E-01  7.436362E-02  0.000000E+00  6.611665E-03 -1.986640E-04 -1.247387E-18 -6.144247E-01  0.000000E+00
  4.887640E-01  7.385907E-02  5.000000E-01  4.937000E-01  7.453550E-02  0.000000E+00  5.072584E-03 -3.820566E-05 -5.481601E-19 -5.418543E-01  0.000000E+00
  4.675910E-01  7.395909E-02  5.000000E-01  4.723132E-01  7.463653E-02  0.000000E+00  2.817780E-03 -4.501379E-05  2.244959E-19 -5.175065E-01  0.000000E+00
  7.860720E-05 -3.612411E-04  5.000000E-01  7.940613E-05 -4.343566E-04  0.000000E+00 -8.859686E-03  2.607442E-02 -2.645668E-14  9.820547E-01  0.000000E+00
  3.989240E-04 -8.631504E-04  5.000000E-01  4.029578E-04 -9.413347E-04  0.000000E+00 -4.351144E-03  7.137431E-03 -2.128559E-14  1.117538E+00  0.000000E+00
  1.196920E-03 -1.472483E-03  5.000000E-01  1.209013E-03 -1.556821E-03  0.000000E+00  4.161064E-03 -2.013431E-03 -1.319133E-14  9.838343E-01  0.000000E+00
  2.563580E-03 -2.116300E-03  5.000000E-01  2.589475E-03 -2.207140E-03  0.000000E+00  9.788570E-03 -3.866679E-03 -5.411993E-15  8.057371E-01  0.000000E+00
  4.492740E-03 -2.764889E-03  5.000000E-01  4.538117E-03 -2.862279E-03  0.000000E+00  1.217617E-02 -3.647978E-03 -4.433833E-16  6.924276E-01  0.000000E+00
  6.952190E-03 -3.419285E-03  5.000000E-01  7.022405E-03 -3.523283E-03  0.000000E+00  1.308203E-02 -3.241430E-03  1.364252E-15  6.208131E-01  0.000000E+00
  9.910730E-03 -4.100944E-03  5.000000E-01  1.001082E-02 -4.211826E-03  0.000000E+00  1.354582E-02 -3.001845E-03  1.263459E-15  5.632370E-01  0.000000E+00
  1.334950E-02 -4.834342E-03  5.000000E-01  1.348432E-02 -4.952631E-03  0.000000E+00  1.392102E-02 -2.839983E-03  6.194217E-16  5.043340E-01  0.000000E+00
  1.728780E-02 -5.603687E-03  5.000000E-01  1.746239E-02 -5.729745E-03  0.000000E+00  1.422622E-02 -2.603284E-03  1.395435E-16  4.392216E-01  0.000000E+00
  2.175590E-02 -6.367119E-03  5.000000E-01  2.197562E-02 -6.500888E-03  0.000000E+00  1.441064E-02 -2.271997E-03 -5.251006E-17  3.777778E-01  0.000000E+00
  2.676920E-02 -7.090623E-03  5.000000E-01  2.703955E-02 -7.231698E-03  0.000000E+00  1.448035E-02 -1.919784E-03 -7.135393E-17  3.304069E-01  0.000000E+00
  3.232800E-02 -7.761474E-03  5.000000E-01  3.265448E-02 -7.909324E-03  0.000000E+00  1.447745E-02 -1.609260E-03 -3.833935E-17  2.979181E-01  0.000000E+00
  3.842930E-02 -8.381513E-03  5.000000E-01  3.881740E-02 -8.535625E-03  0.000000E+00  1.443873E-02 -1.361912E-03 -1.145752E-17  2.747975E-01  0.000000E+00
  4.507220E-02 -8.959618E-03  5.000000E-01  4.552739E-02 -9.119568E-03  0.000000E+00  1.440197E-02 -1.188496E-03  4.891031E-19  2.569921E-01  0.000000E+00
  5.225680E-02 -9.519610E-03  5.000000E-01  5.278454E-02 -9.685215E-03  0.000000E+00  1.440925E-02 -1.091000E-03  3.789750E-18  2.421932E-01  0.000000E+00
  5.998640E-02 -1.008797E-02  5.000000E-01  6.059220E-02 -1.025931E-02  0.000000E+00  1.447040E-02 -1.034644E-03  3.589999E-18  2.254112E-01  0.000000E+00
  6.827110E-02 -1.066457E-02  5.000000E-01  6.896057E-02 -1.084174E-02  0.000000E+00  1.456008E-02 -9.778151E-04  2.164303E-18  2.037932E-01  0.000000E+00
  7.712280E-02 -1.123753E-02  5.000000E-01  7.790166E-02 -1.142049E-02  0.000000E+00  1.465396E-02 -9.084939E-04  7.670670E-19  1.800510E-01  0.000000E+00
  8.655260E-02 -1.179599E-02  5.000000E-01  8.742669E-02 -1.198459E-02  0.000000E+00  1.473591E-02 -8.243667E-04 -1.925241E-19  1.567465E-01  0.000000E+00
  9.657140E-02 -1.232390E-02  5.000000E-01  9.754667E-02 -1.251783E-02  0.000000E+00  1.478628E-02 -7.141224E-04 -1.020885E-18  1.336657E-01  0.000000E+00
  1.071900E-01 -1.279058E-02  5.000000E-01  1.082725E-01 -1.298922E-02  0.000000E+00  1.479255E-02 -5.739462E-04 -8.304994E-19  1.113639E-01  0.000000E+00
  1.184180E-01 -1.316796E-02  5.000000E-01  1.196139E-01 -1.337041E-02  0.000000E+00  1.476508E-02 -4.195352E-04  1.552419E-19  9.244015E-02  0.000000E+00
  1.302610E-01 -1.344227E-02  5.000000E-01  1.315765E-01 -1.364749E-02  0.000000E+00  1.472044E-02 -2.658775E-04  4.371377E-19  7.770180E-02  0.000000E+00
  1.427230E-01 -1.360350E-02  5.000000E-01  1.441644E-01 -1.381035E-02  0.000000E+00  1.465522E-02 -1.154981E-04 -2.215290E-19  6.585040E-02  0.000000E+00
  1.427230E-01 -1.360350E-02  5.000000E-01  1.441644E-01 -1.381035E-02  0.000000E+00  1.465522E-02 -1.154981E-04 -2.215290E-19  6.585040E-02  0.000000E+00
  1.558070E-01 -1.364042E-02  5.000000E-01  1.573805E-01 -1.384764E-02  0.000000E+00  1.453225E-02  4.176409E-05 -4.726673E-19  5.539928E-02  0.000000E+00
  1.695140E-01 -1.352277E-02  5.000000E-01  1.712259E-01 -1.372880E-02  0.000000E+00  1.428676E-02  2.210655E-04 -4.721139E-19  4.628797E-02  0.000000E+00
  1.838420E-01 -1.320044E-02  5.000000E-01  1.856986E-01 -1.340321E-02  0.000000E+00  1.385471E-02  4.256820E-04 -1.247127E-18  4.117160E-02  0.000000E+00
  1.987870E-01 -1.261347E-02  5.000000E-01  2.007945E-01 -1.281032E-02  0.000000E+00  1.320355E-02  6.395524E-04 -1.791629E-18  4.389250E-02  0.000000E+00
  2.143420E-01 -1.170846E-02  5.000000E-01  2.165066E-01 -1.189617E-02  0.000000E+00  1.235712E-02  8.246050E-04 -1.208337E-18  5.832838E-02  0.000000E+00
  2.304940E-01 -1.047995E-02  5.000000E-01  2.328217E-01 -1.065526E-02  0.000000E+00  1.139604E-02  9.374797E-04 -1.587282E-18  8.641663E-02  0.000000E+00
  2.472290E-01 -8.988575E-03  5.000000E-01  2.497258E-01 -9.148818E-03  0.000000E+00  1.042237E-02  9.626137E-04 -1.288020E-18  1.248279E-01  0.000000E+00
  2.645310E-01 -7.329737E-03  5.000000E-01  2.672025E-01 -7.473227E-03  0.000000E+00  9.526927E-03  9.178875E-04 -4.268519E-19  1.665254E-01  0.000000E+00
  2.823750E-01 -5.603107E-03  5.000000E-01  2.852267E-01 -5.729160E-03  0.000000E+00  8.785966E-03  8.287169E-04 -6.831861E-19  2.060438E-01  0.000000E+00
  3.007320E-01 -3.920453E-03  5.000000E-01  3.037691E-01 -4.029513E-03  0.000000E+00  8.268065E-03  7.049461E-04  1.161815E-19  2.415926E-01  0.000000E+00
  3.195690E-01 -2.438420E-03  5.000000E-01  3.227963E-01 -2.532513E-03  0.000000E+00  8.026898E-03  5.416588E-04  3.063214E-19  2.725272E-01  0.000000E+00
  3.388440E-01 -1.354963E-03  5.000000E-01  3.422660E-01 -1.438114E-03  0.000000E+00  8.070095E-03  3.457820E-04 -1.529415E-19  2.938021E-01  0.000000E+00
  3.585140E-01 -7.738719E-04  5.000000E-01  3.621346E-01 -8.511546E-04  0.000000E+00  8.345372E-03  1.442605E-04 -3.872441E-19  2.985058E-01  0.000000E+00
  3.785290E-01 -6.653105E-04  5.000000E-01  3.823517E-01 -7.414969E-04  0.000000E+00  8.774830E-03 -4.670205E-05 -4.381995E-19  2.881843E-01  0.000000E+00
  3.988350E-01 -9.778947E-04  5.000000E-01  4.028628E-01 -1.057238E-03  0.000000E+00  9.280800E-03 -2.225602E-04 -1.888193E-19  2.695724E-01  0.000000E+00
  4.193750E-01 -1.636185E-03  5.000000E-01  4.236102E-01 -1.722176E-03  0.000000E+00  9.784379E-03 -3.627913E-04  5.066781E-19  2.454710E-01  0.000000E+00
  4.400850E-01 -2.505342E-03  5.000000E-01  4.445294E-01 -2.600111E-03  0.000000E+00  1.021891E-02 -4.382724E-04  1.463188E-18  2.166123E-01  0.000000E+00
  4.609060E-01 -3.417865E-03  5.000000E-01  4.655607E-01 -3.521850E-03  0.000000E+00  1.056693E-02 -4.567509E-04  1.466399E-18  1.881971E-01  0.000000E+00
  4.818030E-01 -4.305100E-03  5.000000E-01  4.866687E-01 -4.418044E-03  0.000000E+00  1.087557E-02 -4.744352E-04  6.989792E-19  1.677700E-01  0.000000E+00
  5.027520E-01 -5.238605E-03  5.000000E-01  5.078293E-01 -5.360976E-03  0.000000E+00  1.120965E-02 -5.325227E-04  4.395278E-19  1.541673E-01  0.000000E+00
  5.237130E-01 -6.296071E-03  5.000000E-01  5.290019E-01 -6.429122E-03  0.000000E+00  1.159262E-02 -6.085283E-04  2.805944E-19  1.365756E-01  0.000000E+00
  5.446170E-01 -7.439106E-03  5.000000E-01  5.501171E-01 -7.583701E-03  0.000000E+00  1.201170E-02 -6.578717E-04  2.734039E-19  1.087255E-01  0.000000E+00
  5.653940E-01 -8.578824E-03  5.000000E-01  5.711039E-01 -8.734928E-03  0.000000E+00  1.245862E-02 -6.659456E-04 -7.895912E-19  7.540408E-02  0.000000E+00
  4.675910E-01  7.395909E-02  5.000000E-01  4.723132E-01  7.463653E-02  0.000000E+00  2.817780E-03 -4.501379E-05  2.244959E-19 -5.175065E-01  0.000000E+00
  4.464640E-01  7.480608E-02  5.000000E-01  4.509728E-01  7.549207E-02  0.000000E+00  6.395847E-04 -8.781620E-06  3.233586E-19 -5.571117E-01  0.000000E+00
  4.254410E-01  7.716166E-02  5.000000E-01  4.297375E-01  7.787144E-02  0.000000E+00 -8.356563E-04  1.358853E-04  5.838201E-19 -6.532691E-01  0.000000E+00
  4.045840E-01  8.076476E-02  5.000000E-01  4.086699E-01  8.151093E-02  0.000000E+00 -1.095720E-03  1.803147E-04  1.887370E-19 -8.383475E-01  0.000000E+00
  3.839530E-01  8.472404E-02  5.000000E-01  3.878305E-01  8.551020E-02  0.000000E+00  6.537874E-04 -1.234655E-04  1.495514E-18 -1.170067E+00  0.000000E+00
  3.636060E-01  8.815642E-02  5.000000E-01  3.672780E-01  8.897723E-02  0.000000E+00  5.733661E-03 -6.586708E-04  2.463546E-18 -1.593666E+00  0.000000E+00
  3.435960E-01  9.023845E-02  5.000000E-01  3.470660E-01  9.108029E-02  0.000000E+00  1.483885E-02 -4.381894E-04  9.896826E-19 -1.899374E+00  0.000000E+00
  3.239710E-01  9.024120E-02  5.000000E-01  3.272428E-01  9.108307E-02  0.000000E+00  2.550514E-02  1.799598E-03  1.688464E-18 -1.904278E+00  0.000000E+00
  3.047740E-01  8.801804E-02  5.000000E-01  3.078519E-01  8.883746E-02  0.000000E+00  3.268233E-02  5.226740E-03  2.057157E-18 -1.654821E+00  0.000000E+00
  2.860450E-01  8.428278E-02  5.000000E-01  2.889338E-01  8.506448E-02  0.000000E+00  3.390454E-02  7.572928E-03  7.109046E-19 -1.321404E+00  0.000000E+00
  2.678190E-01  7.974146E-02  5.000000E-01  2.705237E-01  8.047730E-02  0.000000E+00  3.091795E-02  8.008618E-03 -1.698964E-21 -1.012169E+00  0.000000E+00
  2.501300E-01  7.495258E-02  5.000000E-01  2.526561E-01  7.564005E-02  0.000000E+00  2.646804E-02  7.167998E-03 -1.067640E-18 -7.683675E-01  0.000000E+00
  2.330040E-01  7.031014E-02  5.000000E-01  2.353571E-01  7.095073E-02  0.000000E+00  2.234560E-02  5.911092E-03 -8.314703E-19 -5.993217E-01  0.000000E+00
  2.164660E-01  6.605945E-02  5.000000E-01  2.186521E-01  6.665711E-02  0.000000E+00  1.929927E-02  4.757128E-03 -1.063211E-18 -5.033517E-01  0.000000E+00
  2.005340E-01  6.232023E-02  5.000000E-01  2.025592E-01  6.288013E-02  0.000000E+00  1.747538E-02  3.940485E-03 -1.414558E-18 -4.645631E-01  0.000000E+00
  1.852230E-01  5.902158E-02  5.000000E-01  1.870936E-01  5.954816E-02  0.000000E+00  1.674017E-02  3.519760E-03  1.096315E-18 -4.577712E-01  0.000000E+00
  1.705440E-01  5.601519E-02  5.000000E-01  1.722663E-01  5.651141E-02  0.000000E+00  1.681047E-02  3.409753E-03  1.399928E-18 -4.677222E-01  0.000000E+00
  1.565000E-01  5.319389E-02  5.000000E-01  1.580805E-01  5.366162E-02  0.000000E+00  1.737619E-02  3.497692E-03 -3.042194E-19 -4.899899E-01  0.000000E+00
  1.430940E-01  5.048874E-02  5.000000E-01  1.445391E-01  5.092915E-02  0.000000E+00  1.819977E-02  3.725738E-03 -1.228772E-18 -5.214383E-01  0.000000E+00
  1.303270E-01  4.783885E-02  5.000000E-01  1.316432E-01  4.825251E-02  0.000000E+00  1.913073E-02  4.094125E-03 -1.904650E-18 -5.528257E-01  0.000000E+00
  1.182110E-01  4.517236E-02  5.000000E-01  1.194048E-01  4.555908E-02  0.000000E+00  2.005051E-02  4.599449E-03 -2.478061E-18 -5.713768E-01  0.000000E+00
  1.067560E-01  4.244508E-02  5.000000E-01  1.078341E-01  4.280426E-02  0.000000E+00  2.083096E-02  5.190560E-03 -2.286392E-18 -5.681826E-01  0.000000E+00
  9.596750E-02  3.964261E-02  5.000000E-01  9.693667E-02  3.997349E-02  0.000000E+00  2.134780E-02  5.751174E-03 -1.236912E-18 -5.480554E-01  0.000000E+00
  8.582800E-02  3.681304E-02  5.000000E-01  8.669478E-02  3.711535E-02  0.000000E+00  2.156663E-02  6.179342E-03 -1.530910E-18 -5.254795E-01  0.000000E+00
  8.582800E-02  3.681304E-02  5.000000E-01  8.669478E-02  3.711535E-02  0.000000E+00  2.156663E-02  6.179342E-03 -1.530910E-18 -5.254795E-01  0.000000E+00
  7.631050E-02  3.401411E-02  5.000000E-01  7.708116E-02  3.428815E-02  0.000000E+00  2.158997E-02  6.522515E-03 -2.025179E-18 -5.037800E-01  0.000000E+00
  6.740780E-02  3.125356E-02  5.000000E-01  6.808855E-02  3.149972E-02  0.000000E+00  2.153821E-02  6.875701E-03 -2.111400E-18 -4.779704E-01  0.000000E+00
  5.911740E-02  2.853126E-02  5.000000E-01  5.971443E-02  2.874993E-02  0.000000E+00  2.145824E-02  7.251871E-03 -1.954251E-18 -4.467714E-01  0.000000E+00
  5.143150E-02  2.585998E-02  5.000000E-01  5.195091E-02  2.605168E-02  0.000000E+00  2.134844E-02  7.624018E-03 -1.982763E-18 -4.112972E-01  0.000000E+00
  4.433770E-02  2.325852E-02  5.000000E-01  4.478547E-02  2.342394E-02  0.000000E+00  2.119333E-02  7.973139E-03 -3.441663E-18 -3.736177E-01  0.000000E+00
  3.782240E-02  2.074512E-02  5.000000E-01  3.820437E-02  2.088516E-02  0.000000E+00  2.098489E-02  8.300236E-03 -5.708979E-18 -3.368334E-01  0.000000E+00
  3.187460E-02  1.833315E-02  5.000000E-01  3.219650E-02  1.844882E-02  0.000000E+00  2.073545E-02  8.623427E-03 -8.164142E-18 -3.041533E-01  0.000000E+00
  2.648400E-02  1.603394E-02  5.000000E-01  2.675147E-02  1.612640E-02  0.000000E+00  2.047280E-02  8.991788E-03 -2.685716E-18 -2.721742E-01  0.000000E+00
  2.164990E-02  1.384961E-02  5.000000E-01  2.186855E-02  1.392001E-02  0.000000E+00  2.017985E-02  9.446134E-03  4.009461E-17 -2.282649E-01  0.000000E+00
  1.737670E-02  1.178066E-02  5.000000E-01  1.755219E-02  1.183016E-02  0.000000E+00  1.974829E-02  9.886867E-03  1.781646E-16 -1.676365E-01  0.000000E+00
  1.364080E-02  9.847360E-03  5.000000E-01  1.377856E-02  9.877340E-03  0.000000E+00  1.908960E-02  1.012207E-02  4.773884E-16 -1.047290E-01  0.000000E+00
  1.039090E-02  8.079737E-03  5.000000E-01  1.049584E-02  8.091866E-03  0.000000E+00  1.828981E-02  1.014217E-02  9.381692E-16 -5.792010E-02  0.000000E+00
  7.586340E-03  6.492714E-03  5.000000E-01  7.662959E-03  6.488816E-03  0.000000E+00  1.760083E-02  1.025014E-02  1.354606E-15 -3.033285E-02  0.000000E+00
  5.226210E-03  5.078327E-03  5.000000E-01  5.278994E-03  5.060145E-03  0.000000E+00  1.732708E-02  1.089914E-02  1.162729E-15 -1.538140E-02  0.000000E+00
  3.324300E-03  3.824693E-03  5.000000E-01  3.357877E-03  3.793851E-03  0.000000E+00  1.777601E-02  1.262906E-02 -5.165829E-16 -8.786962E-03  0.000000E+00
  1.883580E-03  2.729751E-03  5.000000E-01  1.902607E-03  2.687851E-03  0.000000E+00  1.905237E-02  1.628590E-02 -4.404248E-15  7.853327E-03  0.000000E+00
  8.951490E-04  1.799856E-03  5.000000E-01  9.041941E-04  1.748565E-03  0.000000E+00  2.018067E-02  2.274797E-02 -1.030497E-14  8.352745E-02  0.000000E+00
  3.201820E-04  1.051273E-03  5.000000E-01  3.234206E-04  9.924224E-04  0.000000E+00  1.834469E-02  3.098727E-02 -1.682987E-14  2.661683E-01  0.000000E+00
  6.852390E-05  5.051897E-04  5.000000E-01  6.922100E-05  4.408242E-04  0.000000E+00  1.186871E-02  3.620011E-02 -2.218747E-14  4.939182E-01  0.000000E+00
  4.217600E-06  1.773685E-04  5.000000E-01  4.265277E-06  1.096923E-04  0.000000E+00  4.408839E-03  3.667039E-02 -2.521768E-14  5.712259E-01  0.000000E+00
 -5.032520E-09  6.877287E-05  5.000000E-01  0.000000E+00  0.000000E+00  0.000000E+00 -8.169403E-04  4.154864E-02 -2.658907E-14  5.224084E-01  0.000000E+00
  5.154440E-06 -4.007095E-05  5.000000E-01  5.211578E-06 -1.099430E-04  0.000000E+00 -5.830325E-03  4.231956E-02 -2.752036E-14  6.604837E-01  0.000000E+00