 Title = "ADflow Slice Data"
Variables =  "CoordinateX"  "CoordinateY"  "CoordinateZ"  "XoC"  "YoC"  "ZoC" "VelocityX" "VelocityY" "VelocityZ" "CoefPressure" "Mach" 
Zone T= "Slice_0001 None Absolute Regular z = 0.50000000"
 Nodes =          192  Elements=          184  ZONETYPE=FELINESEG
 DATAPACKING=POINT
  5.653940E-01 -1.817402E-03  5.000000E-01  5.711039E-01 -1.887158E-03  0.000000E+00  9.330182E-03  7.857971E-04  2.502125E-18  1.512461E-01  0.000000E+00
  5.859770E-01  8.677735E-05  5.000000E-01  5.918948E-01  3.625194E-05  0.000000E+00  8.720906E-03  8.511115E-04 -6.077737E-19  1.708632E-01  0.000000E+00
  6.063060E-01  2.183503E-03  5.000000E-01  6.124291E-01  2.154152E-03  0.000000E+00  8.104298E-03  8.521392E-04 -1.227167E-18  2.031138E-01  0.000000E+00
  6.263240E-01  4.328497E-03  5.000000E-01  6.326492E-01  4.320808E-03  0.000000E+00  7.583542E-03  7.973813E-04  1.698103E-18  2.372881E-01  0.000000E+00
  6.459860E-01  6.352785E-03  5.000000E-01  6.525098E-01  6.365540E-03  0.000000E+00  7.220884E-03  7.013210E-04  1.663832E-18  2.677072E-01  0.000000E+00
  6.652460E-01  8.106523E-03  5.000000E-01  6.719643E-01  8.136989E-03  0.000000E+00  7.021451E-03  5.877807E-04 -3.209745E-20  2.905984E-01  0.000000E+00
  6.840650E-01  9.537288E-03  5.000000E-01  6.909734E-01  9.582203E-03  0.000000E+00  6.932203E-03  4.894756E-04  2.235116E-20  3.024687E-01  0.000000E+00
  7.024070E-01  1.072947E-02  5.000000E-01  7.095006E-01  1.078643E-02  0.000000E+00  6.879123E-03  4.220316E-04 -8.450048E-20  3.061341E-01  0.000000E+00
  7.202400E-01  1.176032E-02  5.000000E-01  7.275137E-01  1.182769E-02  0.000000E+00  6.807436E-03  3.770578E-04  2.141100E-19  3.089685E-01  0.000000E+00
  7.375350E-01  1.267794E-02  5.000000E-01  7.449834E-01  1.275457E-02  0.000000E+00  6.689192E-03  3.434317E-04  3.787173E-19  3.144570E-01  0.000000E+00
  7.542690E-01  1.350839E-02  5.000000E-01  7.618864E-01  1.359341E-02  0.000000E+00  6.521341E-03  3.139174E-04  2.610687E-20  3.226428E-01  0.000000E+00
  7.704220E-01  1.426033E-02  5.000000E-01  7.782025E-01  1.435294E-02  0.000000E+00  6.322591E-03  2.835908E-04 -4.147350E-19  3.323986E-01  0.000000E+00
  7.859770E-01  1.493058E-02  5.000000E-01  7.939146E-01  1.502997E-02  0.000000E+00  6.132611E-03  2.405935E-04 -6.370540E-19  3.439192E-01  0.000000E+00
  8.009220E-01  1.546037E-02  5.000000E-01  8.090105E-01  1.556510E-02  0.000000E+00  6.002881E-03  1.704535E-04 -3.903986E-19  3.576315E-01  0.000000E+00
  8.152480E-01  1.576456E-02  5.000000E-01  8.234812E-01  1.587237E-02  0.000000E+00  5.965925E-03  7.757706E-05 -3.294703E-20  3.692693E-01  0.000000E+00
  8.289490E-01  1.582714E-02  5.000000E-01  8.373206E-01  1.593557E-02  0.000000E+00  6.019826E-03 -2.200649E-05  7.276879E-20  3.745060E-01  0.000000E+00
  8.420260E-01  1.567270E-02  5.000000E-01  8.505296E-01  1.577957E-02  0.000000E+00  6.144202E-03 -1.196269E-04  8.395893E-20  3.743023E-01  0.000000E+00
  8.544790E-01  1.533779E-02  5.000000E-01  8.631084E-01  1.544129E-02  0.000000E+00  6.315201E-03 -2.124467E-04 -8.227002E-23  3.711010E-01  0.000000E+00
  8.663160E-01  1.486238E-02  5.000000E-01  8.750649E-01  1.496108E-02  0.000000E+00  6.509580E-03 -2.989655E-04 -2.355708E-19  3.662078E-01  0.000000E+00
  8.775420E-01  1.428411E-02  5.000000E-01  8.864043E-01  1.437696E-02  0.000000E+00  6.706492E-03 -3.774902E-04 -2.791658E-19  3.602472E-01  0.000000E+00
  8.881660E-01  1.363672E-02  5.000000E-01  8.971356E-01  1.372303E-02  0.000000E+00  6.890338E-03 -4.465525E-04 -5.383217E-21  3.536856E-01  0.000000E+00
  8.981970E-01  1.294867E-02  5.000000E-01  9.072679E-01  1.302804E-02  0.000000E+00  7.054456E-03 -5.082520E-04  1.469884E-19  3.471876E-01  0.000000E+00
  9.076460E-01  1.223633E-02  5.000000E-01  9.168123E-01  1.230850E-02  0.000000E+00  7.203910E-03 -5.698974E-04  2.777373E-19  3.416047E-01  0.000000E+00
  9.165220E-01  1.150206E-02  5.000000E-01  9.257780E-01  1.156682E-02  0.000000E+00  7.351082E-03 -6.376393E-04  2.794299E-19  3.367662E-01  0.000000E+00
  9.165220E-01  1.150206E-02  5.000000E-01  9.257780E-01  1.156682E-02  0.000000E+00  7.351082E-03 -6.376393E-04  2.794299E-19  3.367662E-01  0.000000E+00
  9.248360E-01  1.074798E-02  5.000000E-01  9.341759E-01  1.080512E-02  0.000000E+00  7.507303E-03 -7.126571E-04  2.819662E-19  3.316077E-01  0.000000E+00
  9.325990E-01  9.978758E-03  5.000000E-01  9.420173E-01  1.002813E-02  0.000000E+00  7.680228E-03 -7.947111E-04 -8.406796E-20  3.255907E-01  0.000000E+00
  9.398210E-01  9.200504E-03  5.000000E-01  9.493123E-01  9.242019E-03  0.000000E+00  7.875220E-03 -8.837867E-04 -3.893922E-19  3.186693E-01  0.000000E+00
  9.465130E-01  8.420409E-03  5.000000E-01  9.560718E-01  8.454045E-03  0.000000E+00  8.095951E-03 -9.798779E-04  2.559171E-19  3.108073E-01  0.000000E+00
  9.526870E-01  7.646366E-03  5.000000E-01  9.623082E-01  7.672185E-03  0.000000E+00  8.344373E-03 -1.082908E-03  8.138028E-20  3.019378E-01  0.000000E+00
  9.583540E-01  6.886709E-03  5.000000E-01  9.680324E-01  6.904856E-03  0.000000E+00  8.621135E-03 -1.192691E-03 -4.524703E-19  2.920264E-01  0.000000E+00
  9.635240E-01  6.149964E-03  5.000000E-01  9.732546E-01  6.160670E-03  0.000000E+00  8.926459E-03 -1.308820E-03 -3.987814E-19  2.810461E-01  0.000000E+00
  9.682080E-01  5.444551E-03  5.000000E-01  9.779859E-01  5.448133E-03  0.000000E+00  9.262145E-03 -1.431243E-03 -5.581275E-19  2.690421E-01  0.000000E+00
  9.724140E-01  4.778711E-03  5.000000E-01  9.822344E-01  4.775570E-03  0.000000E+00  9.634164E-03 -1.560468E-03 -3.157644E-19  2.560959E-01  0.000000E+00
  9.761510E-01  4.160249E-03  5.000000E-01  9.860091E-01  4.150862E-03  0.000000E+00  1.005259E-02 -1.697180E-03 -3.202865E-19  2.422415E-01  0.000000E+00
  9.794290E-01  3.596328E-03  5.000000E-01  9.893203E-01  3.581245E-03  0.000000E+00  1.052375E-02 -1.842078E-03 -5.911999E-19  2.275551E-01  0.000000E+00
  9.822540E-01  3.093620E-03  5.000000E-01  9.921738E-01  3.073461E-03  0.000000E+00  1.103014E-02 -1.992537E-03 -1.696948E-19  2.123547E-01  0.000000E+00
  9.846330E-01  2.657978E-03  5.000000E-01  9.945768E-01  2.633419E-03  0.000000E+00  1.150890E-02 -2.134470E-03  9.596807E-19  1.979343E-01  0.000000E+00
  9.865710E-01  2.294494E-03  5.000000E-01  9.965344E-01  2.266264E-03  0.000000E+00  1.181134E-02 -2.227566E-03  2.258982E-18  1.831424E-01  0.000000E+00
  9.880740E-01  2.007327E-03  5.000000E-01  9.980526E-01  1.976197E-03  0.000000E+00  1.170349E-02 -2.255603E-03 -2.072825E-18  1.620644E-01  0.000000E+00
  9.891450E-01  1.799809E-03  5.000000E-01  9.991344E-01  1.766583E-03  0.000000E+00  1.185052E-02 -2.386845E-03 -2.489090E-17  1.622318E-01  0.000000E+00
  9.897860E-01  1.674361E-03  5.000000E-01  9.997818E-01  1.639869E-03  0.000000E+00  1.507565E-02 -2.476278E-03 -7.154645E-17  2.073177E-01  0.000000E+00
  9.900000E-01  1.632369E-03  5.000000E-01  9.999980E-01  1.597452E-03  0.000000E+00  1.046623E-02 -4.907381E-03 -7.603467E-17 -3.625608E-02  0.000000E+00
  9.900000E-01  1.711079E-03  5.000000E-01  9.999980E-01  1.676957E-03  0.000000E+00  1.045482E-03 -1.519841E-02  5.911904E-18 -1.720818E-01  0.000000E+00
  9.900000E-01  1.789799E-03  5.000000E-01  9.999980E-01  1.756472E-03  0.000000E+00 -5.241976E-04 -1.453642E-02  8.669046E-17  1.477284E-03  0.000000E+00
  9.900000E-01  1.868519E-03  5.000000E-01  9.999980E-01  1.835987E-03  0.000000E+00 -2.690532E-04  1.143287E-03  1.048024E-16 -3.669847E-03  0.000000E+00
  9.900000E-01  1.947229E-03  5.000000E-01  9.999980E-01  1.915492E-03  0.000000E+00  6.542777E-04  2.876014E-03  1.291689E-16 -1.114943E-01  0.000000E+00
  9.900000E-01  2.025949E-03  5.000000E-01  9.999980E-01  1.995007E-03  0.000000E+00  5.280552E-03 -2.743376E-03  1.600734E-16 -2.449789E-02  0.000000E+00
  9.900000E-01  2.025949E-03  5.000000E-01  9.999980E-01  1.995007E-03  0.000000E+00  5.280552E-03 -2.743376E-03  1.600734E-16 -2.449789E-02  0.000000E+00
  9.897900E-01  2.077705E-03  5.000000E-01  9.997859E-01  2.047286E-03  0.000000E+00  6.760518E-03 -1.968777E-03  1.136048E-16  1.040629E-01  0.000000E+00
  9.891580E-01  2.233073E-03  5.000000E-01  9.991475E-01  2.204223E-03  0.000000E+00  3.977736E-03 -9.215870E-04  3.844066E-17  6.492326E-02  0.000000E+00
  9.881040E-01  2.492131E-03  5.000000E-01  9.980829E-01  2.465897E-03  0.000000E+00  3.159550E-03 -7.747582E-04  3.772116E-18  5.590778E-02  0.000000E+00
  9.866260E-01  2.855065E-03  5.000000E-01  9.965899E-01  2.832497E-03  0.000000E+00  2.893375E-03 -7.153393E-04 -4.221931E-18  5.767693E-02  0.000000E+00
  9.847200E-01  3.322152E-03  5.000000E-01  9.946647E-01  3.304300E-03  0.000000E+00  2.756104E-03 -6.742290E-04 -3.608051E-18  5.282563E-02  0.000000E+00
  9.823820E-01  3.893637E-03  5.000000E-01  9.923031E-01  3.881557E-03  0.000000E+00  2.765461E-03 -6.743775E-04 -1.663714E-18  4.504530E-02  0.000000E+00
  9.796080E-01  4.569684E-03  5.000000E-01  9.895011E-01  4.564431E-03  0.000000E+00  2.896824E-03 -7.045088E-04 -4.062418E-19  3.623296E-02  0.000000E+00
  9.763910E-01  5.350442E-03  5.000000E-01  9.862516E-01  5.353074E-03  0.000000E+00  3.107208E-03 -7.523988E-04 -1.276199E-19  2.588893E-02  0.000000E+00
  9.727270E-01  6.235669E-03  5.000000E-01  9.825506E-01  6.247242E-03  0.000000E+00  3.368411E-03 -8.112342E-04  9.454444E-20  1.379843E-02  0.000000E+00
  9.686070E-01  7.225070E-03  5.000000E-01  9.783890E-01  7.246634E-03  0.000000E+00  3.665103E-03 -8.768669E-04  4.287454E-20  6.028936E-05  0.000000E+00
  9.640240E-01  8.317789E-03  5.000000E-01  9.737597E-01  8.350389E-03  0.000000E+00  3.990634E-03 -9.470514E-04 -3.764040E-19 -1.529378E-02  0.000000E+00
  9.589680E-01  9.512536E-03  5.000000E-01  9.686526E-01  9.557201E-03  0.000000E+00  4.344138E-03 -1.020931E-03 -4.626149E-19 -3.224890E-02  0.000000E+00
  9.534310E-01  1.080722E-02  5.000000E-01  9.630597E-01  1.086496E-02  0.000000E+00  4.727362E-03 -1.098091E-03 -4.944939E-19 -5.079182E-02  0.000000E+00
  9.474030E-01  1.219892E-02  5.000000E-01  9.569708E-01  1.227071E-02  0.000000E+00  5.142200E-03 -1.177716E-03 -3.994060E-19 -7.082178E-02  0.000000E+00
  9.408720E-01  1.368364E-02  5.000000E-01  9.503739E-01  1.377043E-02  0.000000E+00  5.589261E-03 -1.258668E-03  3.333443E-19 -9.226877E-02  0.000000E+00
  9.338280E-01  1.525598E-02  5.000000E-01  9.432587E-01  1.535864E-02  0.000000E+00  6.067907E-03 -1.339329E-03  1.069964E-18 -1.150416E-01  0.000000E+00
  9.262600E-01  1.690900E-02  5.000000E-01  9.356143E-01  1.702836E-02  0.000000E+00  6.575988E-03 -1.417142E-03  5.948120E-19 -1.389381E-01  0.000000E+00
  9.181550E-01  1.863366E-02  5.000000E-01  9.274274E-01  1.877044E-02  0.000000E+00  7.109089E-03 -1.488890E-03 -3.502939E-19 -1.637384E-01  0.000000E+00
  9.095020E-01  2.041881E-02  5.000000E-01  9.186871E-01  2.057362E-02  0.000000E+00  7.659926E-03 -1.550446E-03 -1.047807E-18 -1.889500E-01  0.000000E+00
  9.002880E-01  2.225044E-02  5.000000E-01  9.093800E-01  2.242374E-02  0.000000E+00  8.216407E-03 -1.596846E-03 -7.674685E-19 -2.136458E-01  0.000000E+00
  8.905020E-01  2.411183E-02  5.000000E-01  8.994952E-01  2.430393E-02  0.000000E+00  8.760392E-03 -1.624225E-03 -8.304707E-20 -2.369435E-01  0.000000E+00
  8.801320E-01  2.598759E-02  5.000000E-01  8.890205E-01  2.619863E-02  0.000000E+00  9.270152E-03 -1.630912E-03 -2.329056E-19 -2.583017E-01  0.000000E+00
  8.691700E-01  2.786455E-02  5.000000E-01  8.779477E-01  2.809455E-02  0.000000E+00  9.723887E-03 -1.615924E-03 -7.650933E-19 -2.772144E-01  0.000000E+00
  8.691700E-01  2.786455E-02  5.000000E-01  8.779477E-01  2.809455E-02  0.000000E+00  9.723887E-03 -1.615924E-03 -7.650933E-19 -2.772144E-01  0.000000E+00
  8.576080E-01  2.972999E-02  5.000000E-01  8.662690E-01  2.997883E-02  0.000000E+00  1.010054E-02 -1.578596E-03 -1.664240E-20 -2.930107E-01  0.000000E+00
  8.454380E-01  3.157232E-02  5.000000E-01  8.539761E-01  3.183977E-02  0.000000E+00  1.037982E-02 -1.520649E-03  1.388783E-18 -3.048862E-01  0.000000E+00
  8.326580E-01  3.338363E-02  5.000000E-01  8.410670E-01  3.366937E-02  0.000000E+00  1.054502E-02 -1.447349E-03  1.142584E-18 -3.116705E-01  0.000000E+00
  8.192630E-01  3.516364E-02  5.000000E-01  8.275367E-01  3.546736E-02  0.000000E+00  1.058761E-02 -1.369467E-03  5.906943E-19 -3.125762E-01  0.000000E+00
  8.052550E-01  3.692729E-02  5.000000E-01  8.133873E-01  3.724882E-02  0.000000E+00  1.051589E-02 -1.303886E-03  3.522102E-19 -3.092204E-01  0.000000E+00
  7.906370E-01  3.871178E-02  5.000000E-01  7.986216E-01  3.905133E-02  0.000000E+00  1.036688E-02 -1.269728E-03 -3.780309E-19 -3.070284E-01  0.000000E+00
  7.754120E-01  4.058065E-02  5.000000E-01  7.832429E-01  4.093908E-02  0.000000E+00  1.021348E-02 -1.275297E-03 -8.396624E-19 -3.119714E-01  0.000000E+00
  7.595880E-01  4.258957E-02  5.000000E-01  7.672591E-01  4.296828E-02  0.000000E+00  1.014793E-02 -1.306096E-03 -7.887731E-19 -3.248918E-01  0.000000E+00
  7.431760E-01  4.473126E-02  5.000000E-01  7.506813E-01  4.513160E-02  0.000000E+00  1.023612E-02 -1.345627E-03 -4.304415E-19 -3.448712E-01  0.000000E+00
  7.261880E-01  4.697965E-02  5.000000E-01  7.335218E-01  4.740270E-02  0.000000E+00  1.049817E-02 -1.387078E-03  5.242927E-19 -3.724976E-01  0.000000E+00
  7.086430E-01  4.929218E-02  5.000000E-01  7.157996E-01  4.973858E-02  0.000000E+00  1.091821E-02 -1.418319E-03  5.380503E-19 -4.064369E-01  0.000000E+00
  6.905640E-01  5.160631E-02  5.000000E-01  6.975380E-01  5.207608E-02  0.000000E+00  1.144419E-02 -1.419633E-03  1.114285E-18 -4.415565E-01  0.000000E+00
  6.719770E-01  5.384322E-02  5.000000E-01  6.787633E-01  5.433558E-02  0.000000E+00  1.198727E-02 -1.372011E-03  1.245014E-18 -4.695120E-01  0.000000E+00
  6.529150E-01  5.592062E-02  5.000000E-01  6.595088E-01  5.643396E-02  0.000000E+00  1.243058E-02 -1.279155E-03  5.216088E-19 -4.850455E-01  0.000000E+00
  6.334180E-01  5.781267E-02  5.000000E-01  6.398149E-01  5.834512E-02  0.000000E+00  1.267220E-02 -1.175774E-03  2.079503E-18 -4.906607E-01  0.000000E+00
  6.135280E-01  5.957396E-02  5.000000E-01  6.197240E-01  6.012419E-02  0.000000E+00  1.268776E-02 -1.093007E-03  2.117248E-18 -4.909769E-01  0.000000E+00
  5.932910E-01  6.126924E-02  5.000000E-01  5.992826E-01  6.183660E-02  0.000000E+00  1.253620E-02 -1.042474E-03  1.073700E-19 -4.901114E-01  0.000000E+00
  5.727570E-01  6.296416E-02  5.000000E-01  5.785413E-01  6.354863E-02  0.000000E+00  1.232280E-02 -1.030713E-03 -5.981028E-19 -4.945762E-01  0.000000E+00
  5.519810E-01  6.472310E-02  5.000000E-01  5.575555E-01  6.532533E-02  0.000000E+00  1.217304E-02 -1.057906E-03 -5.075993E-19 -5.114695E-01  0.000000E+00
  5.310180E-01  6.659099E-02  5.000000E-01  5.363808E-01  6.721209E-02  0.000000E+00  1.221085E-02 -1.104827E-03 -3.857650E-19 -5.433256E-01  0.000000E+00
  5.099250E-01  6.852698E-02  5.000000E-01  5.150747E-01  6.916764E-02  0.000000E+00  1.251843E-02 -1.148825E-03 -6.959326E-19 -5.900617E-01  0.000000E+00
  4.887640E-01  7.046573E-02  5.000000E-01  4.937000E-01  7.112597E-02  0.000000E+00  1.311893E-02 -1.172117E-03 -2.965364E-19 -6.494133E-01  0.000000E+00
  4.675910E-01  7.231123E-02  5.000000E-01  4.723132E-01  7.299010E-02  0.000000E+00  1.398032E-02 -1.146538E-03  1.556831E-19 -7.126504E-01  0.000000E+00
  7.860720E-05 -6.670996E-04  5.000000E-01  7.940614E-05 -7.252384E-04  0.000000E+00 -4.788436E-03  2.110098E-02 -1.573991E-16  8.774887E-01  0.000000E+00
  3.989240E-04 -1.516855E-03  5.000000E-01  4.029578E-04 -1.583576E-03  0.000000E+00 -4.630281E-03  1.010895E-02 -1.255451E-16  1.065397E+00  0.000000E+00
  1.196920E-03 -2.564438E-03  5.000000E-01  1.209013E-03 -2.641738E-03  0.000000E+00 -7.250777E-04  1.470878E-03 -8.171529E-17  1.083242E+00  0.000000E+00
  2.563580E-03 -3.683202E-03  5.000000E-01  2.589475E-03 -3.771801E-03  0.000000E+00  4.171752E-03 -2.684371E-03 -4.233681E-17  9.749983E-01  0.000000E+00
  4.492740E-03 -4.812362E-03  5.000000E-01  4.538117E-03 -4.912363E-03  0.000000E+00  7.810345E-03 -4.001864E-03 -1.117860E-17  8.541035E-01  0.000000E+00
  6.952190E-03 -5.941994E-03  5.000000E-01  7.022405E-03 -6.053404E-03  0.000000E+00  1.007489E-02 -4.253739E-03  4.908990E-18  7.584751E-01  0.000000E+00
  9.910730E-03 -7.096721E-03  5.000000E-01  1.001082E-02 -7.219792E-03  0.000000E+00  1.153752E-02 -4.268966E-03  6.737741E-18  6.816607E-01  0.000000E+00
  1.334950E-02 -8.306761E-03  5.000000E-01  1.348432E-02 -8.442053E-03  0.000000E+00  1.260550E-02 -4.178791E-03  2.748125E-18  6.052059E-01  0.000000E+00
  1.728780E-02 -9.540286E-03  5.000000E-01  1.746239E-02 -9.688035E-03  0.000000E+00  1.338138E-02 -3.866447E-03 -1.070837E-18  5.190586E-01  0.000000E+00
  2.175590E-02 -1.072828E-02  5.000000E-01  2.197562E-02 -1.088803E-02  0.000000E+00  1.385199E-02 -3.346232E-03 -2.526563E-18  4.359894E-01  0.000000E+00
  2.676920E-02 -1.181844E-02  5.000000E-01  2.703955E-02 -1.198920E-02  0.000000E+00  1.406460E-02 -2.764980E-03 -2.018223E-18  3.724950E-01  0.000000E+00
  3.232800E-02 -1.279456E-02  5.000000E-01  3.265449E-02 -1.297517E-02  0.000000E+00  1.411591E-02 -2.245351E-03 -8.615816E-19  3.315611E-01  0.000000E+00
  3.842930E-02 -1.366415E-02  5.000000E-01  3.881740E-02 -1.385355E-02  0.000000E+00  1.408484E-02 -1.832292E-03 -5.630362E-20  3.056747E-01  0.000000E+00
  4.507220E-02 -1.444566E-02  5.000000E-01  4.552739E-02 -1.464294E-02  0.000000E+00  1.403458E-02 -1.542311E-03  2.654570E-19  2.885024E-01  0.000000E+00
  5.225680E-02 -1.517870E-02  5.000000E-01  5.278455E-02 -1.538339E-02  0.000000E+00  1.402476E-02 -1.374236E-03  2.968106E-19  2.761884E-01  0.000000E+00
  5.998640E-02 -1.590538E-02  5.000000E-01  6.059221E-02 -1.611741E-02  0.000000E+00  1.407054E-02 -1.275180E-03  2.153614E-19  2.615492E-01  0.000000E+00
  6.827110E-02 -1.662966E-02  5.000000E-01  6.896057E-02 -1.684900E-02  0.000000E+00  1.414100E-02 -1.185645E-03  2.140953E-19  2.407856E-01  0.000000E+00
  7.712280E-02 -1.734023E-02  5.000000E-01  7.790167E-02 -1.756675E-02  0.000000E+00  1.420695E-02 -1.089524E-03  2.937415E-19  2.177912E-01  0.000000E+00
  8.655260E-02 -1.802895E-02  5.000000E-01  8.742670E-02 -1.826243E-02  0.000000E+00  1.424993E-02 -9.850222E-04  5.136763E-19  1.959976E-01  0.000000E+00
  9.657140E-02 -1.868256E-02  5.000000E-01  9.754668E-02 -1.892263E-02  0.000000E+00  1.424663E-02 -8.590650E-04  3.093368E-19  1.749516E-01  0.000000E+00
  1.071900E-01 -1.927084E-02  5.000000E-01  1.082725E-01 -1.951686E-02  0.000000E+00  1.418270E-02 -7.091224E-04  6.341357E-20  1.551725E-01  0.000000E+00
  1.184180E-01 -1.977062E-02  5.000000E-01  1.196139E-01 -2.002168E-02  0.000000E+00  1.407466E-02 -5.580215E-04 -7.636741E-20  1.397397E-01  0.000000E+00
  1.302610E-01 -2.018137E-02  5.000000E-01  1.315765E-01 -2.043658E-02  0.000000E+00  1.395286E-02 -4.271136E-04 -1.053252E-19  1.292149E-01  0.000000E+00
  1.427230E-01 -2.051154E-02  5.000000E-01  1.441644E-01 -2.077009E-02  0.000000E+00  1.383434E-02 -3.215511E-04 -1.069822E-20  1.213135E-01  0.000000E+00
  1.427230E-01 -2.051154E-02  5.000000E-01  1.441644E-01 -2.077009E-02  0.000000E+00  1.383434E-02 -3.215511E-04 -1.069822E-20  1.213135E-01  0.000000E+00
  1.558070E-01 -2.077309E-02  5.000000E-01  1.573805E-01 -2.103428E-02  0.000000E+00  1.371136E-02 -2.303915E-04 -4.690061E-19  1.133671E-01  0.000000E+00
  1.695140E-01 -2.096005E-02  5.000000E-01  1.712259E-01 -2.122312E-02  0.000000E+00  1.355904E-02 -1.347295E-04 -6.570775E-19  1.041041E-01  0.000000E+00
  1.838420E-01 -2.104900E-02  5.000000E-01  1.856986E-01 -2.131298E-02  0.000000E+00  1.335997E-02 -2.524355E-05 -1.957582E-19  9.500684E-02  0.000000E+00
  1.987870E-01 -2.101149E-02  5.000000E-01  2.007946E-01 -2.127509E-02  0.000000E+00  1.312208E-02  9.227620E-05  7.545212E-20  8.859720E-02  0.000000E+00
  2.143420E-01 -2.082973E-02  5.000000E-01  2.165066E-01 -2.109149E-02  0.000000E+00  1.288177E-02  1.975705E-04 -1.889202E-19  8.689738E-02  0.000000E+00
  2.304940E-01 -2.052098E-02  5.000000E-01  2.328218E-01 -2.077962E-02  0.000000E+00  1.268423E-02  2.699320E-04 -6.024380E-19  8.964422E-02  0.000000E+00
  2.472290E-01 -2.012774E-02  5.000000E-01  2.497258E-01 -2.038241E-02  0.000000E+00  1.255030E-02  3.076164E-04 -8.454770E-19  9.349798E-02  0.000000E+00
  2.645310E-01 -1.968696E-02  5.000000E-01  2.672025E-01 -1.993718E-02  0.000000E+00  1.245599E-02  3.337817E-04 -7.624710E-19  9.397367E-02  0.000000E+00
  2.823750E-01 -1.918692E-02  5.000000E-01  2.852267E-01 -1.943209E-02  0.000000E+00  1.234522E-02  3.787005E-04 -6.390966E-19  8.943837E-02  0.000000E+00
  3.007320E-01 -1.857509E-02  5.000000E-01  3.037691E-01 -1.881408E-02  0.000000E+00  1.216712E-02  4.527746E-04 -6.979930E-19  8.349218E-02  0.000000E+00
  3.195690E-01 -1.779897E-02  5.000000E-01  3.227963E-01 -1.803013E-02  0.000000E+00  1.189874E-02  5.455017E-04 -9.100787E-20  8.101387E-02  0.000000E+00
  3.388440E-01 -1.682238E-02  5.000000E-01  3.422660E-01 -1.704367E-02  0.000000E+00  1.155077E-02  6.343208E-04  2.828546E-19  8.500853E-02  0.000000E+00
  3.585140E-01 -1.565451E-02  5.000000E-01  3.621346E-01 -1.586401E-02  0.000000E+00  1.115978E-02  6.976349E-04  2.675066E-19  9.574755E-02  0.000000E+00
  3.785290E-01 -1.433813E-02  5.000000E-01  3.823518E-01 -1.453433E-02  0.000000E+00  1.076873E-02  7.296781E-04  3.948211E-19  1.102616E-01  0.000000E+00
  3.988350E-01 -1.292098E-02  5.000000E-01  4.028628E-01 -1.310287E-02  0.000000E+00  1.041937E-02  7.349120E-04 -2.388057E-19  1.254390E-01  0.000000E+00
  4.193750E-01 -1.145689E-02  5.000000E-01  4.236103E-01 -1.162400E-02  0.000000E+00  1.014985E-02  7.219538E-04 -4.171631E-19  1.394457E-01  0.000000E+00
  4.400850E-01 -9.986879E-03  5.000000E-01  4.445294E-01 -1.013914E-02  0.000000E+00  9.989135E-03  6.997689E-04 -2.131907E-19  1.512639E-01  0.000000E+00
  4.609060E-01 -8.548782E-03  5.000000E-01  4.655607E-01 -8.686518E-03  0.000000E+00  9.944473E-03  6.736914E-04  5.130588E-19  1.595876E-01  0.000000E+00
  4.818030E-01 -7.160423E-03  5.000000E-01  4.866687E-01 -7.284138E-03  0.000000E+00  9.994602E-03  6.361050E-04  6.520476E-19  1.650681E-01  0.000000E+00
  5.027520E-01 -5.883126E-03  5.000000E-01  5.078293E-01 -5.993941E-03  0.000000E+00  1.007194E-02  5.929899E-04  4.683701E-20  1.675954E-01  0.000000E+00
  5.237130E-01 -4.695548E-03  5.000000E-01  5.290020E-01 -4.794370E-03  0.000000E+00  1.005013E-02  5.941737E-04  6.340539E-19  1.627484E-01  0.000000E+00
  5.446170E-01 -3.414334E-03  5.000000E-01  5.501171E-01 -3.500217E-03  0.000000E+00  9.806851E-03  6.753702E-04  2.559642E-18  1.520761E-01  0.000000E+00
  5.653940E-01 -1.817402E-03  5.000000E-01  5.711039E-01 -1.887158E-03  0.000000E+00  9.330182E-03  7.857971E-04  2.502125E-18  1.512461E-01  0.000000E+00
  4.675910E-01  7.231123E-02  5.000000E-01  4.723132E-01  7.299010E-02  0.000000E+00  1.398032E-02 -1.146538E-03  1.556831E-19 -7.126504E-01  0.000000E+00
  4.464640E-01  7.394479E-02  5.000000E-01  4.509728E-01  7.464015E-02  0.000000E+00  1.500220E-02 -1.049314E-03 -2.065251E-19 -7.695019E-01  0.000000E+00
  4.254410E-01  7.527292E-02  5.000000E-01  4.297375E-01  7.598169E-02  0.000000E+00  1.603249E-02 -8.884028E-04  2.738897E-19 -8.160587E-01  0.000000E+00
  4.045840E-01  7.627635E-02  5.000000E-01  4.086699E-01  7.699526E-02  0.000000E+00  1.693777E-02 -6.932045E-04  2.381503E-19 -8.544345E-01  0.000000E+00
  3.839530E-01  7.697921E-02  5.000000E-01  3.878305E-01  7.770522E-02  0.000000E+00  1.766567E-02 -4.817522E-04 -7.566159E-19 -8.867309E-01  0.000000E+00
  3.636060E-01  7.740093E-02  5.000000E-01  3.672781E-01  7.813120E-02  0.000000E+00  1.823596E-02 -2.600452E-04 -8.274367E-19 -9.145735E-01  0.000000E+00
  3.435960E-01  7.756038E-02  5.000000E-01  3.470660E-01  7.829226E-02  0.000000E+00  1.870299E-02 -3.344658E-05 -2.741432E-19 -9.407155E-01  0.000000E+00
  3.239710E-01  7.747629E-02  5.000000E-01  3.272428E-01  7.820733E-02  0.000000E+00  1.913067E-02  1.958508E-04 -1.069528E-20 -9.681882E-01  0.000000E+00
  3.047740E-01  7.716707E-02  5.000000E-01  3.078519E-01  7.789498E-02  0.000000E+00  1.957905E-02  4.358147E-04 -1.192104E-19 -9.982057E-01  0.000000E+00
  2.860450E-01  7.663757E-02  5.000000E-01  2.889338E-01  7.736013E-02  0.000000E+00  2.009055E-02  7.042432E-04 -1.393006E-19 -1.029193E+00  0.000000E+00
  2.678190E-01  7.587873E-02  5.000000E-01  2.705237E-01  7.659363E-02  0.000000E+00  2.067183E-02  1.012904E-03  9.690362E-20 -1.059310E+00  0.000000E+00
  2.501300E-01  7.488546E-02  5.000000E-01  2.526561E-01  7.559032E-02  0.000000E+00  2.129799E-02  1.361405E-03 -4.044675E-19 -1.088156E+00  0.000000E+00
  2.330040E-01  7.366110E-02  5.000000E-01  2.353571E-01  7.435360E-02  0.000000E+00  2.193677E-02  1.746059E-03 -5.939253E-19 -1.115488E+00  0.000000E+00
  2.164660E-01  7.221385E-02  5.000000E-01  2.186521E-01  7.289173E-02  0.000000E+00  2.256645E-02  2.165301E-03 -4.961656E-19 -1.139463E+00  0.000000E+00
  2.005340E-01  7.055484E-02  5.000000E-01  2.025592E-01  7.121597E-02  0.000000E+00  2.318007E-02  2.627241E-03 -7.342771E-20 -1.155580E+00  0.000000E+00
  1.852230E-01  6.868390E-02  5.000000E-01  1.870936E-01  6.932614E-02  0.000000E+00  2.376006E-02  3.130289E-03  1.231763E-19 -1.161902E+00  0.000000E+00
  1.705440E-01  6.661386E-02  5.000000E-01  1.722663E-01  6.723519E-02  0.000000E+00  2.427476E-02  3.646499E-03 -9.860889E-19 -1.165014E+00  0.000000E+00
  1.565000E-01  6.437591E-02  5.000000E-01  1.580805E-01  6.497464E-02  0.000000E+00  2.473076E-02  4.156012E-03 -2.053918E-18 -1.175915E+00  0.000000E+00
  1.430940E-01  6.200520E-02  5.000000E-01  1.445391E-01  6.257999E-02  0.000000E+00  2.520862E-02  4.694405E-03 -2.529526E-18 -1.198006E+00  0.000000E+00
  1.303270E-01  5.950918E-02  5.000000E-01  1.316432E-01  6.005876E-02  0.000000E+00  2.581290E-02  5.361220E-03 -2.563933E-18 -1.217718E+00  0.000000E+00
  1.182110E-01  5.685063E-02  5.000000E-01  1.194048E-01  5.737337E-02  0.000000E+00  2.652843E-02  6.213574E-03 -1.595691E-18 -1.214575E+00  0.000000E+00
  1.067560E-01  5.400656E-02  5.000000E-01  1.078341E-01  5.450057E-02  0.000000E+00  2.716763E-02  7.192705E-03 -7.752686E-20 -1.177312E+00  0.000000E+00
  9.596750E-02  5.097798E-02  5.000000E-01  9.693668E-02  5.144140E-02  0.000000E+00  2.747092E-02  8.101644E-03  1.013518E-18 -1.117774E+00  0.000000E+00
  8.582800E-02  4.784124E-02  5.000000E-01  8.669478E-02  4.827299E-02  0.000000E+00  2.734108E-02  8.762002E-03  1.110396E-18 -1.060921E+00  0.000000E+00
  8.582800E-02  4.784124E-02  5.000000E-01  8.669478E-02  4.827299E-02  0.000000E+00  2.734108E-02  8.762002E-03  1.110396E-18 -1.060921E+00  0.000000E+00
  7.631050E-02  4.468216E-02  5.000000E-01  7.708116E-02  4.508201E-02  0.000000E+00  2.696690E-02  9.271754E-03  5.248345E-19 -1.012089E+00  0.000000E+00
  6.740780E-02  4.151448E-02  5.000000E-01  6.808856E-02  4.188233E-02  0.000000E+00  2.657698E-02  9.819410E-03  1.018166E-18 -9.618441E-01  0.000000E+00
  5.911740E-02  3.833738E-02  5.000000E-01  5.971443E-02  3.867315E-02  0.000000E+00  2.623936E-02  1.043951E-02  2.242346E-18 -9.060530E-01  0.000000E+00
  5.143150E-02  3.516608E-02  5.000000E-01  5.195091E-02  3.546982E-02  0.000000E+00  2.591514E-02  1.108398E-02  1.258995E-18 -8.455887E-01  0.000000E+00
  4.433770E-02  3.202382E-02  5.000000E-01  4.478547E-02  3.229583E-02  0.000000E+00  2.554498E-02  1.171251E-02  6.695465E-19 -7.837872E-01  0.000000E+00
  3.782240E-02  2.893351E-02  5.000000E-01  3.820437E-02  2.917431E-02  0.000000E+00  2.509543E-02  1.232060E-02  3.909247E-20 -7.250407E-01  0.000000E+00
  3.187460E-02  2.591149E-02  5.000000E-01  3.219651E-02  2.612177E-02  0.000000E+00  2.457288E-02  1.293465E-02 -2.575114E-18 -6.720362E-01  0.000000E+00
  2.648400E-02  2.297220E-02  5.000000E-01  2.675147E-02  2.315279E-02  0.000000E+00  2.400636E-02  1.363312E-02 -5.942700E-18 -6.162724E-01  0.000000E+00
  2.164990E-02  2.011660E-02  5.000000E-01  2.186855E-02  2.026835E-02  0.000000E+00  2.335537E-02  1.447241E-02 -1.224724E-17 -5.370991E-01  0.000000E+00
  1.737670E-02  1.734392E-02  5.000000E-01  1.755219E-02  1.746767E-02  0.000000E+00  2.246213E-02  1.525387E-02 -1.959456E-17 -4.292297E-01  0.000000E+00
  1.364080E-02  1.468871E-02  5.000000E-01  1.377856E-02  1.478565E-02  0.000000E+00  2.123334E-02  1.562748E-02 -2.452123E-17 -3.174098E-01  0.000000E+00
  1.039090E-02  1.220705E-02  5.000000E-01  1.049584E-02  1.227892E-02  0.000000E+00  1.980533E-02  1.556791E-02 -2.936073E-17 -2.294195E-01  0.000000E+00
  7.586340E-03  9.933553E-03  5.000000E-01  7.662959E-03  9.982470E-03  0.000000E+00  1.843833E-02  1.553725E-02 -3.577966E-17 -1.662778E-01  0.000000E+00
  5.226210E-03  7.864292E-03  5.000000E-01  5.278995E-03  7.892312E-03  0.000000E+00  1.731852E-02  1.610742E-02 -4.919654E-17 -1.108473E-01  0.000000E+00
  3.324300E-03  5.988153E-03  5.000000E-01  3.357877E-03  5.997225E-03  0.000000E+00  1.645416E-02  1.765891E-02 -8.461072E-17 -4.880938E-02  0.000000E+00
  1.883580E-03  4.311300E-03  5.000000E-01  1.902607E-03  4.303438E-03  0.000000E+00  1.554028E-02  2.042535E-02 -1.471002E-16  3.898540E-02  0.000000E+00
  8.951490E-04  2.854919E-03  5.000000E-01  9.041942E-04  2.832349E-03  0.000000E+00  1.379764E-02  2.419669E-02 -2.242804E-16  1.772599E-01  0.000000E+00
  3.201820E-04  1.658259E-03  5.000000E-01  3.234206E-04  1.623604E-03  0.000000E+00  1.040688E-02  2.763074E-02 -2.905838E-16  3.675533E-01  0.000000E+00
  6.852390E-05  7.703274E-04  5.000000E-01  6.922101E-05  7.267052E-04  0.000000E+00  5.842186E-03  2.860083E-02 -3.201124E-16  5.484166E-01  0.000000E+00
  4.217600E-06  2.307684E-04  5.000000E-01  4.265277E-06  1.816971E-04  0.000000E+00  2.016064E-03  2.734608E-02 -2.966069E-16  6.113174E-01  0.000000E+00
 -5.032520E-09  5.088786E-05  5.000000E-01  0.000000E+00  0.000000E+00  0.000000E+00 -2.528460E-04  2.826156E-02 -2.337167E-16  5.881501E-01  0.000000E+00
  5.154440E-06 -1.299910E-04  5.000000E-01  5.211578E-06 -1.827056E-04  0.000000E+00 -2.391770E-03  2.827831E-02 -1.818919E-16  6.630486E-01  0.000000E+00