 Title = "ADflow Slice Data"
Variables =  "CoordinateX"  "CoordinateY"  "CoordinateZ"  "XoC"  "YoC"  "ZoC" "VelocityX" "VelocityY" "VelocityZ" "CoefPressure" "Mach" 
Zone T= "Slice_0001 None Absolute Regular z = 0.50000000"
 Nodes =          192  Elements=          184  ZONETYPE=FELINESEG
 DATAPACKING=POINT
  5.653940E-01 -1.928282E-02  5.000000E-01  5.711042E-01 -1.954713E-02  0.000000E+00  1.273088E-02  5.530904E-04  4.518462E-19 -1.571773E-02  0.000000E+00
  5.859770E-01 -1.817998E-02  5.000000E-01  5.918951E-01 -1.843315E-02  0.000000E+00  1.209607E-02  7.495244E-04  6.679480E-19 -6.614308E-03  0.000000E+00
  6.063060E-01 -1.673843E-02  5.000000E-01  6.124294E-01 -1.697705E-02  0.000000E+00  1.134289E-02  8.798011E-04  9.326359E-20  1.727142E-02  0.000000E+00
  6.263240E-01 -1.504371E-02  5.000000E-01  6.326496E-01 -1.526521E-02  0.000000E+00  1.053113E-02  9.362488E-04  4.506395E-19  4.902239E-02  0.000000E+00
  6.459860E-01 -1.320640E-02  5.000000E-01  6.525102E-01 -1.340934E-02  0.000000E+00  9.718235E-03  9.293084E-04  1.001910E-18  8.348334E-02  0.000000E+00
  6.652460E-01 -1.132052E-02  5.000000E-01  6.719647E-01 -1.150442E-02  0.000000E+00  8.957020E-03  8.778128E-04 -2.781238E-19  1.173041E-01  0.000000E+00
  6.840650E-01 -9.474200E-03  5.000000E-01  6.909738E-01 -9.639448E-03  0.000000E+00  8.307036E-03  7.918321E-04 -9.371871E-19  1.499662E-01  0.000000E+00
  7.024070E-01 -7.779608E-03  5.000000E-01  7.095010E-01 -7.927741E-03  0.000000E+00  7.831997E-03  6.785819E-04 -1.017954E-19  1.803355E-01  0.000000E+00
  7.202400E-01 -6.342096E-03  5.000000E-01  7.275141E-01 -6.475711E-03  0.000000E+00  7.588910E-03  5.465098E-04  3.983259E-19  2.051911E-01  0.000000E+00
  7.375350E-01 -5.248118E-03  5.000000E-01  7.449838E-01 -5.370684E-03  0.000000E+00  7.622569E-03  3.978789E-04  2.289980E-19  2.213765E-01  0.000000E+00
  7.542690E-01 -4.556285E-03  5.000000E-01  7.618868E-01 -4.671864E-03  0.000000E+00  7.958421E-03  2.242899E-04  3.874974E-19  2.266824E-01  0.000000E+00
  7.704220E-01 -4.299682E-03  5.000000E-01  7.782029E-01 -4.412670E-03  0.000000E+00  8.592099E-03  1.165192E-05  4.131807E-19  2.206378E-01  0.000000E+00
  7.859770E-01 -4.484774E-03  5.000000E-01  7.939150E-01 -4.599630E-03  0.000000E+00  9.461543E-03 -2.176882E-04  4.824226E-19  2.000425E-01  0.000000E+00
  8.009220E-01 -4.983043E-03  5.000000E-01  8.090110E-01 -5.102932E-03  0.000000E+00  1.043586E-02 -3.896642E-04  8.507456E-19  1.607879E-01  0.000000E+00
  8.152480E-01 -5.571915E-03  5.000000E-01  8.234816E-01 -5.697751E-03  0.000000E+00  1.137160E-02 -4.533921E-04  7.022954E-19  1.105537E-01  0.000000E+00
  8.289490E-01 -6.100329E-03  5.000000E-01  8.373210E-01 -6.231501E-03  0.000000E+00  1.216358E-02 -4.128735E-04  3.573015E-19  6.294953E-02  0.000000E+00
  8.420260E-01 -6.485450E-03  5.000000E-01  8.505301E-01 -6.620513E-03  0.000000E+00  1.274996E-02 -2.940802E-04  3.103425E-19  2.459549E-02  0.000000E+00
  8.544790E-01 -6.695616E-03  5.000000E-01  8.631089E-01 -6.832801E-03  0.000000E+00  1.310608E-02 -1.270378E-04  1.752090E-19 -3.824157E-03  0.000000E+00
  8.663160E-01 -6.726946E-03  5.000000E-01  8.750654E-01 -6.864447E-03  0.000000E+00  1.323410E-02  6.297118E-05 -1.144244E-19 -2.340609E-02  0.000000E+00
  8.775420E-01 -6.590556E-03  5.000000E-01  8.864048E-01 -6.726680E-03  0.000000E+00  1.315438E-02  2.567147E-04 -5.548242E-20 -3.494728E-02  0.000000E+00
  8.881660E-01 -6.303965E-03  5.000000E-01  8.971361E-01 -6.437194E-03  0.000000E+00  1.289899E-02  4.403956E-04  3.485454E-19 -3.911489E-02  0.000000E+00
  8.981970E-01 -5.887758E-03  5.000000E-01  9.072684E-01 -6.016784E-03  0.000000E+00  1.251123E-02  6.004040E-04  4.919508E-19 -3.640000E-02  0.000000E+00
  9.076460E-01 -5.370380E-03  5.000000E-01  9.168128E-01 -5.494181E-03  0.000000E+00  1.204603E-02  7.223850E-04 -3.107931E-19 -2.719103E-02  0.000000E+00
  9.165220E-01 -4.789705E-03  5.000000E-01  9.257785E-01 -4.907641E-03  0.000000E+00  1.155631E-02  8.023743E-04 -6.266902E-19 -1.339095E-02  0.000000E+00
  9.165220E-01 -4.789705E-03  5.000000E-01  9.257785E-01 -4.907641E-03  0.000000E+00  1.155631E-02  8.023743E-04 -6.266902E-19 -1.339095E-02  0.000000E+00
  9.248360E-01 -4.177988E-03  5.000000E-01  9.341764E-01 -4.289746E-03  0.000000E+00  1.107815E-02  8.482306E-04 -3.356733E-19  2.054715E-03  0.000000E+00
  9.325990E-01 -3.559678E-03  5.000000E-01  9.420178E-01 -3.665192E-03  0.000000E+00  1.063167E-02  8.691964E-04 -4.371411E-19  1.742674E-02  0.000000E+00
  9.398210E-01 -2.953492E-03  5.000000E-01  9.493128E-01 -3.052883E-03  0.000000E+00  1.022705E-02  8.725390E-04  1.000649E-19  3.218755E-02  0.000000E+00
  9.465130E-01 -2.372986E-03  5.000000E-01  9.560724E-01 -2.466515E-03  0.000000E+00  9.868360E-03  8.639005E-04  3.765600E-19  4.610289E-02  0.000000E+00
  9.526870E-01 -1.827452E-03  5.000000E-01  9.623087E-01 -1.915471E-03  0.000000E+00  9.555343E-03  8.473672E-04  2.995166E-19  5.895799E-02  0.000000E+00
  9.583540E-01 -1.323064E-03  5.000000E-01  9.680329E-01 -1.405989E-03  0.000000E+00  9.284885E-03  8.258415E-04 -2.980192E-19  7.062827E-02  0.000000E+00
  9.635240E-01 -8.635700E-04  5.000000E-01  9.732552E-01 -9.418540E-04  0.000000E+00  9.052181E-03  8.014979E-04 -1.206238E-18  8.105280E-02  0.000000E+00
  9.682080E-01 -4.504684E-04  5.000000E-01  9.779865E-01 -5.245802E-04  0.000000E+00  8.852238E-03  7.757296E-04 -1.141963E-18  9.025484E-02  0.000000E+00
  9.724140E-01 -8.431586E-05  5.000000E-01  9.822349E-01 -1.547297E-04  0.000000E+00  8.681720E-03  7.497193E-04 -5.346951E-19  9.830402E-02  0.000000E+00
  9.761510E-01  2.357258E-04  5.000000E-01  9.860097E-01  1.685442E-04  0.000000E+00  8.539762E-03  7.250314E-04 -1.424290E-19  1.052258E-01  0.000000E+00
  9.794290E-01  5.115388E-04  5.000000E-01  9.893208E-01  4.471428E-04  0.000000E+00  8.426515E-03  7.025389E-04 -7.948899E-20  1.110587E-01  0.000000E+00
  9.822540E-01  7.447549E-04  5.000000E-01  9.921743E-01  6.827143E-04  0.000000E+00  8.338658E-03  6.816626E-04  3.273895E-19  1.159673E-01  0.000000E+00
  9.846330E-01  9.375566E-04  5.000000E-01  9.945774E-01  8.774632E-04  0.000000E+00  8.270453E-03  6.631007E-04  1.796228E-18  1.209237E-01  0.000000E+00
  9.865710E-01  1.091858E-03  5.000000E-01  9.965349E-01  1.033323E-03  0.000000E+00  8.194616E-03  6.544355E-04  3.069023E-18  1.249954E-01  0.000000E+00
  9.880740E-01  1.209843E-03  5.000000E-01  9.980531E-01  1.152500E-03  0.000000E+00  8.023214E-03  6.269437E-04 -1.393813E-18  1.213655E-01  0.000000E+00
  9.891450E-01  1.292931E-03  5.000000E-01  9.991349E-01  1.236426E-03  0.000000E+00  8.259513E-03  5.673335E-04 -2.320476E-17  1.284556E-01  0.000000E+00
  9.897860E-01  1.342167E-03  5.000000E-01  9.997824E-01  1.286160E-03  0.000000E+00  1.102813E-02  1.201696E-03 -6.712334E-17  1.766603E-01  0.000000E+00
  9.900000E-01  1.358619E-03  5.000000E-01  9.999986E-01  1.302778E-03  0.000000E+00  7.874670E-03 -1.100669E-03 -7.223462E-17  2.706685E-03  0.000000E+00
  9.900000E-01  1.437329E-03  5.000000E-01  9.999986E-01  1.382283E-03  0.000000E+00  8.224731E-04 -1.059086E-02 -1.142376E-19 -9.905970E-02  0.000000E+00
  9.900000E-01  1.516049E-03  5.000000E-01  9.999986E-01  1.461798E-03  0.000000E+00 -4.182519E-04 -9.912368E-03  7.329442E-17  4.386907E-02  0.000000E+00
  9.900000E-01  1.594769E-03  5.000000E-01  9.999986E-01  1.541313E-03  0.000000E+00 -3.178728E-04  4.119598E-03  9.496778E-17  4.390680E-02  0.000000E+00
  9.900000E-01  1.673479E-03  5.000000E-01  9.999986E-01  1.620818E-03  0.000000E+00  7.176362E-04  4.864516E-03  1.298969E-16 -7.197797E-02  0.000000E+00
  9.900000E-01  1.752199E-03  5.000000E-01  9.999986E-01  1.700333E-03  0.000000E+00  5.671739E-03 -8.987886E-04  1.708045E-16  2.860714E-02  0.000000E+00
  9.900000E-01  1.752199E-03  5.000000E-01  9.999986E-01  1.700333E-03  0.000000E+00  5.671739E-03 -8.987886E-04  1.708045E-16  2.860714E-02  0.000000E+00
  9.897900E-01  1.746650E-03  5.000000E-01  9.997864E-01  1.694728E-03  0.000000E+00  7.390146E-03 -1.701076E-04  1.231829E-16  1.842533E-01  0.000000E+00
  9.891580E-01  1.729938E-03  5.000000E-01  9.991481E-01  1.677848E-03  0.000000E+00  4.968735E-03  1.873758E-04  4.137167E-17  1.417764E-01  0.000000E+00
  9.881040E-01  1.703291E-03  5.000000E-01  9.980834E-01  1.650931E-03  0.000000E+00  4.682479E-03  1.203514E-04  3.921001E-18  1.315985E-01  0.000000E+00
  9.866260E-01  1.668292E-03  5.000000E-01  9.965905E-01  1.615578E-03  0.000000E+00  4.734262E-03  1.005052E-04 -4.445390E-18  1.408756E-01  0.000000E+00
  9.847200E-01  1.626905E-03  5.000000E-01  9.946652E-01  1.573774E-03  0.000000E+00  4.612484E-03  9.447929E-05 -3.312514E-18  1.448674E-01  0.000000E+00
  9.823820E-01  1.581965E-03  5.000000E-01  9.923036E-01  1.528380E-03  0.000000E+00  4.434726E-03  7.926483E-05 -1.127413E-18  1.468421E-01  0.000000E+00
  9.796080E-01  1.537188E-03  5.000000E-01  9.895016E-01  1.483151E-03  0.000000E+00  4.259290E-03  6.136923E-05 -3.243359E-19  1.494730E-01  0.000000E+00
  9.763910E-01  1.496561E-03  5.000000E-01  9.862521E-01  1.442113E-03  0.000000E+00  4.093680E-03  4.319323E-05 -8.830273E-20  1.521613E-01  0.000000E+00
  9.727270E-01  1.465633E-03  5.000000E-01  9.825511E-01  1.410873E-03  0.000000E+00  3.938367E-03  2.428864E-05  1.413365E-19  1.545452E-01  0.000000E+00
  9.686070E-01  1.449955E-03  5.000000E-01  9.783895E-01  1.395036E-03  0.000000E+00  3.789565E-03  4.693407E-06  3.845033E-19  1.566852E-01  0.000000E+00
  9.640240E-01  1.456529E-03  5.000000E-01  9.737602E-01  1.401677E-03  0.000000E+00  3.641788E-03 -1.550376E-05  2.495701E-19  1.585859E-01  0.000000E+00
  9.589680E-01  1.492913E-03  5.000000E-01  9.686531E-01  1.438428E-03  0.000000E+00  3.491706E-03 -3.611253E-05  1.247072E-21  1.601503E-01  0.000000E+00
  9.534310E-01  1.568284E-03  5.000000E-01  9.630602E-01  1.514561E-03  0.000000E+00  3.338989E-03 -5.691704E-05  9.274737E-20  1.612521E-01  0.000000E+00
  9.474030E-01  1.692749E-03  5.000000E-01  9.569713E-01  1.640283E-03  0.000000E+00  3.184851E-03 -7.763000E-05  2.586201E-19  1.618703E-01  0.000000E+00
  9.408720E-01  1.877477E-03  5.000000E-01  9.503744E-01  1.826877E-03  0.000000E+00  3.030773E-03 -9.808249E-05  1.113660E-19  1.618847E-01  0.000000E+00
  9.338280E-01  2.135585E-03  5.000000E-01  9.432592E-01  2.087592E-03  0.000000E+00  2.878467E-03 -1.182166E-04 -4.590411E-19  1.611589E-01  0.000000E+00
  9.262600E-01  2.481759E-03  5.000000E-01  9.356148E-01  2.437262E-03  0.000000E+00  2.729574E-03 -1.378939E-04 -5.018918E-19  1.596003E-01  0.000000E+00
  9.181550E-01  2.931983E-03  5.000000E-01  9.274280E-01  2.892033E-03  0.000000E+00  2.585803E-03 -1.570495E-04  1.410249E-20  1.570162E-01  0.000000E+00
  9.095020E-01  3.504740E-03  5.000000E-01  9.186876E-01  3.470574E-03  0.000000E+00  2.449455E-03 -1.757372E-04  2.725551E-19  1.532646E-01  0.000000E+00
  9.002880E-01  4.219974E-03  5.000000E-01  9.093805E-01  4.193032E-03  0.000000E+00  2.323437E-03 -1.942444E-04  1.156314E-19  1.483236E-01  0.000000E+00
  8.905020E-01  5.100179E-03  5.000000E-01  8.994957E-01  5.082126E-03  0.000000E+00  2.212375E-03 -2.137114E-04  5.758935E-19  1.419852E-01  0.000000E+00
  8.801320E-01  6.174279E-03  5.000000E-01  8.890209E-01  6.167074E-03  0.000000E+00  2.125858E-03 -2.363031E-04  7.431666E-19  1.336404E-01  0.000000E+00
  8.691700E-01  7.478528E-03  5.000000E-01  8.779482E-01  7.484495E-03  0.000000E+00  2.081580E-03 -2.653764E-04 -4.095280E-19  1.225733E-01  0.000000E+00
  8.691700E-01  7.478528E-03  5.000000E-01  8.779482E-01  7.484495E-03  0.000000E+00  2.081580E-03 -2.653764E-04 -4.095280E-19  1.225733E-01  0.000000E+00
  8.576080E-01  9.052188E-03  5.000000E-01  8.662695E-01  9.074048E-03  0.000000E+00  2.106292E-03 -3.062711E-04 -9.639737E-19  1.081545E-01  0.000000E+00
  8.454380E-01  1.093386E-02  5.000000E-01  8.539765E-01  1.097473E-02  0.000000E+00  2.235527E-03 -3.675361E-04 -5.237790E-19  8.947754E-02  0.000000E+00
  8.326580E-01  1.315502E-02  5.000000E-01  8.410675E-01  1.321832E-02  0.000000E+00  2.514511E-03 -4.615731E-04 -2.382823E-18  6.413929E-02  0.000000E+00
  8.192630E-01  1.572670E-02  5.000000E-01  8.275372E-01  1.581597E-02  0.000000E+00  3.002609E-03 -6.017051E-04 -3.925375E-18  2.637246E-02  0.000000E+00
  8.052550E-01  1.861712E-02  5.000000E-01  8.133877E-01  1.873558E-02  0.000000E+00  3.770189E-03 -7.907455E-04 -2.040047E-18 -2.933339E-02  0.000000E+00
  7.906370E-01  2.171238E-02  5.000000E-01  7.986221E-01  2.186210E-02  0.000000E+00  4.858735E-03 -9.969760E-04 -1.598705E-18 -9.737887E-02  0.000000E+00
  7.754120E-01  2.476496E-02  5.000000E-01  7.832433E-01  2.494551E-02  0.000000E+00  6.205070E-03 -1.150079E-03 -7.192017E-19 -1.622093E-01  0.000000E+00
  7.595880E-01  2.751049E-02  5.000000E-01  7.672595E-01  2.771877E-02  0.000000E+00  7.611124E-03 -1.198195E-03  2.611944E-19 -2.157526E-01  0.000000E+00
  7.431760E-01  2.987208E-02  5.000000E-01  7.506817E-01  3.010421E-02  0.000000E+00  8.825756E-03 -1.132878E-03  9.597570E-20 -2.541133E-01  0.000000E+00
  7.261880E-01  3.182112E-02  5.000000E-01  7.335222E-01  3.207293E-02  0.000000E+00  9.635261E-03 -9.741274E-04  6.707808E-19 -2.701229E-01  0.000000E+00
  7.086430E-01  3.337387E-02  5.000000E-01  7.158000E-01  3.364137E-02  0.000000E+00  9.916963E-03 -7.772517E-04  2.367147E-19 -2.619130E-01  0.000000E+00
  6.905640E-01  3.461242E-02  5.000000E-01  6.975384E-01  3.489243E-02  0.000000E+00  9.683979E-03 -6.178655E-04 -2.528489E-19 -2.373893E-01  0.000000E+00
  6.719770E-01  3.570464E-02  5.000000E-01  6.787637E-01  3.599568E-02  0.000000E+00  9.081829E-03 -5.544206E-04 -2.261633E-19 -2.139998E-01  0.000000E+00
  6.529150E-01  3.690776E-02  5.000000E-01  6.595091E-01  3.721095E-02  0.000000E+00  8.343515E-03 -5.807672E-04 -4.453482E-19 -2.051857E-01  0.000000E+00
  6.334180E-01  3.840186E-02  5.000000E-01  6.398152E-01  3.872013E-02  0.000000E+00  7.700150E-03 -6.383042E-04 -8.369421E-19 -2.103213E-01  0.000000E+00
  6.135280E-01  4.018615E-02  5.000000E-01  6.197244E-01  4.052245E-02  0.000000E+00  7.290247E-03 -6.944750E-04 -8.956157E-19 -2.267451E-01  0.000000E+00
  5.932910E-01  4.222853E-02  5.000000E-01  5.992830E-01  4.258546E-02  0.000000E+00  7.157083E-03 -7.528297E-04 -3.094100E-19 -2.545554E-01  0.000000E+00
  5.727570E-01  4.447498E-02  5.000000E-01  5.785416E-01  4.485459E-02  0.000000E+00  7.289047E-03 -8.151560E-04 -3.528725E-19 -2.909808E-01  0.000000E+00
  5.519810E-01  4.684944E-02  5.000000E-01  5.575558E-01  4.725304E-02  0.000000E+00  7.639944E-03 -8.762838E-04 -1.065194E-19 -3.320789E-01  0.000000E+00
  5.310180E-01  4.926397E-02  5.000000E-01  5.363810E-01  4.969195E-02  0.000000E+00  8.146325E-03 -9.334071E-04  2.951892E-19 -3.772077E-01  0.000000E+00
  5.099250E-01  5.166693E-02  5.000000E-01  5.150750E-01  5.211918E-02  0.000000E+00  8.752101E-03 -9.862554E-04  2.641746E-19 -4.289090E-01  0.000000E+00
  4.887640E-01  5.402417E-02  5.000000E-01  4.937003E-01  5.450023E-02  0.000000E+00  9.422182E-03 -1.024206E-03  3.935407E-19 -4.866705E-01  0.000000E+00
  4.675910E-01  5.627230E-02  5.000000E-01  4.723135E-01  5.677107E-02  0.000000E+00  1.012219E-02 -1.027813E-03  4.805348E-19 -5.449898E-01  0.000000E+00
  7.860720E-05 -3.611343E-04  5.000000E-01  7.940618E-05 -4.343439E-04  0.000000E+00 -4.883455E-02  1.289383E-01 -8.213376E-15 -9.234835E-01  0.000000E+00
  3.989240E-04 -8.629761E-04  5.000000E-01  4.029580E-04 -9.412540E-04  0.000000E+00 -5.370683E-02  6.462833E-02 -6.793883E-15  2.967277E-01  0.000000E+00
  1.196920E-03 -1.472070E-03  5.000000E-01  1.209013E-03 -1.556500E-03  0.000000E+00 -3.802916E-02  2.518783E-02 -4.579328E-15  9.348848E-01  0.000000E+00
  2.563580E-03 -2.115260E-03  5.000000E-01  2.589476E-03 -2.206186E-03  0.000000E+00 -1.861733E-02  8.063786E-03 -2.436886E-15  1.063182E+00  0.000000E+00
  4.492740E-03 -2.762538E-03  5.000000E-01  4.538120E-03 -2.860000E-03  0.000000E+00 -4.818389E-03  1.610784E-03 -8.787055E-16  1.039466E+00  0.000000E+00
  6.952190E-03 -3.414606E-03  5.000000E-01  7.022409E-03 -3.518654E-03  0.000000E+00  3.159924E-03 -7.339252E-04 -5.774828E-17  9.931476E-01  0.000000E+00
  9.910730E-03 -4.092613E-03  5.000000E-01  1.001083E-02 -4.203509E-03  0.000000E+00  7.221241E-03 -1.580703E-03  1.929463E-16  9.398033E-01  0.000000E+00
  1.334950E-02 -4.820774E-03  5.000000E-01  1.348433E-02 -4.939024E-03  0.000000E+00  9.068116E-03 -1.831652E-03  1.649342E-16  8.802614E-01  0.000000E+00
  1.728780E-02 -5.583001E-03  5.000000E-01  1.746240E-02 -5.708949E-03  0.000000E+00  9.791774E-03 -1.771311E-03  7.283187E-17  8.147881E-01  0.000000E+00
  2.175590E-02 -6.337062E-03  5.000000E-01  2.197563E-02 -6.470626E-03  0.000000E+00  1.001225E-02 -1.555649E-03  1.029873E-17  7.493115E-01  0.000000E+00
  2.676920E-02 -7.048513E-03  5.000000E-01  2.703956E-02 -7.189262E-03  0.000000E+00  1.007634E-02 -1.309839E-03 -1.099428E-17  6.912373E-01  0.000000E+00
  3.232800E-02 -7.704203E-03  5.000000E-01  3.265450E-02 -7.851574E-03  0.000000E+00  1.016137E-02 -1.099547E-03 -1.025667E-17  6.429981E-01  0.000000E+00
  3.842930E-02 -8.305559E-03  5.000000E-01  3.881742E-02 -8.459003E-03  0.000000E+00  1.032258E-02 -9.395637E-04 -4.600008E-18  6.024648E-01  0.000000E+00
  4.507220E-02 -8.861094E-03  5.000000E-01  4.552741E-02 -9.020150E-03  0.000000E+00  1.055152E-02 -8.327581E-04 -7.436366E-19  5.678038E-01  0.000000E+00
  5.225680E-02 -9.394473E-03  5.000000E-01  5.278457E-02 -9.558915E-03  0.000000E+00  1.082735E-02 -7.781434E-04  8.024273E-19  5.379009E-01  0.000000E+00
  5.998640E-02 -9.932311E-03  5.000000E-01  6.059224E-02 -1.010219E-02  0.000000E+00  1.112201E-02 -7.500953E-04  1.003863E-18  5.088883E-01  0.000000E+00
  6.827110E-02 -1.047470E-02  5.000000E-01  6.896061E-02 -1.065005E-02  0.000000E+00  1.140167E-02 -7.177668E-04  1.096632E-18  4.781269E-01  0.000000E+00
  7.712280E-02 -1.101016E-02  5.000000E-01  7.790171E-02 -1.119092E-02  0.000000E+00  1.164522E-02 -6.724270E-04  1.218778E-18  4.474040E-01  0.000000E+00
  8.655260E-02 -1.152871E-02  5.000000E-01  8.742675E-02 -1.171470E-02  0.000000E+00  1.184334E-02 -6.131374E-04  5.388837E-19  4.184977E-01  0.000000E+00
  9.657140E-02 -1.201576E-02  5.000000E-01  9.754673E-02 -1.220667E-02  0.000000E+00  1.198389E-02 -5.318132E-04  1.334941E-19  3.910144E-01  0.000000E+00
  1.071900E-01 -1.244285E-02  5.000000E-01  1.082726E-01 -1.263808E-02  0.000000E+00  1.205599E-02 -4.266210E-04  4.712853E-19  3.653490E-01  0.000000E+00
  1.184180E-01 -1.278568E-02  5.000000E-01  1.196140E-01 -1.298437E-02  0.000000E+00  1.206342E-02 -3.125773E-04  4.041517E-19  3.437605E-01  0.000000E+00
  1.302610E-01 -1.303722E-02  5.000000E-01  1.315766E-01 -1.323845E-02  0.000000E+00  1.201745E-02 -2.055542E-04  1.250191E-20  3.270084E-01  0.000000E+00
  1.427230E-01 -1.319843E-02  5.000000E-01  1.441644E-01 -1.340129E-02  0.000000E+00  1.192276E-02 -1.122685E-04 -2.744209E-19  3.140860E-01  0.000000E+00
  1.427230E-01 -1.319843E-02  5.000000E-01  1.441644E-01 -1.340129E-02  0.000000E+00  1.192276E-02 -1.122685E-04 -2.744209E-19  3.140860E-01  0.000000E+00
  1.558070E-01 -1.327530E-02  5.000000E-01  1.573806E-01 -1.347893E-02  0.000000E+00  1.177196E-02 -2.944685E-05 -4.822653E-19  3.036710E-01  0.000000E+00
  1.695140E-01 -1.326312E-02  5.000000E-01  1.712260E-01 -1.346664E-02  0.000000E+00  1.155130E-02  5.072885E-05 -6.712919E-19  2.951358E-01  0.000000E+00
  1.838420E-01 -1.314906E-02  5.000000E-01  1.856987E-01 -1.335143E-02  0.000000E+00  1.125701E-02  1.281738E-04 -6.821204E-19  2.894953E-01  0.000000E+00
  1.987870E-01 -1.292594E-02  5.000000E-01  2.007947E-01 -1.312605E-02  0.000000E+00  1.090747E-02  1.913146E-04 -3.956630E-19  2.883221E-01  0.000000E+00
  2.143420E-01 -1.261028E-02  5.000000E-01  2.165068E-01 -1.280720E-02  0.000000E+00  1.054415E-02  2.217063E-04  5.885168E-20  2.923797E-01  0.000000E+00
  2.304940E-01 -1.225778E-02  5.000000E-01  2.328219E-01 -1.245114E-02  0.000000E+00  1.021796E-02  2.070065E-04  1.260335E-19  3.000319E-01  0.000000E+00
  2.472290E-01 -1.194560E-02  5.000000E-01  2.497259E-01 -1.213581E-02  0.000000E+00  9.974850E-03  1.471826E-04 -1.326640E-19  3.079716E-01  0.000000E+00
  2.645310E-01 -1.175946E-02  5.000000E-01  2.672026E-01 -1.194779E-02  0.000000E+00  9.848970E-03  5.350149E-05 -6.899113E-20  3.126437E-01  0.000000E+00
  2.823750E-01 -1.175923E-02  5.000000E-01  2.852269E-01 -1.194755E-02  0.000000E+00  9.864149E-03 -6.051514E-05  3.491058E-19  3.114579E-01  0.000000E+00
  3.007320E-01 -1.198399E-02  5.000000E-01  3.037693E-01 -1.217458E-02  0.000000E+00  1.004225E-02 -1.948383E-04  3.210118E-19  3.043168E-01  0.000000E+00
  3.195690E-01 -1.247953E-02  5.000000E-01  3.227965E-01 -1.267513E-02  0.000000E+00  1.039857E-02 -3.584755E-04 -4.306153E-19  2.917975E-01  0.000000E+00
  3.388440E-01 -1.329421E-02  5.000000E-01  3.422662E-01 -1.349804E-02  0.000000E+00  1.091816E-02 -5.414014E-04 -9.230513E-19  2.714778E-01  0.000000E+00
  3.585140E-01 -1.440813E-02  5.000000E-01  3.621348E-01 -1.462320E-02  0.000000E+00  1.154058E-02 -7.038270E-04 -1.412271E-18  2.395305E-01  0.000000E+00
  3.785290E-01 -1.571291E-02  5.000000E-01  3.823520E-01 -1.594117E-02  0.000000E+00  1.217783E-02 -8.060305E-04 -1.139757E-18  1.974498E-01  0.000000E+00
  3.988350E-01 -1.707568E-02  5.000000E-01  4.028631E-01 -1.731770E-02  0.000000E+00  1.273854E-02 -8.221310E-04  1.740203E-19  1.512193E-01  0.000000E+00
  4.193750E-01 -1.835040E-02  5.000000E-01  4.236105E-01 -1.860529E-02  0.000000E+00  1.314459E-02 -7.296926E-04  3.550325E-19  1.054547E-01  0.000000E+00
  4.400850E-01 -1.936900E-02  5.000000E-01  4.445297E-01 -1.963418E-02  0.000000E+00  1.336343E-02 -5.326366E-04 -2.439495E-21  6.443753E-02  0.000000E+00
  4.609060E-01 -2.000509E-02  5.000000E-01  4.655609E-01 -2.027669E-02  0.000000E+00  1.344335E-02 -2.999877E-04 -2.549985E-20  3.612211E-02  0.000000E+00
  4.818030E-01 -2.029507E-02  5.000000E-01  4.866690E-01 -2.056960E-02  0.000000E+00  1.347606E-02 -1.192329E-04 -7.898486E-20  2.448176E-02  0.000000E+00
  5.027520E-01 -2.037369E-02  5.000000E-01  5.078296E-01 -2.064902E-02  0.000000E+00  1.349569E-02 -1.502052E-06 -1.010900E-19  2.055677E-02  0.000000E+00
  5.237130E-01 -2.030397E-02  5.000000E-01  5.290023E-01 -2.057859E-02  0.000000E+00  1.343507E-02  1.249182E-04 -1.537413E-19  1.093222E-02  0.000000E+00
  5.446170E-01 -1.998964E-02  5.000000E-01  5.501174E-01 -2.026109E-02  0.000000E+00  1.319099E-02  3.214197E-04  6.389217E-20 -6.118682E-03  0.000000E+00
  5.653940E-01 -1.928282E-02  5.000000E-01  5.711042E-01 -1.954713E-02  0.000000E+00  1.273088E-02  5.530904E-04  4.518462E-19 -1.571773E-02  0.000000E+00
  4.675910E-01  5.627230E-02  5.000000E-01  4.723135E-01  5.677107E-02  0.000000E+00  1.012219E-02 -1.027813E-03  4.805348E-19 -5.449898E-01  0.000000E+00
  4.464640E-01  5.832826E-02  5.000000E-01  4.509731E-01  5.884778E-02  0.000000E+00  1.079328E-02 -9.869538E-04  1.490772E-18 -5.977895E-01  0.000000E+00
  4.254410E-01  6.013601E-02  5.000000E-01  4.297378E-01  6.067379E-02  0.000000E+00  1.136029E-02 -9.143512E-04  2.726044E-19 -6.432319E-01  0.000000E+00
  4.045840E-01  6.170537E-02  5.000000E-01  4.086701E-01  6.225900E-02  0.000000E+00  1.177645E-02 -8.357339E-04 -8.195054E-19 -6.832216E-01  0.000000E+00
  3.839530E-01  6.308591E-02  5.000000E-01  3.878308E-01  6.365348E-02  0.000000E+00  1.206363E-02 -7.690950E-04  4.744457E-19 -7.210124E-01  0.000000E+00
  3.636060E-01  6.432324E-02  5.000000E-01  3.672783E-01  6.490331E-02  0.000000E+00  1.231438E-02 -7.243353E-04  4.856874E-19 -7.648882E-01  0.000000E+00
  3.435960E-01  6.545943E-02  5.000000E-01  3.470662E-01  6.605098E-02  0.000000E+00  1.268365E-02 -7.083261E-04  5.201265E-19 -8.309409E-01  0.000000E+00
  3.239710E-01  6.653017E-02  5.000000E-01  3.272430E-01  6.713253E-02  0.000000E+00  1.339022E-02 -6.997738E-04  8.114501E-19 -9.323322E-01  0.000000E+00
  3.047740E-01  6.748779E-02  5.000000E-01  3.078521E-01  6.809982E-02  0.000000E+00  1.466910E-02 -6.218085E-04  8.556116E-19 -1.065658E+00  0.000000E+00
  2.860450E-01  6.815430E-02  5.000000E-01  2.889339E-01  6.877306E-02  0.000000E+00  1.663189E-02 -3.838172E-04  1.052268E-18 -1.216668E+00  0.000000E+00
  2.678190E-01  6.837412E-02  5.000000E-01  2.705239E-01  6.899510E-02  0.000000E+00  1.917062E-02  7.966218E-05  9.591888E-19 -1.366293E+00  0.000000E+00
  2.501300E-01  6.805229E-02  5.000000E-01  2.526562E-01  6.867003E-02  0.000000E+00  2.197497E-02  8.031706E-04  3.976840E-19 -1.488661E+00  0.000000E+00
  2.330040E-01  6.715340E-02  5.000000E-01  2.353572E-01  6.776206E-02  0.000000E+00  2.459856E-02  1.763250E-03  2.370576E-20 -1.558110E+00  0.000000E+00
  2.164660E-01  6.568611E-02  5.000000E-01  2.186522E-01  6.627995E-02  0.000000E+00  2.657329E-02  2.857297E-03  4.929313E-19 -1.561435E+00  0.000000E+00
  2.005340E-01  6.369428E-02  5.000000E-01  2.025593E-01  6.426801E-02  0.000000E+00  2.756665E-02  3.884144E-03  4.251974E-19 -1.510201E+00  0.000000E+00
  1.852230E-01  6.129712E-02  5.000000E-01  1.870937E-01  6.184663E-02  0.000000E+00  2.756119E-02  4.644519E-03  1.298113E-18 -1.434388E+00  0.000000E+00
  1.705440E-01  5.864287E-02  5.000000E-01  1.722664E-01  5.916557E-02  0.000000E+00  2.688108E-02  5.102284E-03  2.122615E-18 -1.361588E+00  0.000000E+00
  1.565000E-01  5.584402E-02  5.000000E-01  1.580806E-01  5.633846E-02  0.000000E+00  2.597316E-02  5.358731E-03  1.363988E-18 -1.308651E+00  0.000000E+00
  1.430940E-01  5.297753E-02  5.000000E-01  1.445392E-01  5.344302E-02  0.000000E+00  2.520216E-02  5.557408E-03  7.422036E-19 -1.279015E+00  0.000000E+00
  1.303270E-01  5.007382E-02  5.000000E-01  1.316432E-01  5.050998E-02  0.000000E+00  2.476827E-02  5.840539E-03  1.278404E-18 -1.260292E+00  0.000000E+00
  1.182110E-01  4.711598E-02  5.000000E-01  1.194049E-01  4.752227E-02  0.000000E+00  2.464917E-02  6.264588E-03  1.605557E-18 -1.235189E+00  0.000000E+00
  1.067560E-01  4.409300E-02  5.000000E-01  1.078342E-01  4.446875E-02  0.000000E+00  2.464140E-02  6.773905E-03  7.674437E-19 -1.194380E+00  0.000000E+00
  9.596750E-02  4.100996E-02  5.000000E-01  9.693673E-02  4.135458E-02  0.000000E+00  2.450040E-02  7.222428E-03 -6.197549E-19 -1.145834E+00  0.000000E+00
  8.582800E-02  3.792610E-02  5.000000E-01  8.669483E-02  3.823957E-02  0.000000E+00  2.412613E-02  7.495584E-03 -2.577544E-18 -1.106479E+00  0.000000E+00
  8.582800E-02  3.792610E-02  5.000000E-01  8.669483E-02  3.823957E-02  0.000000E+00  2.412613E-02  7.495584E-03 -2.577544E-18 -1.106479E+00  0.000000E+00
  7.631050E-02  3.490408E-02  5.000000E-01  7.708121E-02  3.518703E-02  0.000000E+00  2.363249E-02  7.668662E-03 -6.014213E-18 -1.078748E+00  0.000000E+00
  6.740780E-02  3.195248E-02  5.000000E-01  6.808859E-02  3.220562E-02  0.000000E+00  2.316462E-02  7.866285E-03 -1.423073E-17 -1.054909E+00  0.000000E+00
  5.911740E-02  2.906996E-02  5.000000E-01  5.971446E-02  2.929399E-02  0.000000E+00  2.275899E-02  8.105430E-03 -3.084881E-17 -1.031638E+00  0.000000E+00
  5.143150E-02  2.626707E-02  5.000000E-01  5.195094E-02  2.646279E-02  0.000000E+00  2.237871E-02  8.349730E-03 -8.015894E-17 -1.009999E+00  0.000000E+00
  4.433770E-02  2.355965E-02  5.000000E-01  4.478550E-02  2.372803E-02  0.000000E+00  2.197541E-02  8.570840E-03 -2.722641E-16 -9.938628E-01  0.000000E+00
  3.782240E-02  2.096271E-02  5.000000E-01  3.820439E-02  2.110486E-02  0.000000E+00  2.152179E-02  8.764942E-03 -9.170324E-16 -9.885733E-01  0.000000E+00
  3.187460E-02  1.848633E-02  5.000000E-01  3.219652E-02  1.860347E-02  0.000000E+00  2.100676E-02  8.942357E-03 -2.646041E-15 -9.974534E-01  0.000000E+00
  2.648400E-02  1.613867E-02  5.000000E-01  2.675148E-02  1.623210E-02  0.000000E+00  2.038653E-02  9.118802E-03 -6.352381E-15 -1.013453E+00  0.000000E+00
  2.164990E-02  1.391892E-02  5.000000E-01  2.186856E-02  1.398994E-02  0.000000E+00  1.947610E-02  9.241987E-03 -1.269351E-14 -1.018763E+00  0.000000E+00
  1.737670E-02  1.182493E-02  5.000000E-01  1.755220E-02  1.187480E-02  0.000000E+00  1.789952E-02  9.046081E-03 -2.135413E-14 -1.007120E+00  0.000000E+00
  1.364080E-02  9.874535E-03  5.000000E-01  1.377857E-02  9.904701E-03  0.000000E+00  1.526552E-02  8.141353E-03 -3.088610E-14 -1.001096E+00  0.000000E+00
  1.039090E-02  8.095610E-03  5.000000E-01  1.049585E-02  8.107810E-03  0.000000E+00  1.138629E-02  6.322503E-03 -3.933779E-14 -1.043356E+00  0.000000E+00
  7.586340E-03  6.501409E-03  5.000000E-01  7.662964E-03  6.497508E-03  0.000000E+00  6.371329E-03  3.659855E-03 -4.458329E-14 -1.182129E+00  0.000000E+00
  5.226210E-03  5.082732E-03  5.000000E-01  5.278997E-03  5.064503E-03  0.000000E+00  8.491781E-04  4.124018E-04 -4.395227E-14 -1.462058E+00  0.000000E+00
  3.324300E-03  3.826740E-03  5.000000E-01  3.357879E-03  3.795826E-03  0.000000E+00 -3.418624E-03 -2.525307E-03 -3.486639E-14 -1.888208E+00  0.000000E+00
  1.883580E-03  2.730627E-03  5.000000E-01  1.902608E-03  2.688643E-03  0.000000E+00 -3.133288E-03 -2.423902E-03 -1.868609E-14 -2.370454E+00  0.000000E+00
  8.951490E-04  1.800221E-03  5.000000E-01  9.041947E-04  1.748840E-03  0.000000E+00  4.115789E-03  5.783831E-03 -3.759602E-15 -2.751391E+00  0.000000E+00
  3.201820E-04  1.051445E-03  5.000000E-01  3.234208E-04  9.925015E-04  0.000000E+00  1.438849E-02  2.689737E-02  1.990134E-15 -2.949283E+00  0.000000E+00
  6.852390E-05  5.052993E-04  5.000000E-01  6.922104E-05  4.408403E-04  0.000000E+00  1.842227E-02  6.588667E-02 -2.307871E-16 -3.044548E+00  0.000000E+00
  4.217600E-06  1.774637E-04  5.000000E-01  4.265279E-06  1.096937E-04  0.000000E+00  1.186541E-02  1.355993E-01 -4.332001E-15 -3.060209E+00  0.000000E+00
 -5.032520E-09  6.886678E-05  5.000000E-01  0.000000E+00  0.000000E+00  0.000000E+00 -3.913942E-03  2.096107E-01 -7.032244E-15 -2.847098E+00  0.000000E+00
  5.154440E-06 -3.997661E-05  5.000000E-01  5.211581E-06 -1.099427E-04  0.000000E+00 -2.651645E-02  2.024408E-01 -8.266087E-15 -2.148413E+00  0.000000E+00