 Title = "ADflow Slice Data"
Variables =  "CoordinateX"  "CoordinateY"  "CoordinateZ"  "XoC"  "YoC"  "ZoC" "VelocityX" "VelocityY" "VelocityZ" "CoefPressure" "Mach" 
Zone T= "Slice_0001 None Absolute Regular z = 0.50000000"
 Nodes =          192  Elements=          184  ZONETYPE=FELINESEG
 DATAPACKING=POINT
  5.653940E-01  8.303138E-03  5.000000E-01  5.711040E-01  8.231049E-03  0.000000E+00  2.007216E-03  2.616373E-04 -1.359092E-18  3.802086E-01  0.000000E+00
  5.859770E-01  1.042904E-02  5.000000E-01  5.918949E-01  1.037842E-02  0.000000E+00  2.554250E-03  1.924348E-04  4.360080E-18  3.907985E-01  0.000000E+00
  6.063060E-01  1.153496E-02  5.000000E-01  6.124292E-01  1.149551E-02  0.000000E+00  3.413031E-03  1.083803E-04  7.273540E-18  3.846353E-01  0.000000E+00
  6.263240E-01  1.183679E-02  5.000000E-01  6.326494E-01  1.180039E-02  0.000000E+00  4.499270E-03 -1.179685E-05  5.565400E-18  3.678392E-01  0.000000E+00
  6.459860E-01  1.151979E-02  5.000000E-01  6.525099E-01  1.148018E-02  0.000000E+00  5.726110E-03 -1.664311E-04  4.459232E-18  3.423492E-01  0.000000E+00
  6.652460E-01  1.076078E-02  5.000000E-01  6.719644E-01  1.071351E-02  0.000000E+00  6.972292E-03 -3.165904E-04  5.608912E-18  3.077504E-01  0.000000E+00
  6.840650E-01  9.806533E-03  5.000000E-01  6.909735E-01  9.749627E-03  0.000000E+00  8.066392E-03 -3.802229E-04  4.740390E-18  2.630809E-01  0.000000E+00
  7.024070E-01  8.996422E-03  5.000000E-01  7.095007E-01  8.931335E-03  0.000000E+00  8.823523E-03 -3.005112E-04  2.969537E-18  2.160323E-01  0.000000E+00
  7.202400E-01  8.561257E-03  5.000000E-01  7.275138E-01  8.491775E-03  0.000000E+00  9.115148E-03 -1.023369E-04  5.275198E-18  1.816161E-01  0.000000E+00
  7.375350E-01  8.598045E-03  5.000000E-01  7.449835E-01  8.528935E-03  0.000000E+00  8.915996E-03  1.393234E-04  6.313942E-18  1.690134E-01  0.000000E+00
  7.542690E-01  9.099697E-03  5.000000E-01  7.618865E-01  9.035653E-03  0.000000E+00  8.312200E-03  3.495188E-04 -4.286885E-19  1.784956E-01  0.000000E+00
  7.704220E-01  9.992217E-03  5.000000E-01  7.782026E-01  9.937187E-03  0.000000E+00  7.467037E-03  4.839250E-04 -9.201409E-18  2.039409E-01  0.000000E+00
  7.859770E-01  1.116805E-02  5.000000E-01  7.939147E-01  1.112489E-02  0.000000E+00  6.580170E-03  5.187167E-04 -1.565469E-17  2.404035E-01  0.000000E+00
  8.009220E-01  1.240589E-02  5.000000E-01  8.090107E-01  1.237523E-02  0.000000E+00  5.836462E-03  4.553656E-04 -4.549507E-18  2.835443E-01  0.000000E+00
  8.152480E-01  1.344471E-02  5.000000E-01  8.234813E-01  1.342455E-02  0.000000E+00  5.331906E-03  3.385648E-04  5.757253E-18  3.212524E-01  0.000000E+00
  8.289490E-01  1.417423E-02  5.000000E-01  8.373207E-01  1.416143E-02  0.000000E+00  5.062476E-03  2.146871E-04  4.186331E-18  3.445048E-01  0.000000E+00
  8.420260E-01  1.458086E-02  5.000000E-01  8.505298E-01  1.457217E-02  0.000000E+00  4.980411E-03  9.961392E-05  1.159757E-18  3.560559E-01  0.000000E+00
  8.544790E-01  1.469351E-02  5.000000E-01  8.631085E-01  1.468596E-02  0.000000E+00  5.034984E-03 -6.479099E-06 -2.906975E-18  3.611735E-01  0.000000E+00
  8.663160E-01  1.455962E-02  5.000000E-01  8.750651E-01  1.455072E-02  0.000000E+00  5.181752E-03 -1.061492E-04 -4.992305E-19  3.624149E-01  0.000000E+00
  8.775420E-01  1.423035E-02  5.000000E-01  8.864045E-01  1.421812E-02  0.000000E+00  5.382508E-03 -2.002348E-04  6.427276E-18  3.607068E-01  0.000000E+00
  8.881660E-01  1.375469E-02  5.000000E-01  8.971358E-01  1.373766E-02  0.000000E+00  5.607107E-03 -2.879908E-04  9.108471E-18  3.567255E-01  0.000000E+00
  8.981970E-01  1.317596E-02  5.000000E-01  9.072681E-01  1.315308E-02  0.000000E+00  5.836476E-03 -3.701828E-04  4.437590E-18  3.514038E-01  0.000000E+00
  9.076460E-01  1.252495E-02  5.000000E-01  9.168125E-01  1.249549E-02  0.000000E+00  6.064272E-03 -4.511506E-04 -1.448065E-18  3.457980E-01  0.000000E+00
  9.165220E-01  1.181789E-02  5.000000E-01  9.257781E-01  1.178130E-02  0.000000E+00  6.292887E-03 -5.349039E-04 -3.950907E-18  3.400881E-01  0.000000E+00
  9.165220E-01  1.181789E-02  5.000000E-01  9.257781E-01  1.178130E-02  0.000000E+00  6.292887E-03 -5.349039E-04 -3.950907E-18  3.400881E-01  0.000000E+00
  9.248360E-01  1.106820E-02  5.000000E-01  9.341761E-01  1.102404E-02  0.000000E+00  6.526551E-03 -6.223774E-04 -4.506353E-18  3.337038E-01  0.000000E+00
  9.325990E-01  1.028894E-02  5.000000E-01  9.420175E-01  1.023691E-02  0.000000E+00  6.768782E-03 -7.137417E-04 -4.084571E-18  3.264261E-01  0.000000E+00
  9.398210E-01  9.492146E-03  5.000000E-01  9.493124E-01  9.432066E-03  0.000000E+00  7.022970E-03 -8.095121E-04 -5.271676E-18  3.183382E-01  0.000000E+00
  9.465130E-01  8.688948E-03  5.000000E-01  9.560720E-01  8.620756E-03  0.000000E+00  7.292321E-03 -9.102879E-04 -5.594840E-18  3.094655E-01  0.000000E+00
  9.526870E-01  7.889684E-03  5.000000E-01  9.623084E-01  7.813420E-03  0.000000E+00  7.579371E-03 -1.016606E-03 -4.148071E-18  2.997769E-01  0.000000E+00
  9.583540E-01  7.104109E-03  5.000000E-01  9.680326E-01  7.019911E-03  0.000000E+00  7.886030E-03 -1.128877E-03 -3.539434E-18  2.892441E-01  0.000000E+00
  9.635240E-01  6.341522E-03  5.000000E-01  9.732548E-01  6.249623E-03  0.000000E+00  8.214184E-03 -1.247283E-03 -4.759891E-18  2.778271E-01  0.000000E+00
  9.682080E-01  5.610740E-03  5.000000E-01  9.779861E-01  5.511460E-03  0.000000E+00  8.567452E-03 -1.372296E-03 -5.155663E-18  2.655386E-01  0.000000E+00
  9.724140E-01  4.920275E-03  5.000000E-01  9.822346E-01  4.814023E-03  0.000000E+00  8.953561E-03 -1.504894E-03 -4.904782E-18  2.524227E-01  0.000000E+00
  9.761510E-01  4.278162E-03  5.000000E-01  9.860093E-01  4.165424E-03  0.000000E+00  9.384092E-03 -1.646208E-03 -5.905860E-18  2.384773E-01  0.000000E+00
  9.794290E-01  3.691828E-03  5.000000E-01  9.893204E-01  3.573169E-03  0.000000E+00  9.866530E-03 -1.797193E-03 -3.721040E-18  2.237269E-01  0.000000E+00
  9.822540E-01  3.168328E-03  5.000000E-01  9.921740E-01  3.044382E-03  0.000000E+00  1.038527E-02 -1.955349E-03 -2.005167E-18  2.084544E-01  0.000000E+00
  9.846330E-01  2.713943E-03  5.000000E-01  9.945770E-01  2.585408E-03  0.000000E+00  1.088222E-02 -2.106725E-03  4.394237E-19  1.939049E-01  0.000000E+00
  9.865710E-01  2.334247E-03  5.000000E-01  9.965346E-01  2.201878E-03  0.000000E+00  1.121709E-02 -2.211339E-03  4.999741E-18  1.787848E-01  0.000000E+00
  9.880740E-01  2.033863E-03  5.000000E-01  9.980527E-01  1.898460E-03  0.000000E+00  1.116550E-02 -2.252514E-03 -4.079339E-19  1.572627E-01  0.000000E+00
  9.891450E-01  1.816557E-03  5.000000E-01  9.991346E-01  1.678959E-03  0.000000E+00  1.138046E-02 -2.399618E-03 -3.182313E-17  1.569848E-01  0.000000E+00
  9.897860E-01  1.685095E-03  5.000000E-01  9.997820E-01  1.546170E-03  0.000000E+00  1.460857E-02 -2.527050E-03 -8.522217E-17  2.006124E-01  0.000000E+00
  9.900000E-01  1.641068E-03  5.000000E-01  9.999982E-01  1.501698E-03  0.000000E+00  1.019515E-02 -4.826990E-03 -9.549169E-17 -3.973979E-02  0.000000E+00
  9.900000E-01  1.719779E-03  5.000000E-01  9.999982E-01  1.581203E-03  0.000000E+00  1.031946E-03 -1.471946E-02 -3.885262E-17 -1.745627E-01  0.000000E+00
  9.900000E-01  1.798499E-03  5.000000E-01  9.999982E-01  1.660719E-03  0.000000E+00 -5.152983E-04 -1.388079E-02  2.465818E-17 -4.464146E-03  0.000000E+00
  9.900000E-01  1.877219E-03  5.000000E-01  9.999982E-01  1.740234E-03  0.000000E+00 -2.754624E-04  1.707803E-03  7.035883E-17 -9.473055E-03  0.000000E+00
  9.900000E-01  1.955929E-03  5.000000E-01  9.999982E-01  1.819739E-03  0.000000E+00  6.612271E-04  3.228686E-03  1.449427E-16 -1.190068E-01  0.000000E+00
  9.900000E-01  2.034650E-03  5.000000E-01  9.999982E-01  1.899254E-03  0.000000E+00  5.371020E-03 -2.718902E-03  2.021324E-16 -3.219767E-02  0.000000E+00
  9.900000E-01  2.034650E-03  5.000000E-01  9.999982E-01  1.899254E-03  0.000000E+00  5.371020E-03 -2.718902E-03  2.021324E-16 -3.219767E-02  0.000000E+00
  9.897900E-01  2.088162E-03  5.000000E-01  9.997861E-01  1.953307E-03  0.000000E+00  6.917288E-03 -2.067488E-03  1.410052E-16  9.740646E-02  0.000000E+00
  9.891580E-01  2.248665E-03  5.000000E-01  9.991477E-01  2.115432E-03  0.000000E+00  4.160355E-03 -9.986021E-04  4.128098E-17  5.724023E-02  0.000000E+00
  9.881040E-01  2.515787E-03  5.000000E-01  9.980830E-01  2.385251E-03  0.000000E+00  3.400253E-03 -8.589040E-04 -3.932098E-18  4.722650E-02  0.000000E+00
  9.866260E-01  2.888979E-03  5.000000E-01  9.965901E-01  2.762211E-03  0.000000E+00  3.208809E-03 -8.135332E-04 -9.262645E-18  4.744697E-02  0.000000E+00
  9.847200E-01  3.367500E-03  5.000000E-01  9.946649E-01  3.245565E-03  0.000000E+00  3.156520E-03 -7.892196E-04 -3.379619E-18  4.065563E-02  0.000000E+00
  9.823820E-01  3.950286E-03  5.000000E-01  9.923033E-01  3.834237E-03  0.000000E+00  3.256502E-03 -8.076357E-04  1.464680E-18  3.078252E-02  0.000000E+00
  9.796080E-01  4.635899E-03  5.000000E-01  9.895012E-01  4.526774E-03  0.000000E+00  3.480739E-03 -8.556417E-04  6.109618E-18  1.967539E-02  0.000000E+00
  9.763910E-01  5.422639E-03  5.000000E-01  9.862518E-01  5.321459E-03  0.000000E+00  3.785381E-03 -9.201077E-04  5.318708E-18  6.839440E-03  0.000000E+00
  9.727270E-01  6.308140E-03  5.000000E-01  9.825508E-01  6.215904E-03  0.000000E+00  4.142140E-03 -9.936533E-04 -2.443796E-18 -7.846857E-03  0.000000E+00
  9.686070E-01  7.289803E-03  5.000000E-01  9.783891E-01  7.207481E-03  0.000000E+00  4.534985E-03 -1.071489E-03 -2.691044E-18 -2.417257E-02  0.000000E+00
  9.640240E-01  8.364286E-03  5.000000E-01  9.737599E-01  8.292815E-03  0.000000E+00  4.955617E-03 -1.150627E-03 -8.435291E-19 -4.198790E-02  0.000000E+00
  9.589680E-01  9.527739E-03  5.000000E-01  9.686528E-01  9.468017E-03  0.000000E+00  5.400589E-03 -1.229350E-03  1.757739E-18 -6.114152E-02  0.000000E+00
  9.534310E-01  1.077548E-02  5.000000E-01  9.630599E-01  1.072836E-02  0.000000E+00  5.868235E-03 -1.306307E-03  4.068934E-18 -8.146753E-02  0.000000E+00
  9.474030E-01  1.210214E-02  5.000000E-01  9.569710E-01  1.206842E-02  0.000000E+00  6.356463E-03 -1.379746E-03 -3.261009E-18 -1.027000E-01  0.000000E+00
  9.408720E-01  1.350152E-02  5.000000E-01  9.503740E-01  1.348193E-02  0.000000E+00  6.861590E-03 -1.447815E-03 -5.739976E-18 -1.246086E-01  0.000000E+00
  9.338280E-01  1.496643E-02  5.000000E-01  9.432589E-01  1.496164E-02  0.000000E+00  7.378793E-03 -1.508533E-03 -5.042536E-18 -1.469569E-01  0.000000E+00
  9.262600E-01  1.648878E-02  5.000000E-01  9.356145E-01  1.649936E-02  0.000000E+00  7.902185E-03 -1.559427E-03 -7.156359E-18 -1.694127E-01  0.000000E+00
  9.181550E-01  1.805921E-02  5.000000E-01  9.274276E-01  1.808565E-02  0.000000E+00  8.424286E-03 -1.597966E-03 -4.497094E-18 -1.916645E-01  0.000000E+00
  9.095020E-01  1.966727E-02  5.000000E-01  9.186872E-01  1.970995E-02  0.000000E+00  8.935954E-03 -1.621401E-03 -1.918887E-18 -2.132091E-01  0.000000E+00
  9.002880E-01  2.130088E-02  5.000000E-01  9.093802E-01  2.136006E-02  0.000000E+00  9.425163E-03 -1.626913E-03 -2.205358E-18 -2.332119E-01  0.000000E+00
  8.905020E-01  2.294659E-02  5.000000E-01  8.994953E-01  2.302239E-02  0.000000E+00  9.876168E-03 -1.613461E-03 -2.361213E-18 -2.509679E-01  0.000000E+00
  8.801320E-01  2.459307E-02  5.000000E-01  8.890206E-01  2.468549E-02  0.000000E+00  1.027225E-02 -1.582555E-03 -2.313597E-19 -2.661744E-01  0.000000E+00
  8.691700E-01  2.623196E-02  5.000000E-01  8.779479E-01  2.634094E-02  0.000000E+00  1.059965E-02 -1.536413E-03  3.353329E-18 -2.786656E-01  0.000000E+00
  8.691700E-01  2.623196E-02  5.000000E-01  8.779479E-01  2.634094E-02  0.000000E+00  1.059965E-02 -1.536413E-03  3.353329E-18 -2.786656E-01  0.000000E+00
  8.576080E-01  2.785654E-02  5.000000E-01  8.662691E-01  2.798192E-02  0.000000E+00  1.084886E-02 -1.477467E-03  2.927492E-18 -2.881654E-01  0.000000E+00
  8.454380E-01  2.946228E-02  5.000000E-01  8.539762E-01  2.960388E-02  0.000000E+00  1.101467E-02 -1.410127E-03 -6.696733E-19 -2.943358E-01  0.000000E+00
  8.326580E-01  3.104912E-02  5.000000E-01  8.410672E-01  3.120675E-02  0.000000E+00  1.109792E-02 -1.341016E-03 -1.471915E-18 -2.968893E-01  0.000000E+00
  8.192630E-01  3.262392E-02  5.000000E-01  8.275369E-01  3.279745E-02  0.000000E+00  1.110831E-02 -1.279583E-03 -8.169185E-19 -2.964094E-01  0.000000E+00
  8.052550E-01  3.420477E-02  5.000000E-01  8.133874E-01  3.439426E-02  0.000000E+00  1.106864E-02 -1.236608E-03  8.816039E-19 -2.954312E-01  0.000000E+00
  7.906370E-01  3.582073E-02  5.000000E-01  7.986218E-01  3.602655E-02  0.000000E+00  1.101751E-02 -1.218175E-03  2.282855E-18 -2.980835E-01  0.000000E+00
  7.754120E-01  3.750268E-02  5.000000E-01  7.832430E-01  3.772548E-02  0.000000E+00  1.100310E-02 -1.217303E-03  3.017008E-19 -3.069968E-01  0.000000E+00
  7.595880E-01  3.925499E-02  5.000000E-01  7.672592E-01  3.949549E-02  0.000000E+00  1.106067E-02 -1.212599E-03  7.865434E-19 -3.203637E-01  0.000000E+00
  7.431760E-01  4.103609E-02  5.000000E-01  7.506815E-01  4.129457E-02  0.000000E+00  1.118253E-02 -1.186957E-03  8.253496E-19 -3.343789E-01  0.000000E+00
  7.261880E-01  4.279917E-02  5.000000E-01  7.335219E-01  4.307546E-02  0.000000E+00  1.131755E-02 -1.137091E-03  1.088987E-18 -3.449793E-01  0.000000E+00
  7.086430E-01  4.450596E-02  5.000000E-01  7.157997E-01  4.479949E-02  0.000000E+00  1.139576E-02 -1.068652E-03  2.392479E-18 -3.479241E-01  0.000000E+00
  6.905640E-01  4.614098E-02  5.000000E-01  6.975381E-01  4.645103E-02  0.000000E+00  1.135441E-02 -9.994190E-04  6.428308E-18 -3.427991E-01  0.000000E+00
  6.719770E-01  4.773202E-02  5.000000E-01  6.787634E-01  4.805813E-02  0.000000E+00  1.116914E-02 -9.576234E-04  8.473457E-18 -3.359916E-01  0.000000E+00
  6.529150E-01  4.936624E-02  5.000000E-01  6.595089E-01  4.970885E-02  0.000000E+00  1.087983E-02 -9.559407E-04  4.382422E-18 -3.347955E-01  0.000000E+00
  6.334180E-01  5.112116E-02  5.000000E-01  6.398150E-01  5.148150E-02  0.000000E+00  1.057339E-02 -9.766700E-04  3.250734E-19 -3.402979E-01  0.000000E+00
  6.135280E-01  5.300708E-02  5.000000E-01  6.197241E-01  5.338647E-02  0.000000E+00  1.032800E-02 -1.004939E-03 -3.235548E-18 -3.517185E-01  0.000000E+00
  5.932910E-01  5.502708E-02  5.000000E-01  5.992828E-01  5.542686E-02  0.000000E+00  1.019388E-02 -1.043114E-03 -6.034874E-18 -3.692812E-01  0.000000E+00
  5.727570E-01  5.718123E-02  5.000000E-01  5.785414E-01  5.760277E-02  0.000000E+00  1.020870E-02 -1.096532E-03 -5.087299E-18 -3.926259E-01  0.000000E+00
  5.519810E-01  5.946689E-02  5.000000E-01  5.575556E-01  5.991151E-02  0.000000E+00  1.040887E-02 -1.171365E-03 -5.971536E-18 -4.236433E-01  0.000000E+00
  5.310180E-01  6.187862E-02  5.000000E-01  5.363809E-01  6.234760E-02  0.000000E+00  1.084257E-02 -1.271830E-03 -9.574314E-18 -4.693573E-01  0.000000E+00
  5.099250E-01  6.439400E-02  5.000000E-01  5.150748E-01  6.488838E-02  0.000000E+00  1.157964E-02 -1.390645E-03 -5.410213E-18 -5.397842E-01  0.000000E+00
  4.887640E-01  6.694287E-02  5.000000E-01  4.937001E-01  6.746300E-02  0.000000E+00  1.270053E-02 -1.492201E-03 -3.067922E-18 -6.373846E-01  0.000000E+00
  4.675910E-01  6.936761E-02  5.000000E-01  4.723133E-01  6.991222E-02  0.000000E+00  1.423502E-02 -1.500566E-03 -3.264361E-18 -7.456381E-01  0.000000E+00
  7.860720E-05 -2.705203E-04  5.000000E-01  7.940615E-05 -4.291960E-04  0.000000E+00 -4.797212E-03  1.534620E-02  2.070778E-14  1.053297E+00  0.000000E+00
  3.989240E-04 -7.481170E-04  5.000000E-01  4.029579E-04 -9.116160E-04  0.000000E+00  7.284342E-04  1.213393E-03  1.660772E-14  1.095045E+00  0.000000E+00
  1.196920E-03 -1.297263E-03  5.000000E-01  1.209013E-03 -1.466308E-03  0.000000E+00  8.122273E-03 -4.026542E-03  1.020438E-14  9.118118E-01  0.000000E+00
  2.563580E-03 -1.842060E-03  5.000000E-01  2.589475E-03 -2.016607E-03  0.000000E+00  1.183720E-02 -3.920292E-03  4.086589E-15  7.353517E-01  0.000000E+00
  4.492740E-03 -2.358407E-03  5.000000E-01  4.538118E-03 -2.538169E-03  0.000000E+00  1.281996E-02 -3.005611E-03  2.485264E-16  6.424208E-01  0.000000E+00
  6.952190E-03 -2.854853E-03  5.000000E-01  7.022407E-03 -3.039628E-03  0.000000E+00  1.299911E-02 -2.419272E-03 -1.105736E-15  5.905618E-01  0.000000E+00
  9.910730E-03 -3.360255E-03  5.000000E-01  1.001083E-02 -3.550134E-03  0.000000E+00  1.315099E-02 -2.163997E-03 -9.969353E-16  5.487153E-01  0.000000E+00
  1.334950E-02 -3.905680E-03  5.000000E-01  1.348432E-02 -4.101068E-03  0.000000E+00  1.339889E-02 -2.032494E-03 -4.911211E-16  5.026393E-01  0.000000E+00
  1.728780E-02 -4.477919E-03  5.000000E-01  1.746240E-02 -4.679086E-03  0.000000E+00  1.362697E-02 -1.838429E-03 -1.224124E-16  4.485561E-01  0.000000E+00
  2.175590E-02 -5.034929E-03  5.000000E-01  2.197562E-02 -5.241721E-03  0.000000E+00  1.372644E-02 -1.551926E-03  2.433389E-17  3.971190E-01  0.000000E+00
  2.676920E-02 -5.542336E-03  5.000000E-01  2.703955E-02 -5.754253E-03  0.000000E+00  1.369228E-02 -1.243667E-03  4.320445E-17  3.591299E-01  0.000000E+00
  3.232800E-02 -5.988128E-03  5.000000E-01  3.265449E-02 -6.204546E-03  0.000000E+00  1.357531E-02 -9.760504E-04  2.750528E-17  3.354793E-01  0.000000E+00
  3.842930E-02 -6.375771E-03  5.000000E-01  3.881741E-02 -6.596105E-03  0.000000E+00  1.342344E-02 -7.710460E-04  1.280693E-17  3.206449E-01  0.000000E+00
  4.507220E-02 -6.716606E-03  5.000000E-01  4.552740E-02 -6.940382E-03  0.000000E+00  1.328120E-02 -6.394480E-04  4.179945E-18  3.107203E-01  0.000000E+00
  5.225680E-02 -7.039040E-03  5.000000E-01  5.278456E-02 -7.266072E-03  0.000000E+00  1.319257E-02 -5.829664E-04  2.308627E-18  3.036279E-01  0.000000E+00
  5.998640E-02 -7.375573E-03  5.000000E-01  6.059222E-02 -7.606004E-03  0.000000E+00  1.316503E-02 -5.677174E-04 -1.196342E-18  2.944082E-01  0.000000E+00
  6.827110E-02 -7.730483E-03  5.000000E-01  6.896059E-02 -7.964498E-03  0.000000E+00  1.316843E-02 -5.539914E-04 -4.128623E-18  2.802248E-01  0.000000E+00
  7.712280E-02 -8.096032E-03  5.000000E-01  7.790168E-02 -8.333739E-03  0.000000E+00  1.317426E-02 -5.315072E-04  3.957871E-19  2.639920E-01  0.000000E+00
  8.655260E-02 -8.466860E-03  5.000000E-01  8.742672E-02 -8.708312E-03  0.000000E+00  1.316507E-02 -4.996563E-04 -1.877739E-18  2.484064E-01  0.000000E+00
  9.657140E-02 -8.833486E-03  5.000000E-01  9.754670E-02 -9.078641E-03  0.000000E+00  1.312288E-02 -4.492417E-04 -6.745384E-18  2.331941E-01  0.000000E+00
  1.071900E-01 -9.172292E-03  5.000000E-01  1.082725E-01 -9.420868E-03  0.000000E+00  1.303912E-02 -3.786311E-04 -1.909096E-18  2.188188E-01  0.000000E+00
  1.184180E-01 -9.465401E-03  5.000000E-01  1.196139E-01 -9.716938E-03  0.000000E+00  1.293066E-02 -3.053151E-04  1.447454E-18  2.077808E-01  0.000000E+00
  1.302610E-01 -9.714659E-03  5.000000E-01  1.315765E-01 -9.968713E-03  0.000000E+00  1.282425E-02 -2.461152E-04  1.443481E-18  2.005805E-01  0.000000E+00
  1.427230E-01 -9.930420E-03  5.000000E-01  1.441644E-01 -1.018665E-02  0.000000E+00  1.273040E-02 -2.054428E-04  1.568261E-18  1.954199E-01  0.000000E+00
  1.427230E-01 -9.930420E-03  5.000000E-01  1.441644E-01 -1.018665E-02  0.000000E+00  1.273040E-02 -2.054428E-04  1.568261E-18  1.954199E-01  0.000000E+00
  1.558070E-01 -1.012642E-02  5.000000E-01  1.573805E-01 -1.038463E-02  0.000000E+00  1.262836E-02 -1.742347E-04 -3.356583E-18  1.901610E-01  0.000000E+00
  1.695140E-01 -1.029992E-02  5.000000E-01  1.712260E-01 -1.055989E-02  0.000000E+00  1.246862E-02 -1.355071E-04 -2.712322E-18  1.839045E-01  0.000000E+00
  1.838420E-01 -1.042988E-02  5.000000E-01  1.856987E-01 -1.069115E-02  0.000000E+00  1.219605E-02 -7.797173E-05 -2.071196E-18  1.782975E-01  0.000000E+00
  1.987870E-01 -1.048445E-02  5.000000E-01  2.007946E-01 -1.074628E-02  0.000000E+00  1.177682E-02 -2.157385E-06 -7.003328E-18  1.758717E-01  0.000000E+00
  2.143420E-01 -1.043099E-02  5.000000E-01  2.165067E-01 -1.069228E-02  0.000000E+00  1.122741E-02  6.928525E-05 -5.152731E-18  1.795339E-01  0.000000E+00
  2.304940E-01 -1.028279E-02  5.000000E-01  2.328218E-01 -1.054258E-02  0.000000E+00  1.063352E-02  9.476931E-05  1.051895E-18  1.919231E-01  0.000000E+00
  2.472290E-01 -1.013623E-02  5.000000E-01  2.497258E-01 -1.039454E-02  0.000000E+00  1.013007E-02  4.994172E-05 -1.628209E-18  2.103076E-01  0.000000E+00
  2.645310E-01 -1.012027E-02  5.000000E-01  2.672026E-01 -1.037842E-02  0.000000E+00  9.872980E-03 -6.150049E-05 -1.122317E-17  2.268141E-01  0.000000E+00
  2.823750E-01 -1.036117E-02  5.000000E-01  2.852268E-01 -1.062175E-02  0.000000E+00  1.003239E-02 -2.414127E-04 -1.009890E-17  2.344180E-01  0.000000E+00
  3.007320E-01 -1.098939E-02  5.000000E-01  3.037692E-01 -1.125632E-02  0.000000E+00  1.077607E-02 -5.284120E-04 -6.188401E-18  2.283266E-01  0.000000E+00
  3.195690E-01 -1.216217E-02  5.000000E-01  3.227964E-01 -1.244094E-02  0.000000E+00  1.220953E-02 -9.900402E-04 -3.219337E-18  2.047536E-01  0.000000E+00
  3.388440E-01 -1.403696E-02  5.000000E-01  3.422661E-01 -1.433466E-02  0.000000E+00  1.424023E-02 -1.578418E-03  7.120297E-19  1.510705E-01  0.000000E+00
  3.585140E-01 -1.645296E-02  5.000000E-01  3.621347E-01 -1.677507E-02  0.000000E+00  1.645172E-02 -1.997772E-03  7.601890E-18  5.021163E-02  0.000000E+00
  3.785290E-01 -1.886600E-02  5.000000E-01  3.823518E-01 -1.921247E-02  0.000000E+00  1.812437E-02 -1.881759E-03  9.701509E-18 -8.774300E-02  0.000000E+00
  3.988350E-01 -2.065647E-02  5.000000E-01  4.028629E-01 -2.102102E-02  0.000000E+00  1.839170E-02 -1.054331E-03  5.024653E-18 -2.260625E-01  0.000000E+00
  4.193750E-01 -2.117875E-02  5.000000E-01  4.236104E-01 -2.154858E-02  0.000000E+00  1.663513E-02  2.830335E-04  8.021513E-18 -3.266283E-01  0.000000E+00
  4.400850E-01 -1.978338E-02  5.000000E-01  4.445295E-01 -2.013912E-02  0.000000E+00  1.308991E-02  1.461942E-03  3.879398E-18 -3.468753E-01  0.000000E+00
  4.609060E-01 -1.613985E-02  5.000000E-01  4.655608E-01 -1.645879E-02  0.000000E+00  9.013896E-03  1.824148E-03  7.364513E-19 -2.393554E-01  0.000000E+00
  4.818030E-01 -1.096522E-02  5.000000E-01  4.866688E-01 -1.123190E-02  0.000000E+00  5.674645E-03  1.466936E-03  1.714517E-17 -3.645943E-02  0.000000E+00
  5.027520E-01 -5.231179E-03  5.000000E-01  5.078294E-01 -5.439953E-03  0.000000E+00  3.489528E-03  9.472702E-04  1.815588E-17  1.553999E-01  0.000000E+00
  5.237130E-01  2.579542E-04  5.000000E-01  5.290021E-01  1.046157E-04  0.000000E+00  2.311185E-03  5.689303E-04  6.922641E-18  2.788688E-01  0.000000E+00
  5.446170E-01  4.915435E-03  5.000000E-01  5.501172E-01  4.809134E-03  0.000000E+00  1.880199E-03  3.628943E-04  8.354344E-19  3.458243E-01  0.000000E+00
  5.653940E-01  8.303138E-03  5.000000E-01  5.711040E-01  8.231049E-03  0.000000E+00  2.007216E-03  2.616373E-04 -1.359092E-18  3.802086E-01  0.000000E+00
  4.675910E-01  6.936761E-02  5.000000E-01  4.723133E-01  6.991222E-02  0.000000E+00  1.423502E-02 -1.500566E-03 -3.264361E-18 -7.456381E-01  0.000000E+00
  4.464640E-01  7.142855E-02  5.000000E-01  4.509729E-01  7.199398E-02  0.000000E+00  1.605511E-02 -1.322280E-03  7.338271E-20 -8.330547E-01  0.000000E+00
  4.254410E-01  7.288420E-02  5.000000E-01  4.297376E-01  7.346433E-02  0.000000E+00  1.780470E-02 -9.479207E-04  2.792857E-18 -8.790620E-01  0.000000E+00
  4.045840E-01  7.369228E-02  5.000000E-01  4.086700E-01  7.428057E-02  0.000000E+00  1.905603E-02 -4.916299E-04  3.181935E-18 -8.858532E-01  0.000000E+00
  3.839530E-01  7.397108E-02  5.000000E-01  3.878306E-01  7.456219E-02  0.000000E+00  1.958841E-02 -8.033429E-05  1.004436E-18 -8.643350E-01  0.000000E+00
  3.636060E-01  7.386576E-02  5.000000E-01  3.672781E-01  7.445580E-02  0.000000E+00  1.945965E-02  2.113615E-04  2.467079E-18 -8.295753E-01  0.000000E+00
  3.435960E-01  7.353058E-02  5.000000E-01  3.470660E-01  7.411724E-02  0.000000E+00  1.890957E-02  3.564337E-04 -7.138602E-19 -8.012147E-01  0.000000E+00
  3.239710E-01  7.311363E-02  5.000000E-01  3.272428E-01  7.369608E-02  0.000000E+00  1.825425E-02  3.885418E-04 -4.645365E-18 -7.937191E-01  0.000000E+00
  3.047740E-01  7.270190E-02  5.000000E-01  3.078520E-01  7.328019E-02  0.000000E+00  1.778783E-02  3.942885E-04  8.998547E-19 -8.073596E-01  0.000000E+00
  2.860450E-01  7.227371E-02  5.000000E-01  2.889338E-01  7.284767E-02  0.000000E+00  1.768155E-02  4.426945E-04  2.680571E-18 -8.348141E-01  0.000000E+00
  2.678190E-01  7.177932E-02  5.000000E-01  2.705238E-01  7.234829E-02  0.000000E+00  1.795857E-02  5.524417E-04  3.460363E-19 -8.709552E-01  0.000000E+00
  2.501300E-01  7.117382E-02  5.000000E-01  2.526561E-01  7.173668E-02  0.000000E+00  1.855580E-02  7.244051E-04  1.738223E-18 -9.153537E-01  0.000000E+00
  2.330040E-01  7.042546E-02  5.000000E-01  2.353572E-01  7.098076E-02  0.000000E+00  1.939623E-02  9.585321E-04  4.131175E-18 -9.727756E-01  0.000000E+00
  2.164660E-01  6.951386E-02  5.000000E-01  2.186521E-01  7.005995E-02  0.000000E+00  2.045047E-02  1.266637E-03  3.831421E-18 -1.046525E+00  0.000000E+00
  2.005340E-01  6.842255E-02  5.000000E-01  2.025592E-01  6.895762E-02  0.000000E+00  2.175320E-02  1.719104E-03  3.910182E-19 -1.124320E+00  0.000000E+00
  1.852230E-01  6.706480E-02  5.000000E-01  1.870936E-01  6.758616E-02  0.000000E+00  2.327517E-02  2.389196E-03 -2.907057E-18 -1.185851E+00  0.000000E+00
  1.705440E-01  6.536897E-02  5.000000E-01  1.722664E-01  6.587320E-02  0.000000E+00  2.481887E-02  3.239807E-03 -5.056604E-18 -1.224658E+00  0.000000E+00
  1.565000E-01  6.333659E-02  5.000000E-01  1.580805E-01  6.382029E-02  0.000000E+00  2.615010E-02  4.172067E-03 -8.108515E-19 -1.246289E+00  0.000000E+00
  1.430940E-01  6.100570E-02  5.000000E-01  1.445391E-01  6.146586E-02  0.000000E+00  2.715854E-02  5.131930E-03  5.774359E-18 -1.253897E+00  0.000000E+00
  1.303270E-01  5.840594E-02  5.000000E-01  1.316432E-01  5.883985E-02  0.000000E+00  2.786607E-02  6.144552E-03  4.780880E-18 -1.239635E+00  0.000000E+00
  1.182110E-01  5.553559E-02  5.000000E-01  1.194048E-01  5.594051E-02  0.000000E+00  2.829238E-02  7.219532E-03  1.483733E-18 -1.192419E+00  0.000000E+00
  1.067560E-01  5.240810E-02  5.000000E-01  1.078342E-01  5.278144E-02  0.000000E+00  2.837701E-02  8.280274E-03 -5.404580E-18 -1.109703E+00  0.000000E+00
  9.596750E-02  4.905795E-02  5.000000E-01  9.693670E-02  4.939745E-02  0.000000E+00  2.802851E-02  9.152130E-03 -5.605342E-18 -1.006565E+00  0.000000E+00
  8.582800E-02  4.557902E-02  5.000000E-01  8.669480E-02  4.588339E-02  0.000000E+00  2.727120E-02  9.702016E-03  2.015919E-18 -9.061141E-01  0.000000E+00
  8.582800E-02  4.557902E-02  5.000000E-01  8.669480E-02  4.588339E-02  0.000000E+00  2.727120E-02  9.702016E-03  2.015919E-18 -9.061141E-01  0.000000E+00
  7.631050E-02  4.206702E-02  5.000000E-01  7.708118E-02  4.233592E-02  0.000000E+00  2.630985E-02  1.003674E-02  2.954823E-18 -8.137602E-01  0.000000E+00
  6.740780E-02  3.855617E-02  5.000000E-01  6.808857E-02  3.878961E-02  0.000000E+00  2.534048E-02  1.032267E-02  1.267220E-18 -7.232122E-01  0.000000E+00
  5.911740E-02  3.506769E-02  5.000000E-01  5.971444E-02  3.526591E-02  0.000000E+00  2.442792E-02  1.059185E-02  1.798336E-18 -6.326286E-01  0.000000E+00
  5.143150E-02  3.163329E-02  5.000000E-01  5.195092E-02  3.179682E-02  0.000000E+00  2.356026E-02  1.081449E-02  6.438963E-19 -5.432289E-01  0.000000E+00
  4.433770E-02  2.828784E-02  5.000000E-01  4.478548E-02  2.841758E-02  0.000000E+00  2.270918E-02  1.097065E-02  1.871441E-18 -4.570335E-01  0.000000E+00
  3.782240E-02  2.506274E-02  5.000000E-01  3.820438E-02  2.515991E-02  0.000000E+00  2.185815E-02  1.106519E-02  4.609371E-18 -3.765739E-01  0.000000E+00
  3.187460E-02  2.198185E-02  5.000000E-01  3.219651E-02  2.204791E-02  0.000000E+00  2.101078E-02  1.112037E-02  7.074688E-18 -3.042127E-01  0.000000E+00
  2.648400E-02  1.906480E-02  5.000000E-01  2.675147E-02  1.910140E-02  0.000000E+00  2.018306E-02  1.118687E-02  1.155419E-17 -2.362773E-01  0.000000E+00
  2.164990E-02  1.632034E-02  5.000000E-01  2.186855E-02  1.632922E-02  0.000000E+00  1.935902E-02  1.130459E-02  4.356223E-18 -1.611743E-01  0.000000E+00
  1.737670E-02  1.375447E-02  5.000000E-01  1.755220E-02  1.373744E-02  0.000000E+00  1.846924E-02  1.138327E-02 -5.893326E-17 -7.521175E-02  0.000000E+00
  1.364080E-02  1.138964E-02  5.000000E-01  1.377857E-02  1.134872E-02  0.000000E+00  1.748243E-02  1.126915E-02 -2.380234E-16  8.518080E-03  0.000000E+00
  1.039090E-02  9.253509E-03  5.000000E-01  1.049584E-02  9.191018E-03  0.000000E+00  1.650192E-02  1.099695E-02 -5.751492E-16  7.521381E-02  0.000000E+00
  7.586340E-03  7.356920E-03  5.000000E-01  7.662961E-03  7.275275E-03  0.000000E+00  1.572964E-02  1.087119E-02 -9.882448E-16  1.248211E-01  0.000000E+00
  5.226210E-03  5.689698E-03  5.000000E-01  5.278996E-03  5.591216E-03  0.000000E+00  1.536447E-02  1.128522E-02 -1.085652E-15  1.657973E-01  0.000000E+00
  3.324300E-03  4.238505E-03  5.000000E-01  3.357878E-03  4.125367E-03  0.000000E+00  1.554683E-02  1.262966E-02 -1.466229E-16  2.033502E-01  0.000000E+00
  1.883580E-03  2.998533E-03  5.000000E-01  1.902608E-03  2.872872E-03  0.000000E+00  1.619213E-02  1.541990E-02  2.540549E-15  2.514931E-01  0.000000E+00
  8.951490E-04  1.972010E-03  5.000000E-01  9.041944E-04  1.835982E-03  0.000000E+00  1.642760E-02  2.002831E-02  7.023722E-15  3.447502E-01  0.000000E+00
  3.201820E-04  1.168404E-03  5.000000E-01  3.234207E-04  1.024260E-03  0.000000E+00  1.426172E-02  2.530122E-02  1.229727E-14  5.134795E-01  0.000000E+00
  6.852390E-05  5.981997E-04  5.000000E-01  6.922102E-05  4.482974E-04  0.000000E+00  8.840472E-03  2.750690E-02  1.683396E-14  7.027992E-01  0.000000E+00
  4.217600E-06  2.637081E-04  5.000000E-01  4.265278E-06  1.104277E-04  0.000000E+00  3.132710E-03  2.590783E-02  1.958015E-14  7.573510E-01  0.000000E+00
 -5.032520E-09  1.543845E-04  5.000000E-01  0.000000E+00  0.000000E+00  0.000000E+00 -6.403368E-04  2.857633E-02  2.091732E-14  7.077418E-01  0.000000E+00
  5.154440E-06  4.560879E-05  5.000000E-01  5.211579E-06 -1.098742E-04  0.000000E+00 -3.963221E-03  2.860159E-02  2.164609E-14  8.148724E-01  0.000000E+00