 Title = "ADflow Slice Data"
Variables =  "CoordinateX"  "CoordinateY"  "CoordinateZ"  "XoC"  "YoC"  "ZoC" "VelocityX" "VelocityY" "VelocityZ" "CoefPressure" "Mach" 
Zone T= "Slice_0001 None Absolute Regular z = 0.50000000"
 Nodes =          192  Elements=          184  ZONETYPE=FELINESEG
 DATAPACKING=POINT
  5.653940E-01 -5.385912E-03  5.000000E-01  5.711040E-01 -5.509775E-03  0.000000E+00  1.117549E-02  6.523509E-05 -1.888262E-19  1.236758E-01  0.000000E+00
  5.859770E-01 -5.208394E-03  5.000000E-01  5.918948E-01 -5.330464E-03  0.000000E+00  1.133203E-02  1.552515E-04  4.598560E-20  1.033778E-01  0.000000E+00
  6.063060E-01 -4.827035E-03  5.000000E-01  6.124291E-01 -4.945253E-03  0.000000E+00  1.135058E-02  2.845320E-04  4.633250E-19  9.037285E-02  0.000000E+00
  6.263240E-01 -4.197624E-03  5.000000E-01  6.326493E-01 -4.309485E-03  0.000000E+00  1.122465E-02  4.228669E-04 -1.429699E-19  8.615532E-02  0.000000E+00
  6.459860E-01 -3.331298E-03  5.000000E-01  6.525099E-01 -3.434410E-03  0.000000E+00  1.095586E-02  5.475003E-04 -5.001912E-19  9.039448E-02  0.000000E+00
  6.652460E-01 -2.251676E-03  5.000000E-01  6.719644E-01 -2.343885E-03  0.000000E+00  1.053437E-02  6.566731E-04  5.238609E-19  1.004196E-01  0.000000E+00
  6.840650E-01 -9.565311E-04  5.000000E-01  6.909734E-01 -1.035661E-03  0.000000E+00  9.944100E-03  7.558828E-04  8.729429E-19  1.141997E-01  0.000000E+00
  7.024070E-01  5.785722E-04  5.000000E-01  7.095007E-01  5.149456E-04  0.000000E+00  9.194537E-03  8.317659E-04 -5.063956E-19  1.340719E-01  0.000000E+00
  7.202400E-01  2.326128E-03  5.000000E-01  7.275138E-01  2.280150E-03  0.000000E+00  8.336342E-03  8.601505E-04 -9.461637E-19  1.631335E-01  0.000000E+00
  7.375350E-01  4.211926E-03  5.000000E-01  7.449834E-01  4.184993E-03  0.000000E+00  7.443139E-03  8.338635E-04  4.016344E-19  1.996250E-01  0.000000E+00
  7.542690E-01  6.142994E-03  5.000000E-01  7.618864E-01  6.135563E-03  0.000000E+00  6.591750E-03  7.647437E-04  1.051702E-18  2.389107E-01  0.000000E+00
  7.704220E-01  8.026033E-03  5.000000E-01  7.782026E-01  8.037619E-03  0.000000E+00  5.849673E-03  6.715450E-04  7.588499E-20  2.764173E-01  0.000000E+00
  7.859770E-01  9.779944E-03  5.000000E-01  7.939146E-01  9.809243E-03  0.000000E+00  5.276096E-03  5.622064E-04 -1.145961E-18  3.109949E-01  0.000000E+00
  8.009220E-01  1.127481E-02  5.000000E-01  8.090106E-01  1.131921E-02  0.000000E+00  4.917833E-03  4.369310E-04 -8.386006E-19  3.426926E-01  0.000000E+00
  8.152480E-01  1.237834E-02  5.000000E-01  8.234813E-01  1.243388E-02  0.000000E+00  4.781270E-03  3.066019E-04 -4.571058E-20  3.663750E-01  0.000000E+00
  8.289490E-01  1.307405E-02  5.000000E-01  8.373206E-01  1.313661E-02  0.000000E+00  4.828127E-03  1.834565E-04  9.657314E-20  3.782147E-01  0.000000E+00
  8.420260E-01  1.340746E-02  5.000000E-01  8.505297E-01  1.347339E-02  0.000000E+00  5.005867E-03  6.910769E-05  2.522238E-19  3.812103E-01  0.000000E+00
  8.544790E-01  1.344165E-02  5.000000E-01  8.631084E-01  1.350793E-02  0.000000E+00  5.268085E-03 -3.870638E-05  2.485854E-19  3.793422E-01  0.000000E+00
  8.663160E-01  1.324227E-02  5.000000E-01  8.750650E-01  1.330654E-02  0.000000E+00  5.576478E-03 -1.409845E-04 -2.366190E-20  3.745043E-01  0.000000E+00
  8.775420E-01  1.286909E-02  5.000000E-01  8.864044E-01  1.292959E-02  0.000000E+00  5.899407E-03 -2.365544E-04 -1.889967E-20  3.675443E-01  0.000000E+00
  8.881660E-01  1.237403E-02  5.000000E-01  8.971357E-01  1.242953E-02  0.000000E+00  6.213031E-03 -3.232678E-04  3.684247E-19  3.591831E-01  0.000000E+00
  8.981970E-01  1.180016E-02  5.000000E-01  9.072680E-01  1.184986E-02  0.000000E+00  6.503748E-03 -4.014044E-04  4.402806E-19  3.503165E-01  0.000000E+00
  9.076460E-01  1.117649E-02  5.000000E-01  9.168124E-01  1.121989E-02  0.000000E+00  6.769957E-03 -4.756105E-04  1.796655E-19  3.419439E-01  0.000000E+00
  9.165220E-01  1.051686E-02  5.000000E-01  9.257780E-01  1.055360E-02  0.000000E+00  7.018270E-03 -5.503501E-04  2.536069E-19  3.341823E-01  0.000000E+00
  9.165220E-01  1.051686E-02  5.000000E-01  9.257780E-01  1.055360E-02  0.000000E+00  7.018270E-03 -5.503501E-04  2.536069E-19  3.341823E-01  0.000000E+00
  9.248360E-01  9.831808E-03  5.000000E-01  9.341760E-01  9.861631E-03  0.000000E+00  7.256571E-03 -6.268100E-04 -1.563453E-19  3.263625E-01  0.000000E+00
  9.325990E-01  9.131212E-03  5.000000E-01  9.420174E-01  9.153959E-03  0.000000E+00  7.491529E-03 -7.053951E-04 -9.230702E-19  3.181691E-01  0.000000E+00
  9.398210E-01  8.423819E-03  5.000000E-01  9.493123E-01  8.439422E-03  0.000000E+00  7.729251E-03 -7.868676E-04 -9.367750E-19  3.096098E-01  0.000000E+00
  9.465130E-01  7.717544E-03  5.000000E-01  9.560719E-01  7.726015E-03  0.000000E+00  7.975275E-03 -8.720444E-04 -4.864000E-20  3.006451E-01  0.000000E+00
  9.526870E-01  7.019687E-03  5.000000E-01  9.623083E-01  7.021110E-03  0.000000E+00  8.234131E-03 -9.616610E-04  4.930916E-19  2.911791E-01  0.000000E+00
  9.583540E-01  6.337206E-03  5.000000E-01  9.680325E-01  6.331737E-03  0.000000E+00  8.509345E-03 -1.056304E-03  2.458478E-19  2.811196E-01  0.000000E+00
  9.635240E-01  5.676884E-03  5.000000E-01  9.732547E-01  5.664745E-03  0.000000E+00  8.803956E-03 -1.156258E-03  2.484949E-19  2.703717E-01  0.000000E+00
  9.682080E-01  5.045351E-03  5.000000E-01  9.779860E-01  5.026835E-03  0.000000E+00  9.122174E-03 -1.261999E-03  2.685074E-19  2.588984E-01  0.000000E+00
  9.724140E-01  4.449203E-03  5.000000E-01  9.822345E-01  4.424666E-03  0.000000E+00  9.471728E-03 -1.374318E-03 -1.153315E-19  2.467034E-01  0.000000E+00
  9.761510E-01  3.894879E-03  5.000000E-01  9.860092E-01  3.864745E-03  0.000000E+00  9.863894E-03 -1.493966E-03 -6.591623E-19  2.337593E-01  0.000000E+00
  9.794290E-01  3.388537E-03  5.000000E-01  9.893203E-01  3.353289E-03  0.000000E+00  1.030615E-02 -1.621646E-03 -1.341599E-18  2.200766E-01  0.000000E+00
  9.822540E-01  2.936135E-03  5.000000E-01  9.921739E-01  2.896318E-03  0.000000E+00  1.078360E-02 -1.755343E-03 -1.884768E-18  2.059117E-01  0.000000E+00
  9.846330E-01  2.543122E-03  5.000000E-01  9.945769E-01  2.499335E-03  0.000000E+00  1.123979E-02 -1.883102E-03 -9.976052E-19  1.925129E-01  0.000000E+00
  9.865710E-01  2.214401E-03  5.000000E-01  9.965345E-01  2.167295E-03  0.000000E+00  1.153804E-02 -1.969152E-03  1.134008E-18  1.787142E-01  0.000000E+00
  9.880740E-01  1.954139E-03  5.000000E-01  9.980526E-01  1.904404E-03  0.000000E+00  1.145713E-02 -2.002932E-03 -3.351153E-19  1.584081E-01  0.000000E+00
  9.891450E-01  1.765728E-03  5.000000E-01  9.991344E-01  1.714091E-03  0.000000E+00  1.166042E-02 -2.142644E-03 -1.902303E-17  1.586402E-01  0.000000E+00
  9.897860E-01  1.651681E-03  5.000000E-01  9.997819E-01  1.598891E-03  0.000000E+00  1.497167E-02 -2.193558E-03 -6.530599E-17  2.045613E-01  0.000000E+00
  9.900000E-01  1.613487E-03  5.000000E-01  9.999981E-01  1.560312E-03  0.000000E+00  1.043596E-02 -4.583716E-03 -7.967881E-17 -3.720746E-02  0.000000E+00
  9.900000E-01  1.692197E-03  5.000000E-01  9.999981E-01  1.639817E-03  0.000000E+00  1.045474E-03 -1.485531E-02 -1.233482E-17 -1.732600E-01  0.000000E+00
  9.900000E-01  1.770918E-03  5.000000E-01  9.999981E-01  1.719333E-03  0.000000E+00 -5.219536E-04 -1.406638E-02  5.449394E-17  3.107208E-04  0.000000E+00
  9.900000E-01  1.849638E-03  5.000000E-01  9.999981E-01  1.798848E-03  0.000000E+00 -2.854453E-04  1.894534E-03  6.545141E-17 -4.446488E-03  0.000000E+00
  9.900000E-01  1.928348E-03  5.000000E-01  9.999981E-01  1.878353E-03  0.000000E+00  6.828470E-04  3.434057E-03  1.008651E-16 -1.174736E-01  0.000000E+00
  9.900000E-01  2.007068E-03  5.000000E-01  9.999981E-01  1.957868E-03  0.000000E+00  5.580053E-03 -2.637508E-03  1.480731E-16 -2.714779E-02  0.000000E+00
  9.900000E-01  2.007068E-03  5.000000E-01  9.999981E-01  1.957868E-03  0.000000E+00  5.580053E-03 -2.637508E-03  1.480731E-16 -2.714779E-02  0.000000E+00
  9.897900E-01  2.054809E-03  5.000000E-01  9.997860E-01  2.006091E-03  0.000000E+00  7.207862E-03 -1.955340E-03  1.105471E-16  1.080735E-01  0.000000E+00
  9.891580E-01  2.197988E-03  5.000000E-01  9.991476E-01  2.150716E-03  0.000000E+00  4.378389E-03 -9.327086E-04  4.077454E-17  6.704142E-02  0.000000E+00
  9.881040E-01  2.436360E-03  5.000000E-01  9.980829E-01  2.391495E-03  0.000000E+00  3.617351E-03 -8.153248E-04  8.219043E-18  5.743266E-02  0.000000E+00
  9.866260E-01  2.769546E-03  5.000000E-01  9.965900E-01  2.728046E-03  0.000000E+00  3.418921E-03 -7.745873E-04 -8.980903E-19  5.898833E-02  0.000000E+00
  9.847200E-01  3.197017E-03  5.000000E-01  9.946648E-01  3.159834E-03  0.000000E+00  3.336958E-03 -7.456143E-04 -2.097158E-18  5.365735E-02  0.000000E+00
  9.823820E-01  3.718027E-03  5.000000E-01  9.923031E-01  3.686106E-03  0.000000E+00  3.392413E-03 -7.525178E-04 -1.655038E-18  4.549544E-02  0.000000E+00
  9.796080E-01  4.331582E-03  5.000000E-01  9.895011E-01  4.305857E-03  0.000000E+00  3.561572E-03 -7.840272E-04 -8.226332E-19  3.646812E-02  0.000000E+00
  9.763910E-01  5.036488E-03  5.000000E-01  9.862516E-01  5.017882E-03  0.000000E+00  3.801865E-03 -8.287118E-04  2.980760E-20  2.609836E-02  0.000000E+00
  9.727270E-01  5.831123E-03  5.000000E-01  9.825506E-01  5.820543E-03  0.000000E+00  4.085001E-03 -8.802931E-04  3.315361E-19  1.427998E-02  0.000000E+00
  9.686070E-01  6.713708E-03  5.000000E-01  9.783890E-01  6.712041E-03  0.000000E+00  4.394213E-03 -9.346246E-04  6.514804E-20  1.242187E-03  0.000000E+00
  9.640240E-01  7.682002E-03  5.000000E-01  9.737597E-01  7.690113E-03  0.000000E+00  4.720219E-03 -9.891832E-04 -6.564710E-19 -1.285662E-02  0.000000E+00
  9.589680E-01  8.733473E-03  5.000000E-01  9.686527E-01  8.752203E-03  0.000000E+00  5.058731E-03 -1.042688E-03 -4.733157E-19 -2.787203E-02  0.000000E+00
  9.534310E-01  9.865147E-03  5.000000E-01  9.630598E-01  9.895306E-03  0.000000E+00  5.407525E-03 -1.094340E-03  1.736286E-19 -4.365718E-02  0.000000E+00
  9.474030E-01  1.107372E-02  5.000000E-01  9.569709E-01  1.111609E-02  0.000000E+00  5.764202E-03 -1.143134E-03 -5.284728E-19 -5.998042E-02  0.000000E+00
  9.408720E-01  1.235557E-02  5.000000E-01  9.503739E-01  1.241088E-02  0.000000E+00  6.125057E-03 -1.188125E-03 -8.558520E-19 -7.666346E-02  0.000000E+00
  9.338280E-01  1.370669E-02  5.000000E-01  9.432588E-01  1.377564E-02  0.000000E+00  6.485531E-03 -1.228393E-03 -2.993496E-19 -9.354305E-02  0.000000E+00
  9.262600E-01  1.512288E-02  5.000000E-01  9.356144E-01  1.520614E-02  0.000000E+00  6.840372E-03 -1.262749E-03  2.804447E-19 -1.103887E-01  0.000000E+00
  9.181550E-01  1.659957E-02  5.000000E-01  9.274275E-01  1.669774E-02  0.000000E+00  7.183423E-03 -1.290120E-03  5.231384E-19 -1.270313E-01  0.000000E+00
  9.095020E-01  1.813206E-02  5.000000E-01  9.186871E-01  1.824570E-02  0.000000E+00  7.507888E-03 -1.309421E-03  2.682010E-19 -1.431863E-01  0.000000E+00
  9.002880E-01  1.971523E-02  5.000000E-01  9.093801E-01  1.984486E-02  0.000000E+00  7.805645E-03 -1.319658E-03  2.949437E-19 -1.583389E-01  0.000000E+00
  8.905020E-01  2.134381E-02  5.000000E-01  8.994952E-01  2.148989E-02  0.000000E+00  8.067190E-03 -1.321322E-03 -1.107712E-18 -1.721689E-01  0.000000E+00
  8.801320E-01  2.301587E-02  5.000000E-01  8.890205E-01  2.317884E-02  0.000000E+00  8.284654E-03 -1.316845E-03 -2.183894E-18 -1.847870E-01  0.000000E+00
  8.691700E-01  2.473368E-02  5.000000E-01  8.779478E-01  2.491400E-02  0.000000E+00  8.455490E-03 -1.309016E-03 -3.091836E-19 -1.964592E-01  0.000000E+00
  8.691700E-01  2.473368E-02  5.000000E-01  8.779478E-01  2.491400E-02  0.000000E+00  8.455490E-03 -1.309016E-03 -3.091836E-19 -1.964592E-01  0.000000E+00
  8.576080E-01  2.650212E-02  5.000000E-01  8.662690E-01  2.670030E-02  0.000000E+00  8.583563E-03 -1.300512E-03  6.935450E-19 -2.073628E-01  0.000000E+00
  8.454380E-01  2.832886E-02  5.000000E-01  8.539761E-01  2.854549E-02  0.000000E+00  8.678683E-03 -1.295048E-03  1.444319E-19 -2.177774E-01  0.000000E+00
  8.326580E-01  3.022521E-02  5.000000E-01  8.410671E-01  3.046099E-02  0.000000E+00  8.757215E-03 -1.297212E-03 -9.420545E-20 -2.284338E-01  0.000000E+00
  8.192630E-01  3.220636E-02  5.000000E-01  8.275368E-01  3.246215E-02  0.000000E+00  8.843314E-03 -1.312233E-03 -8.204656E-20 -2.411535E-01  0.000000E+00
  8.052550E-01  3.429100E-02  5.000000E-01  8.133873E-01  3.456783E-02  0.000000E+00  8.970091E-03 -1.343683E-03 -2.491427E-19 -2.584990E-01  0.000000E+00
  7.906370E-01  3.649372E-02  5.000000E-01  7.986217E-01  3.679281E-02  0.000000E+00  9.175401E-03 -1.387960E-03 -1.594529E-19 -2.815503E-01  0.000000E+00
  7.754120E-01  3.880536E-02  5.000000E-01  7.832429E-01  3.912779E-02  0.000000E+00  9.486279E-03 -1.434840E-03  1.224425E-18 -3.092043E-01  0.000000E+00
  7.595880E-01  4.118993E-02  5.000000E-01  7.672591E-01  4.153644E-02  0.000000E+00  9.903848E-03 -1.475813E-03  2.830578E-18 -3.403007E-01  0.000000E+00
  7.431760E-01  4.360853E-02  5.000000E-01  7.506814E-01  4.397947E-02  0.000000E+00  1.040575E-02 -1.504426E-03  1.223299E-18 -3.736149E-01  0.000000E+00
  7.261880E-01  4.601914E-02  5.000000E-01  7.335218E-01  4.641442E-02  0.000000E+00  1.095477E-02 -1.512896E-03 -8.819522E-19 -4.064716E-01  0.000000E+00
  7.086430E-01  4.837960E-02  5.000000E-01  7.157996E-01  4.879872E-02  0.000000E+00  1.150473E-02 -1.496018E-03 -5.195138E-19 -4.354883E-01  0.000000E+00
  6.905640E-01  5.065470E-02  5.000000E-01  6.975381E-01  5.109679E-02  0.000000E+00  1.201021E-02 -1.457429E-03  7.758890E-19 -4.592077E-01  0.000000E+00
  6.719770E-01  5.283036E-02  5.000000E-01  6.787633E-01  5.329442E-02  0.000000E+00  1.244311E-02 -1.413201E-03  1.009324E-18 -4.808179E-01  0.000000E+00
  6.529150E-01  5.492936E-02  5.000000E-01  6.595088E-01  5.541462E-02  0.000000E+00  1.281556E-02 -1.375435E-03  2.413321E-19 -5.046538E-01  0.000000E+00
  6.334180E-01  5.696837E-02  5.000000E-01  6.398149E-01  5.747423E-02  0.000000E+00  1.317533E-02 -1.335822E-03 -1.358583E-20 -5.311253E-01  0.000000E+00
  6.135280E-01  5.892323E-02  5.000000E-01  6.197241E-01  5.944883E-02  0.000000E+00  1.356396E-02 -1.283807E-03 -1.305944E-18 -5.593407E-01  0.000000E+00
  5.932910E-01  6.076657E-02  5.000000E-01  5.992827E-01  6.131079E-02  0.000000E+00  1.399714E-02 -1.216887E-03 -9.195230E-19 -5.886136E-01  0.000000E+00
  5.727570E-01  6.246920E-02  5.000000E-01  5.785413E-01  6.303061E-02  0.000000E+00  1.447081E-02 -1.131829E-03  2.767501E-19 -6.167579E-01  0.000000E+00
  5.519810E-01  6.400083E-02  5.000000E-01  5.575555E-01  6.457771E-02  0.000000E+00  1.496447E-02 -1.026187E-03  2.850085E-19 -6.416067E-01  0.000000E+00
  5.310180E-01  6.533486E-02  5.000000E-01  5.363808E-01  6.592521E-02  0.000000E+00  1.544861E-02 -9.060313E-04  2.170171E-19 -6.641141E-01  0.000000E+00
  5.099250E-01  6.646858E-02  5.000000E-01  5.150748E-01  6.707039E-02  0.000000E+00  1.590506E-02 -7.817265E-04  9.574531E-21 -6.877405E-01  0.000000E+00
  4.887640E-01  6.741237E-02  5.000000E-01  4.937001E-01  6.802370E-02  0.000000E+00  1.634436E-02 -6.477040E-04  1.782246E-20 -7.127120E-01  0.000000E+00
  4.675910E-01  6.814923E-02  5.000000E-01  4.723132E-01  6.876800E-02  0.000000E+00  1.678320E-02 -4.870295E-04 -9.372369E-20 -7.350075E-01  0.000000E+00
  7.860720E-05 -3.612386E-04  5.000000E-01  7.940614E-05 -4.343564E-04  0.000000E+00 -2.156195E-02  5.818303E-02 -5.376948E-15  5.899541E-01  0.000000E+00
  3.989240E-04 -8.631465E-04  5.000000E-01  4.029578E-04 -9.413330E-04  0.000000E+00 -2.029753E-02  2.592544E-02 -4.472652E-15  1.047002E+00  0.000000E+00
  1.196920E-03 -1.472474E-03  5.000000E-01  1.209013E-03 -1.556815E-03  0.000000E+00 -8.784202E-03  6.403409E-03 -2.880717E-15  1.098300E+00  0.000000E+00
  2.563580E-03 -2.116279E-03  5.000000E-01  2.589475E-03 -2.207121E-03  0.000000E+00  1.708665E-03 -4.575864E-04 -1.305194E-15  9.660791E-01  0.000000E+00
  4.492740E-03 -2.764846E-03  5.000000E-01  4.538118E-03 -2.862238E-03  0.000000E+00  7.672432E-03 -2.250912E-03 -2.329535E-16  8.516890E-01  0.000000E+00
  6.952190E-03 -3.419212E-03  5.000000E-01  7.022406E-03 -3.523213E-03  0.000000E+00  1.051559E-02 -2.594102E-03  2.109292E-16  7.712159E-01  0.000000E+00
  9.910730E-03 -4.100845E-03  5.000000E-01  1.001082E-02 -4.211730E-03  0.000000E+00  1.181827E-02 -2.617095E-03  2.373482E-16  7.048508E-01  0.000000E+00
  1.334950E-02 -4.834245E-03  5.000000E-01  1.348432E-02 -4.952536E-03  0.000000E+00  1.244799E-02 -2.539257E-03  1.226203E-16  6.394051E-01  0.000000E+00
  1.728780E-02 -5.603658E-03  5.000000E-01  1.746240E-02 -5.729719E-03  0.000000E+00  1.277374E-02 -2.337806E-03  2.610510E-17  5.699289E-01  0.000000E+00
  2.175590E-02 -6.367292E-03  5.000000E-01  2.197562E-02 -6.501065E-03  0.000000E+00  1.293943E-02 -2.040734E-03 -1.329245E-17  5.042394E-01  0.000000E+00
  2.676920E-02 -7.091233E-03  5.000000E-01  2.703955E-02 -7.232318E-03  0.000000E+00  1.302927E-02 -1.728631E-03 -1.534467E-17  4.513779E-01  0.000000E+00
  3.232800E-02 -7.762915E-03  5.000000E-01  3.265449E-02 -7.910782E-03  0.000000E+00  1.309545E-02 -1.457806E-03 -7.324016E-18  4.124430E-01  0.000000E+00
  3.842930E-02 -8.384403E-03  5.000000E-01  3.881741E-02 -8.538547E-03  0.000000E+00  1.315459E-02 -1.244399E-03 -1.352294E-18  3.828835E-01  0.000000E+00
  4.507220E-02 -8.964901E-03  5.000000E-01  4.552739E-02 -9.124908E-03  0.000000E+00  1.321706E-02 -1.096417E-03  1.139199E-18  3.592857E-01  0.000000E+00
  5.225680E-02 -9.528682E-03  5.000000E-01  5.278455E-02 -9.694383E-03  0.000000E+00  1.330470E-02 -1.015827E-03  1.140487E-18  3.396463E-01  0.000000E+00
  5.998640E-02 -1.010285E-02  5.000000E-01  6.059221E-02 -1.027434E-02  0.000000E+00  1.342151E-02 -9.716929E-04  8.628227E-19  3.192608E-01  0.000000E+00
  6.827110E-02 -1.068813E-02  5.000000E-01  6.896058E-02 -1.086554E-02  0.000000E+00  1.354596E-02 -9.265565E-04  5.905491E-19  2.953143E-01  0.000000E+00
  7.712280E-02 -1.127387E-02  5.000000E-01  7.790167E-02 -1.145719E-02  0.000000E+00  1.365857E-02 -8.700596E-04 -8.396727E-20  2.702114E-01  0.000000E+00
  8.655260E-02 -1.185088E-02  5.000000E-01  8.742671E-02 -1.204003E-02  0.000000E+00  1.374666E-02 -8.008758E-04 -4.633048E-19  2.462356E-01  0.000000E+00
  9.657140E-02 -1.240550E-02  5.000000E-01  9.754669E-02 -1.260025E-02  0.000000E+00  1.379292E-02 -7.094167E-04 -4.297828E-19  2.230908E-01  0.000000E+00
  1.071900E-01 -1.291046E-02  5.000000E-01  1.082725E-01 -1.311031E-02  0.000000E+00  1.378462E-02 -5.933229E-04 -1.584875E-19  2.012470E-01  0.000000E+00
  1.184180E-01 -1.334255E-02  5.000000E-01  1.196139E-01 -1.354677E-02  0.000000E+00  1.372952E-02 -4.688650E-04  2.102884E-19  1.831046E-01  0.000000E+00
  1.302610E-01 -1.369490E-02  5.000000E-01  1.315765E-01 -1.390267E-02  0.000000E+00  1.364453E-02 -3.522715E-04  6.047924E-19  1.693179E-01  0.000000E+00
  1.427230E-01 -1.396718E-02  5.000000E-01  1.441644E-01 -1.417770E-02  0.000000E+00  1.353689E-02 -2.486656E-04  4.801193E-19  1.585048E-01  0.000000E+00
  1.427230E-01 -1.396718E-02  5.000000E-01  1.441644E-01 -1.417770E-02  0.000000E+00  1.353689E-02 -2.486656E-04  4.801193E-19  1.585048E-01  0.000000E+00
  1.558070E-01 -1.416184E-02  5.000000E-01  1.573805E-01 -1.437433E-02  0.000000E+00  1.339652E-02 -1.515420E-04  2.050797E-19  1.489784E-01  0.000000E+00
  1.695140E-01 -1.426798E-02  5.000000E-01  1.712259E-01 -1.448154E-02  0.000000E+00  1.320251E-02 -4.898774E-05  4.476128E-19  1.400314E-01  0.000000E+00
  1.838420E-01 -1.426261E-02  5.000000E-01  1.856986E-01 -1.447612E-02  0.000000E+00  1.294240E-02  6.241923E-05  3.755991E-19  1.329715E-01  0.000000E+00
  1.987870E-01 -1.412237E-02  5.000000E-01  2.007946E-01 -1.433446E-02  0.000000E+00  1.262647E-02  1.730603E-04  3.460642E-20  1.298804E-01  0.000000E+00
  2.143420E-01 -1.383939E-02  5.000000E-01  2.165067E-01 -1.404863E-02  0.000000E+00  1.228924E-02  2.633731E-04  1.761773E-19  1.322026E-01  0.000000E+00
  2.304940E-01 -1.343876E-02  5.000000E-01  2.328218E-01 -1.364395E-02  0.000000E+00  1.197274E-02  3.178555E-04 -2.571977E-19  1.390332E-01  0.000000E+00
  2.472290E-01 -1.296442E-02  5.000000E-01  2.497258E-01 -1.316482E-02  0.000000E+00  1.170517E-02  3.359703E-04 -4.038077E-19  1.473237E-01  0.000000E+00
  2.645310E-01 -1.246211E-02  5.000000E-01  2.672025E-01 -1.265744E-02  0.000000E+00  1.149030E-02  3.329136E-04 -6.896349E-19  1.536369E-01  0.000000E+00
  2.823750E-01 -1.194746E-02  5.000000E-01  2.852267E-01 -1.213759E-02  0.000000E+00  1.131412E-02  3.283072E-04 -1.004920E-18  1.562825E-01  0.000000E+00
  3.007320E-01 -1.141186E-02  5.000000E-01  3.037691E-01 -1.159658E-02  0.000000E+00  1.116463E-02  3.283107E-04 -7.548092E-19  1.569238E-01  0.000000E+00
  3.195690E-01 -1.085279E-02  5.000000E-01  3.227964E-01 -1.103186E-02  0.000000E+00  1.103858E-02  3.273839E-04 -4.249802E-19  1.579841E-01  0.000000E+00
  3.388440E-01 -1.028089E-02  5.000000E-01  3.422660E-01 -1.045418E-02  0.000000E+00  1.093240E-02  3.208591E-04 -2.218234E-19  1.598621E-01  0.000000E+00
  3.585140E-01 -9.710210E-03  5.000000E-01  3.621347E-01 -9.877744E-03  0.000000E+00  1.083318E-02  3.106537E-04  8.459852E-20  1.612853E-01  0.000000E+00
  3.785290E-01 -9.143759E-03  5.000000E-01  3.823518E-01 -9.305572E-03  0.000000E+00  1.072127E-02  3.008623E-04  4.189705E-19  1.615039E-01  0.000000E+00
  3.988350E-01 -8.578812E-03  5.000000E-01  4.028629E-01 -8.734920E-03  0.000000E+00  1.058195E-02  2.937282E-04 -2.657998E-19  1.613233E-01  0.000000E+00
  4.193750E-01 -8.009993E-03  5.000000E-01  4.236103E-01 -8.160356E-03  0.000000E+00  1.041460E-02  2.942858E-04 -4.812885E-19  1.613727E-01  0.000000E+00
  4.400850E-01 -7.413523E-03  5.000000E-01  4.445295E-01 -7.557862E-03  0.000000E+00  1.024371E-02  3.032608E-04  8.997353E-20  1.621320E-01  0.000000E+00
  4.609060E-01 -6.779769E-03  5.000000E-01  4.655607E-01 -6.917708E-03  0.000000E+00  1.012708E-02  3.010242E-04 -5.709150E-20  1.653172E-01  0.000000E+00
  4.818030E-01 -6.170777E-03  5.000000E-01  4.866688E-01 -6.302566E-03  0.000000E+00  1.013716E-02  2.551682E-04 -1.627798E-19  1.717774E-01  0.000000E+00
  5.027520E-01 -5.723975E-03  5.000000E-01  5.078293E-01 -5.851251E-03  0.000000E+00  1.030785E-02  1.622341E-04 -1.743949E-20  1.762107E-01  0.000000E+00
  5.237130E-01 -5.511874E-03  5.000000E-01  5.290020E-01 -5.637008E-03  0.000000E+00  1.059637E-02  6.982205E-05 -1.104424E-19  1.691015E-01  0.000000E+00
  5.446170E-01 -5.450646E-03  5.000000E-01  5.501171E-01 -5.575162E-03  0.000000E+00  1.091233E-02  3.292588E-05 -8.613156E-22  1.484857E-01  0.000000E+00
  5.653940E-01 -5.385912E-03  5.000000E-01  5.711040E-01 -5.509775E-03  0.000000E+00  1.117549E-02  6.523509E-05 -1.888262E-19  1.236758E-01  0.000000E+00
  4.675910E-01  6.814923E-02  5.000000E-01  4.723132E-01  6.876800E-02  0.000000E+00  1.678320E-02 -4.870295E-04 -9.372369E-20 -7.350075E-01  0.000000E+00
  4.464640E-01  6.864437E-02  5.000000E-01  4.509729E-01  6.926815E-02  0.000000E+00  1.720920E-02 -2.986583E-04 -3.019950E-19 -7.516950E-01  0.000000E+00
  4.254410E-01  6.888482E-02  5.000000E-01  4.297376E-01  6.951102E-02  0.000000E+00  1.758788E-02 -9.921826E-05 -5.197015E-19 -7.632571E-01  0.000000E+00
  4.045840E-01  6.888365E-02  5.000000E-01  4.086699E-01  6.950984E-02  0.000000E+00  1.789471E-02  9.541489E-05 -4.143002E-19 -7.717464E-01  0.000000E+00
  3.839530E-01  6.866607E-02  5.000000E-01  3.878306E-01  6.929007E-02  0.000000E+00  1.813261E-02  2.812723E-04 -1.299600E-19 -7.785443E-01  0.000000E+00
  3.636060E-01  6.825056E-02  5.000000E-01  3.672781E-01  6.887035E-02  0.000000E+00  1.832391E-02  4.612465E-04 -1.953277E-19 -7.842062E-01  0.000000E+00
  3.435960E-01  6.765289E-02  5.000000E-01  3.470660E-01  6.826666E-02  0.000000E+00  1.849439E-02  6.373909E-04 -1.034642E-21 -7.895048E-01  0.000000E+00
  3.239710E-01  6.688705E-02  5.000000E-01  3.272428E-01  6.749308E-02  0.000000E+00  1.866572E-02  8.094807E-04  2.393856E-19 -7.960257E-01  0.000000E+00
  3.047740E-01  6.597126E-02  5.000000E-01  3.078519E-01  6.656804E-02  0.000000E+00  1.885827E-02  9.795626E-04  5.623440E-19 -8.052678E-01  0.000000E+00
  2.860450E-01  6.491964E-02  5.000000E-01  2.889338E-01  6.550580E-02  0.000000E+00  1.909466E-02  1.159368E-03  8.012023E-19 -8.166728E-01  0.000000E+00
  2.678190E-01  6.373122E-02  5.000000E-01  2.705237E-01  6.430537E-02  0.000000E+00  1.938699E-02  1.359969E-03  8.153424E-19 -8.289744E-01  0.000000E+00
  2.501300E-01  6.240449E-02  5.000000E-01  2.526561E-01  6.296525E-02  0.000000E+00  1.973039E-02  1.583190E-03  4.557322E-19 -8.422549E-01  0.000000E+00
  2.330040E-01  6.094191E-02  5.000000E-01  2.353571E-01  6.148789E-02  0.000000E+00  2.011457E-02  1.828550E-03  3.266728E-19 -8.574138E-01  0.000000E+00
  2.164660E-01  5.934826E-02  5.000000E-01  2.186521E-01  5.987815E-02  0.000000E+00  2.053515E-02  2.098491E-03  1.372441E-19 -8.744249E-01  0.000000E+00
  2.005340E-01  5.762919E-02  5.000000E-01  2.025592E-01  5.814172E-02  0.000000E+00  2.099812E-02  2.408298E-03 -5.240470E-19 -8.895464E-01  0.000000E+00
  1.852230E-01  5.577293E-02  5.000000E-01  1.870936E-01  5.626671E-02  0.000000E+00  2.149496E-02  2.767489E-03 -5.359992E-19 -8.987743E-01  0.000000E+00
  1.705440E-01  5.377617E-02  5.000000E-01  1.722663E-01  5.424979E-02  0.000000E+00  2.199009E-02  3.156874E-03  2.057204E-19 -9.043209E-01  0.000000E+00
  1.565000E-01  5.165570E-02  5.000000E-01  1.580805E-01  5.210791E-02  0.000000E+00  2.246054E-02  3.555232E-03 -4.633698E-19 -9.129135E-01  0.000000E+00
  1.430940E-01  4.943559E-02  5.000000E-01  1.445391E-01  4.986537E-02  0.000000E+00  2.293073E-02  3.978144E-03 -1.617336E-18 -9.274937E-01  0.000000E+00
  1.303270E-01  4.712127E-02  5.000000E-01  1.316432E-01  4.752768E-02  0.000000E+00  2.344873E-02  4.484791E-03 -9.141314E-19 -9.399179E-01  0.000000E+00
  1.182110E-01  4.468680E-02  5.000000E-01  1.194048E-01  4.506862E-02  0.000000E+00  2.399875E-02  5.106256E-03 -5.812976E-19 -9.368232E-01  0.000000E+00
  1.067560E-01  4.211956E-02  5.000000E-01  1.078341E-01  4.247546E-02  0.000000E+00  2.446586E-02  5.798823E-03 -1.019199E-18 -9.101477E-01  0.000000E+00
  9.596750E-02  3.942694E-02  5.000000E-01  9.693669E-02  3.975565E-02  0.000000E+00  2.469235E-02  6.433462E-03 -1.472517E-18 -8.674750E-01  0.000000E+00
  8.582800E-02  3.667226E-02  5.000000E-01  8.669479E-02  3.697315E-02  0.000000E+00  2.462118E-02  6.896793E-03 -1.763576E-18 -8.259864E-01  0.000000E+00
  8.582800E-02  3.667226E-02  5.000000E-01  8.669479E-02  3.697315E-02  0.000000E+00  2.462118E-02  6.896793E-03 -1.763576E-18 -8.259864E-01  0.000000E+00
  7.631050E-02  3.392391E-02  5.000000E-01  7.708117E-02  3.419704E-02  0.000000E+00  2.437514E-02  7.251906E-03 -8.638066E-19 -7.895466E-01  0.000000E+00
  6.740780E-02  3.119709E-02  5.000000E-01  6.808856E-02  3.144269E-02  0.000000E+00  2.410359E-02  7.616063E-03  1.663953E-18 -7.521883E-01  0.000000E+00
  5.911740E-02  2.849691E-02  5.000000E-01  5.971444E-02  2.871523E-02  0.000000E+00  2.385852E-02  8.008640E-03  2.283695E-18 -7.117989E-01  0.000000E+00
  5.143150E-02  2.583984E-02  5.000000E-01  5.195092E-02  2.603133E-02  0.000000E+00  2.362779E-02  8.400989E-03  2.030942E-18 -6.694070E-01  0.000000E+00
  4.433770E-02  2.324725E-02  5.000000E-01  4.478547E-02  2.341255E-02  0.000000E+00  2.338595E-02  8.773363E-03  2.287720E-18 -6.276351E-01  0.000000E+00
  3.782240E-02  2.073921E-02  5.000000E-01  3.820438E-02  2.087919E-02  0.000000E+00  2.312362E-02  9.130347E-03  4.632602E-18 -5.902821E-01  0.000000E+00
  3.187460E-02  1.833033E-02  5.000000E-01  3.219651E-02  1.844598E-02  0.000000E+00  2.286023E-02  9.497691E-03  1.061857E-17 -5.605868E-01  0.000000E+00
  2.648400E-02  1.603280E-02  5.000000E-01  2.675147E-02  1.612525E-02  0.000000E+00  2.263356E-02  9.936178E-03  1.656649E-17 -5.338431E-01  0.000000E+00
  2.164990E-02  1.384931E-02  5.000000E-01  2.186855E-02  1.391970E-02  0.000000E+00  2.242204E-02  1.049435E-02  1.852912E-17 -4.954989E-01  0.000000E+00
  1.737670E-02  1.178071E-02  5.000000E-01  1.755219E-02  1.183021E-02  0.000000E+00  2.207598E-02  1.105238E-02  1.079850E-17 -4.404956E-01  0.000000E+00
  1.364080E-02  9.847514E-03  5.000000E-01  1.377856E-02  9.877496E-03  0.000000E+00  2.143496E-02  1.136592E-02 -1.491558E-17 -3.859830E-01  0.000000E+00
  1.039090E-02  8.079890E-03  5.000000E-01  1.049584E-02  8.092020E-03  0.000000E+00  2.050763E-02  1.137164E-02 -6.750722E-17 -3.548849E-01  0.000000E+00
  7.586340E-03  6.492828E-03  5.000000E-01  7.662960E-03  6.488929E-03  0.000000E+00  1.947637E-02  1.133854E-02 -1.556296E-16 -3.555148E-01  0.000000E+00
  5.226210E-03  5.078397E-03  5.000000E-01  5.278995E-03  5.060215E-03  0.000000E+00  1.863165E-02  1.170589E-02 -2.889210E-16 -3.880082E-01  0.000000E+00
  3.324300E-03  3.824730E-03  5.000000E-01  3.357877E-03  3.793887E-03  0.000000E+00  1.848320E-02  1.310912E-02 -4.769119E-16 -4.550421E-01  0.000000E+00
  1.883580E-03  2.729768E-03  5.000000E-01  1.902607E-03  2.687867E-03  0.000000E+00  1.971180E-02  1.686104E-02 -7.504998E-16 -5.362028E-01  0.000000E+00
  8.951490E-04  1.799864E-03  5.000000E-01  9.041943E-04  1.748571E-03  0.000000E+00  2.193950E-02  2.490799E-02 -1.189646E-15 -5.604962E-01  0.000000E+00
  3.201820E-04  1.051277E-03  5.000000E-01  3.234206E-04  9.924242E-04  0.000000E+00  2.174479E-02  3.726659E-02 -1.885618E-15 -4.415242E-01  0.000000E+00
  6.852390E-05  5.051922E-04  5.000000E-01  6.922101E-05  4.408246E-04  0.000000E+00  1.551801E-02  4.852602E-02 -2.812419E-15 -2.288073E-01  0.000000E+00
  4.217600E-06  1.773706E-04  5.000000E-01  4.265277E-06  1.096923E-04  0.000000E+00  6.420760E-03  5.626752E-02 -3.735968E-15 -1.628569E-01  0.000000E+00
 -5.032520E-09  6.877501E-05  5.000000E-01  0.000000E+00  0.000000E+00  0.000000E+00 -1.495884E-03  7.284423E-02 -4.537193E-15 -2.278482E-01  0.000000E+00
  5.154440E-06 -4.006880E-05  5.000000E-01  5.211578E-06 -1.099430E-04  0.000000E+00 -1.148041E-02  8.111676E-02 -5.239406E-15 -1.624228E-03  0.000000E+00