 Title = "ADflow Slice Data"
Variables =  "CoordinateX"  "CoordinateY"  "CoordinateZ"  "XoC"  "YoC"  "ZoC" "VelocityX" "VelocityY" "VelocityZ" "CoefPressure" "Mach" 
Zone T= "Slice_0001 None Absolute Regular z = 0.50000000"
 Nodes =          192  Elements=          184  ZONETYPE=FELINESEG
 DATAPACKING=POINT
  5.653940E-01 -2.845772E-03  5.000000E-01  5.711040E-01 -2.952202E-03  0.000000E+00  9.764430E-03  7.297355E-04 -1.097970E-18  1.324678E-01  0.000000E+00
  5.859770E-01 -1.191406E-03  5.000000E-01  5.918949E-01 -1.281128E-03  0.000000E+00  9.284562E-03  7.855634E-04 -6.710916E-19  1.465108E-01  0.000000E+00
  6.063060E-01  6.206708E-04  5.000000E-01  6.124292E-01  5.492493E-04  0.000000E+00  8.770709E-03  8.039736E-04  3.841294E-19  1.700261E-01  0.000000E+00
  6.263240E-01  2.508184E-03  5.000000E-01  6.326493E-01  2.455825E-03  0.000000E+00  8.285417E-03  7.808385E-04 -8.641625E-19  1.970790E-01  0.000000E+00
  6.459860E-01  4.359725E-03  5.000000E-01  6.525099E-01  4.326065E-03  0.000000E+00  7.873260E-03  7.222368E-04  2.902504E-19  2.236521E-01  0.000000E+00
  6.652460E-01  6.076643E-03  5.000000E-01  6.719644E-01  6.060322E-03  0.000000E+00  7.545772E-03  6.455973E-04  1.330574E-18  2.464154E-01  0.000000E+00
  6.840650E-01  7.614304E-03  5.000000E-01  6.909735E-01  7.613512E-03  0.000000E+00  7.282496E-03  5.717418E-04  4.007873E-19  2.631605E-01  0.000000E+00
  7.024070E-01  8.992492E-03  5.000000E-01  7.095007E-01  9.005619E-03  0.000000E+00  7.054399E-03  5.085055E-04 -8.608102E-20  2.755793E-01  0.000000E+00
  7.202400E-01  1.022327E-02  5.000000E-01  7.275138E-01  1.024883E-02  0.000000E+00  6.844958E-03  4.502271E-04  6.602728E-19  2.873414E-01  0.000000E+00
  7.375350E-01  1.130415E-02  5.000000E-01  7.449835E-01  1.134062E-02  0.000000E+00  6.651221E-03  3.916362E-04  1.285843E-18  2.995783E-01  0.000000E+00
  7.542690E-01  1.222744E-02  5.000000E-01  7.618865E-01  1.227324E-02  0.000000E+00  6.480477E-03  3.309790E-04  7.593875E-19  3.115920E-01  0.000000E+00
  7.704220E-01  1.298381E-02  5.000000E-01  7.782026E-01  1.303724E-02  0.000000E+00  6.347680E-03  2.675759E-04  5.962514E-20  3.223250E-01  0.000000E+00
  7.859770E-01  1.356544E-02  5.000000E-01  7.939147E-01  1.362475E-02  0.000000E+00  6.275592E-03  1.948800E-04  4.055745E-21  3.318995E-01  0.000000E+00
  8.009220E-01  1.393606E-02  5.000000E-01  8.090106E-01  1.399911E-02  0.000000E+00  6.289400E-03  1.039316E-04  2.531711E-19  3.406194E-01  0.000000E+00
  8.152480E-01  1.405511E-02  5.000000E-01  8.234813E-01  1.411936E-02  0.000000E+00  6.397277E-03 -6.407141E-07  3.682426E-19  3.456499E-01  0.000000E+00
  8.289490E-01  1.393914E-02  5.000000E-01  8.373207E-01  1.400223E-02  0.000000E+00  6.583314E-03 -1.059716E-04  5.278599E-19  3.445917E-01  0.000000E+00
  8.420260E-01  1.363170E-02  5.000000E-01  8.505297E-01  1.369168E-02  0.000000E+00  6.821332E-03 -2.051062E-04  4.461510E-19  3.389493E-01  0.000000E+00
  8.544790E-01  1.317911E-02  5.000000E-01  8.631085E-01  1.323451E-02  0.000000E+00  7.085399E-03 -2.954718E-04  2.713852E-19  3.310121E-01  0.000000E+00
  8.663160E-01  1.262469E-02  5.000000E-01  8.750650E-01  1.267449E-02  0.000000E+00  7.351904E-03 -3.753745E-04 -1.823988E-19  3.219939E-01  0.000000E+00
  8.775420E-01  1.200582E-02  5.000000E-01  8.864044E-01  1.204938E-02  0.000000E+00  7.600567E-03 -4.430723E-04 -7.047372E-20  3.125247E-01  0.000000E+00
  8.881660E-01  1.135380E-02  5.000000E-01  8.971357E-01  1.139077E-02  0.000000E+00  7.816693E-03 -4.972400E-04  1.882469E-19  3.031141E-01  0.000000E+00
  8.981970E-01  1.069372E-02  5.000000E-01  9.072680E-01  1.072403E-02  0.000000E+00  7.994417E-03 -5.401313E-04 -5.833146E-21  2.944296E-01  0.000000E+00
  9.076460E-01  1.003931E-02  5.000000E-01  9.168124E-01  1.006301E-02  0.000000E+00  8.139291E-03 -5.791903E-04 -1.855664E-19  2.872812E-01  0.000000E+00
  9.165220E-01  9.391324E-03  5.000000E-01  9.257781E-01  9.408478E-03  0.000000E+00  8.264258E-03 -6.209266E-04 -7.258977E-19  2.815512E-01  0.000000E+00
  9.165220E-01  9.391324E-03  5.000000E-01  9.257781E-01  9.408478E-03  0.000000E+00  8.264258E-03 -6.209266E-04 -7.258977E-19  2.815512E-01  0.000000E+00
  9.248360E-01  8.749057E-03  5.000000E-01  9.341760E-01  8.759725E-03  0.000000E+00  8.381927E-03 -6.671515E-04 -6.845074E-19  2.762630E-01  0.000000E+00
  9.325990E-01  8.113097E-03  5.000000E-01  9.420174E-01  8.117342E-03  0.000000E+00  8.502019E-03 -7.182573E-04 -7.061235E-19  2.708519E-01  0.000000E+00
  9.398210E-01  7.484744E-03  5.000000E-01  9.493124E-01  7.482644E-03  0.000000E+00  8.632302E-03 -7.747154E-04 -5.607922E-19  2.651746E-01  0.000000E+00
  9.465130E-01  6.866102E-03  5.000000E-01  9.560720E-01  6.857754E-03  0.000000E+00  8.778925E-03 -8.368743E-04  1.350401E-19  2.591012E-01  0.000000E+00
  9.526870E-01  6.260044E-03  5.000000E-01  9.623083E-01  6.245575E-03  0.000000E+00  8.946245E-03 -9.049430E-04  2.975816E-19  2.524777E-01  0.000000E+00
  9.583540E-01  5.670178E-03  5.000000E-01  9.680325E-01  5.649752E-03  0.000000E+00  9.137042E-03 -9.789787E-04 -2.191934E-19  2.451812E-01  0.000000E+00
  9.635240E-01  5.100763E-03  5.000000E-01  9.732548E-01  5.074586E-03  0.000000E+00  9.353140E-03 -1.058739E-03 -5.455151E-19  2.371054E-01  0.000000E+00
  9.682080E-01  4.556555E-03  5.000000E-01  9.779861E-01  4.524883E-03  0.000000E+00  9.597095E-03 -1.144170E-03 -1.843749E-19  2.282173E-01  0.000000E+00
  9.724140E-01  4.042675E-03  5.000000E-01  9.822345E-01  4.005813E-03  0.000000E+00  9.874609E-03 -1.235468E-03  5.325401E-20  2.185327E-01  0.000000E+00
  9.761510E-01  3.564445E-03  5.000000E-01  9.860093E-01  3.522753E-03  0.000000E+00  1.019480E-02 -1.332711E-03 -3.788520E-19  2.080394E-01  0.000000E+00
  9.794290E-01  3.127164E-03  5.000000E-01  9.893204E-01  3.081056E-03  0.000000E+00  1.056362E-02 -1.436152E-03 -7.818418E-19  1.967664E-01  0.000000E+00
  9.822540E-01  2.736031E-03  5.000000E-01  9.921739E-01  2.685972E-03  0.000000E+00  1.096647E-02 -1.544143E-03  4.444262E-19  1.849711E-01  0.000000E+00
  9.846330E-01  2.395893E-03  5.000000E-01  9.945769E-01  2.342399E-03  0.000000E+00  1.135054E-02 -1.646741E-03  2.382480E-18  1.739014E-01  0.000000E+00
  9.865710E-01  2.111130E-03  5.000000E-01  9.965345E-01  2.054760E-03  0.000000E+00  1.158775E-02 -1.712729E-03  3.193930E-18  1.624534E-01  0.000000E+00
  9.880740E-01  1.885516E-03  5.000000E-01  9.980527E-01  1.826868E-03  0.000000E+00  1.146776E-02 -1.738144E-03 -2.177154E-18  1.443065E-01  0.000000E+00
  9.891450E-01  1.722099E-03  5.000000E-01  9.991345E-01  1.661801E-03  0.000000E+00  1.166442E-02 -1.871169E-03 -2.648017E-17  1.458768E-01  0.000000E+00
  9.897860E-01  1.623133E-03  5.000000E-01  9.997820E-01  1.561835E-03  0.000000E+00  1.504916E-02 -1.854104E-03 -7.471415E-17  1.941627E-01  0.000000E+00
  9.900000E-01  1.589995E-03  5.000000E-01  9.999981E-01  1.528363E-03  0.000000E+00  1.051486E-02 -4.251977E-03 -7.777999E-17 -4.650496E-02  0.000000E+00
  9.900000E-01  1.668705E-03  5.000000E-01  9.999981E-01  1.607868E-03  0.000000E+00  1.052627E-03 -1.466919E-02  7.807462E-18 -1.830743E-01  0.000000E+00
  9.900000E-01  1.747426E-03  5.000000E-01  9.999981E-01  1.687383E-03  0.000000E+00 -5.239294E-04 -1.376616E-02  8.974598E-17 -7.960953E-03  0.000000E+00
  9.900000E-01  1.826146E-03  5.000000E-01  9.999981E-01  1.766899E-03  0.000000E+00 -3.035782E-04  2.622312E-03  1.062835E-16 -1.243187E-02  0.000000E+00
  9.900000E-01  1.904856E-03  5.000000E-01  9.999981E-01  1.846404E-03  0.000000E+00  7.180349E-04  3.983886E-03  1.345692E-16 -1.313959E-01  0.000000E+00
  9.900000E-01  1.983576E-03  5.000000E-01  9.999981E-01  1.925919E-03  0.000000E+00  5.956508E-03 -2.546929E-03  1.731619E-16 -3.656766E-02  0.000000E+00
  9.900000E-01  1.983576E-03  5.000000E-01  9.999981E-01  1.925919E-03  0.000000E+00  5.956508E-03 -2.546929E-03  1.731619E-16 -3.656766E-02  0.000000E+00
  9.897900E-01  2.026421E-03  5.000000E-01  9.997860E-01  1.969197E-03  0.000000E+00  7.767876E-03 -1.919431E-03  1.245202E-16  1.071288E-01  0.000000E+00
  9.891580E-01  2.154944E-03  5.000000E-01  9.991476E-01  2.099017E-03  0.000000E+00  4.847272E-03 -9.244330E-04  4.158977E-17  6.461567E-02  0.000000E+00
  9.881040E-01  2.369136E-03  5.000000E-01  9.980830E-01  2.315372E-03  0.000000E+00  4.102654E-03 -8.314255E-04  3.268640E-18  5.507289E-02  0.000000E+00
  9.866260E-01  2.668960E-03  5.000000E-01  9.965901E-01  2.618224E-03  0.000000E+00  3.922939E-03 -8.005854E-04 -4.710808E-18  5.739695E-02  0.000000E+00
  9.847200E-01  3.054337E-03  5.000000E-01  9.946648E-01  3.007493E-03  0.000000E+00  3.837917E-03 -7.739548E-04 -2.841101E-18  5.271227E-02  0.000000E+00
  9.823820E-01  3.525121E-03  5.000000E-01  9.923032E-01  3.483032E-03  0.000000E+00  3.876180E-03 -7.780414E-04 -6.451721E-19  4.535370E-02  0.000000E+00
  9.796080E-01  4.081058E-03  5.000000E-01  9.895012E-01  4.044583E-03  0.000000E+00  4.018610E-03 -8.028736E-04  1.453809E-19  3.731784E-02  0.000000E+00
  9.763910E-01  4.721758E-03  5.000000E-01  9.862517E-01  4.691754E-03  0.000000E+00  4.225557E-03 -8.387300E-04  2.504602E-19  2.807092E-02  0.000000E+00
  9.727270E-01  5.446585E-03  5.000000E-01  9.825507E-01  5.423901E-03  0.000000E+00  4.470926E-03 -8.805852E-04  4.448284E-19  1.749557E-02  0.000000E+00
  9.686070E-01  6.254729E-03  5.000000E-01  9.783891E-01  6.240206E-03  0.000000E+00  4.739393E-03 -9.250201E-04  5.222844E-19  5.807505E-03  0.000000E+00
  9.640240E-01  7.145027E-03  5.000000E-01  9.737598E-01  7.139496E-03  0.000000E+00  5.022858E-03 -9.700110E-04 -3.077152E-19 -6.869147E-03  0.000000E+00
  9.589680E-01  8.115996E-03  5.000000E-01  9.686527E-01  8.120270E-03  0.000000E+00  5.318340E-03 -1.014645E-03 -6.430012E-19 -2.043848E-02  0.000000E+00
  9.534310E-01  9.165727E-03  5.000000E-01  9.630598E-01  9.180603E-03  0.000000E+00  5.625111E-03 -1.058432E-03 -4.637741E-19 -3.480901E-02  0.000000E+00
  9.474030E-01  1.029187E-02  5.000000E-01  9.569710E-01  1.031812E-02  0.000000E+00  5.942377E-03 -1.100613E-03 -2.929190E-19 -4.979849E-02  0.000000E+00
  9.408720E-01  1.149158E-02  5.000000E-01  9.503740E-01  1.152994E-02  0.000000E+00  6.268020E-03 -1.140431E-03  4.691609E-20 -6.528030E-02  0.000000E+00
  9.338280E-01  1.276146E-02  5.000000E-01  9.432589E-01  1.281265E-02  0.000000E+00  6.598987E-03 -1.177056E-03  3.172694E-19 -8.113643E-02  0.000000E+00
  9.262600E-01  1.409762E-02  5.000000E-01  9.356144E-01  1.416230E-02  0.000000E+00  6.931330E-03 -1.209257E-03  3.736889E-19 -9.716492E-02  0.000000E+00
  9.181550E-01  1.549541E-02  5.000000E-01  9.274276E-01  1.557421E-02  0.000000E+00  7.259871E-03 -1.235794E-03  2.202568E-19 -1.132051E-01  0.000000E+00
  9.095020E-01  1.694972E-02  5.000000E-01  9.186872E-01  1.704320E-02  0.000000E+00  7.578361E-03 -1.255324E-03  6.945536E-19 -1.289591E-01  0.000000E+00
  9.002880E-01  1.845458E-02  5.000000E-01  9.093801E-01  1.856327E-02  0.000000E+00  7.878811E-03 -1.266542E-03  6.661470E-19 -1.438901E-01  0.000000E+00
  8.905020E-01  2.000358E-02  5.000000E-01  8.994953E-01  2.012791E-02  0.000000E+00  8.151480E-03 -1.269607E-03  8.935582E-19 -1.576467E-01  0.000000E+00
  8.801320E-01  2.159327E-02  5.000000E-01  8.890206E-01  2.173365E-02  0.000000E+00  8.387811E-03 -1.266495E-03  1.514883E-18 -1.702754E-01  0.000000E+00
  8.691700E-01  2.322377E-02  5.000000E-01  8.779479E-01  2.338062E-02  0.000000E+00  8.583709E-03 -1.259331E-03  1.267498E-18 -1.819451E-01  0.000000E+00
  8.691700E-01  2.322377E-02  5.000000E-01  8.779479E-01  2.338062E-02  0.000000E+00  8.583709E-03 -1.259331E-03  1.267498E-18 -1.819451E-01  0.000000E+00
  8.576080E-01  2.489706E-02  5.000000E-01  8.662691E-01  2.507080E-02  0.000000E+00  8.740086E-03 -1.249886E-03  8.293830E-19 -1.927361E-01  0.000000E+00
  8.454380E-01  2.661694E-02  5.000000E-01  8.539762E-01  2.680806E-02  0.000000E+00  8.861880E-03 -1.240664E-03  1.782587E-19 -2.027941E-01  0.000000E+00
  8.326580E-01  2.838969E-02  5.000000E-01  8.410671E-01  2.859871E-02  0.000000E+00  8.958081E-03 -1.234722E-03 -7.047102E-19 -2.125121E-01  0.000000E+00
  8.192630E-01  3.022449E-02  5.000000E-01  8.275368E-01  3.045204E-02  0.000000E+00  9.042320E-03 -1.235656E-03 -3.665624E-19 -2.229144E-01  0.000000E+00
  8.052550E-01  3.213388E-02  5.000000E-01  8.133874E-01  3.238071E-02  0.000000E+00  9.133857E-03 -1.246274E-03 -4.492574E-19 -2.355217E-01  0.000000E+00
  7.906370E-01  3.412991E-02  5.000000E-01  7.986218E-01  3.439690E-02  0.000000E+00  9.255946E-03 -1.265236E-03 -9.514638E-19 -2.511455E-01  0.000000E+00
  7.754120E-01  3.621322E-02  5.000000E-01  7.832430E-01  3.650125E-02  0.000000E+00  9.427862E-03 -1.287792E-03 -1.911324E-19 -2.695046E-01  0.000000E+00
  7.595880E-01  3.837096E-02  5.000000E-01  7.672592E-01  3.868078E-02  0.000000E+00  9.657093E-03 -1.310192E-03 -2.656709E-19 -2.902436E-01  0.000000E+00
  7.431760E-01  4.058636E-02  5.000000E-01  7.506814E-01  4.091856E-02  0.000000E+00  9.939829E-03 -1.330015E-03 -9.393057E-19 -3.131272E-01  0.000000E+00
  7.261880E-01  4.283971E-02  5.000000E-01  7.335219E-01  4.319466E-02  0.000000E+00  1.026489E-02 -1.344146E-03 -6.728250E-19 -3.374923E-01  0.000000E+00
  7.086430E-01  4.510827E-02  5.000000E-01  7.157997E-01  4.548614E-02  0.000000E+00  1.061621E-02 -1.349150E-03  2.481046E-19 -3.621231E-01  0.000000E+00
  6.905640E-01  4.736758E-02  5.000000E-01  6.975381E-01  4.776826E-02  0.000000E+00  1.097532E-02 -1.343533E-03 -1.808799E-21 -3.858147E-01  0.000000E+00
  6.719770E-01  4.959735E-02  5.000000E-01  6.787634E-01  5.002055E-02  0.000000E+00  1.132586E-02 -1.330503E-03 -8.373972E-19 -4.086053E-01  0.000000E+00
  6.529150E-01  5.179054E-02  5.000000E-01  6.595089E-01  5.223589E-02  0.000000E+00  1.166201E-02 -1.315073E-03 -3.867901E-20 -4.316332E-01  0.000000E+00
  6.334180E-01  5.394558E-02  5.000000E-01  6.398150E-01  5.441269E-02  0.000000E+00  1.199251E-02 -1.298444E-03  6.762779E-19 -4.560050E-01  0.000000E+00
  6.135280E-01  5.605496E-02  5.000000E-01  6.197241E-01  5.654338E-02  0.000000E+00  1.233405E-02 -1.278703E-03  6.733215E-19 -4.826482E-01  0.000000E+00
  5.932910E-01  5.810535E-02  5.000000E-01  5.992827E-01  5.861448E-02  0.000000E+00  1.270315E-02 -1.252435E-03  7.302917E-19 -5.117505E-01  0.000000E+00
  5.727570E-01  6.007510E-02  5.000000E-01  5.785414E-01  6.060412E-02  0.000000E+00  1.310962E-02 -1.214206E-03  5.175391E-19 -5.417625E-01  0.000000E+00
  5.519810E-01  6.193385E-02  5.000000E-01  5.575555E-01  6.248164E-02  0.000000E+00  1.354993E-02 -1.158781E-03  4.912741E-19 -5.702901E-01  0.000000E+00
  5.310180E-01  6.364764E-02  5.000000E-01  5.363808E-01  6.421273E-02  0.000000E+00  1.400521E-02 -1.089522E-03  7.605101E-19 -5.975736E-01  0.000000E+00
  5.099250E-01  6.520660E-02  5.000000E-01  5.150748E-01  6.578744E-02  0.000000E+00  1.445836E-02 -1.015933E-03  7.299383E-19 -6.267018E-01  0.000000E+00
  4.887640E-01  6.661725E-02  5.000000E-01  4.937001E-01  6.721234E-02  0.000000E+00  1.491520E-02 -9.340957E-04  1.951729E-19 -6.581643E-01  0.000000E+00
  4.675910E-01  6.786076E-02  5.000000E-01  4.723133E-01  6.846841E-02  0.000000E+00  1.538878E-02 -8.289882E-04  1.974505E-19 -6.887430E-01  0.000000E+00
  7.860720E-05 -5.156999E-04  5.000000E-01  7.940615E-05 -5.985978E-04  0.000000E+00 -7.667359E-03  2.817984E-02  4.584941E-17  8.443228E-01  0.000000E+00
  3.989240E-04 -1.209197E-03  5.000000E-01  4.029579E-04 -1.299099E-03  0.000000E+00 -6.962189E-03  1.259115E-02  1.963729E-17  1.079213E+00  0.000000E+00
  1.196920E-03 -2.050222E-03  5.000000E-01  1.209013E-03 -2.148617E-03  0.000000E+00 -1.089453E-03  1.708274E-03  6.710682E-18  1.076891E+00  0.000000E+00
  2.563580E-03 -2.930789E-03  5.000000E-01  2.589475E-03 -3.038077E-03  0.000000E+00  5.119395E-03 -2.582627E-03 -3.648672E-18  9.385389E-01  0.000000E+00
  4.492740E-03 -3.801069E-03  5.000000E-01  4.538118E-03 -3.917146E-03  0.000000E+00  9.060728E-03 -3.555114E-03 -4.603679E-18  8.097500E-01  0.000000E+00
  6.952190E-03 -4.654491E-03  5.000000E-01  7.022406E-03 -4.779187E-03  0.000000E+00  1.117150E-02 -3.540650E-03 -2.302436E-18  7.179593E-01  0.000000E+00
  9.910730E-03 -5.513276E-03  5.000000E-01  1.001082E-02 -5.646645E-03  0.000000E+00  1.235963E-02 -3.386083E-03 -1.714983E-18  6.468368E-01  0.000000E+00
  1.334950E-02 -6.404063E-03  5.000000E-01  1.348432E-02 -6.546429E-03  0.000000E+00  1.312626E-02 -3.186506E-03 -2.054163E-18  5.773106E-01  0.000000E+00
  1.728780E-02 -7.301041E-03  5.000000E-01  1.746240E-02 -7.452465E-03  0.000000E+00  1.360410E-02 -2.834392E-03 -2.778729E-18  5.014324E-01  0.000000E+00
  2.175590E-02 -8.147544E-03  5.000000E-01  2.197562E-02 -8.307517E-03  0.000000E+00  1.381368E-02 -2.348824E-03 -2.966568E-18  4.310833E-01  0.000000E+00
  2.676920E-02 -8.901583E-03  5.000000E-01  2.703955E-02 -9.069171E-03  0.000000E+00  1.382299E-02 -1.850281E-03 -1.737820E-18  3.796385E-01  0.000000E+00
  3.232800E-02 -9.551892E-03  5.000000E-01  3.265449E-02 -9.726048E-03  0.000000E+00  1.372399E-02 -1.428183E-03 -5.990208E-19  3.481292E-01  0.000000E+00
  3.842930E-02 -1.010732E-02  5.000000E-01  3.881741E-02 -1.028708E-02  0.000000E+00  1.357912E-02 -1.107848E-03 -2.314516E-19  3.292392E-01  0.000000E+00
  4.507220E-02 -1.058608E-02  5.000000E-01  4.552740E-02 -1.077068E-02  0.000000E+00  1.343434E-02 -8.948237E-04 -6.579415E-19  3.173864E-01  0.000000E+00
  5.225680E-02 -1.102446E-02  5.000000E-01  5.278455E-02 -1.121348E-02  0.000000E+00  1.333434E-02 -7.833369E-04 -4.555674E-19  3.094292E-01  0.000000E+00
  5.998640E-02 -1.146132E-02  5.000000E-01  6.059222E-02 -1.165475E-02  0.000000E+00  1.328852E-02 -7.298959E-04 -4.024932E-19  2.995805E-01  0.000000E+00
  6.827110E-02 -1.190432E-02  5.000000E-01  6.896058E-02 -1.210223E-02  0.000000E+00  1.326993E-02 -6.882744E-04 -5.751820E-19  2.847744E-01  0.000000E+00
  7.712280E-02 -1.234913E-02  5.000000E-01  7.790168E-02 -1.255153E-02  0.000000E+00  1.325531E-02 -6.467882E-04 -9.464316E-20  2.681178E-01  0.000000E+00
  8.655260E-02 -1.279482E-02  5.000000E-01  8.742671E-02 -1.300173E-02  0.000000E+00  1.323311E-02 -6.047377E-04 -1.747879E-19  2.522338E-01  0.000000E+00
  9.657140E-02 -1.323709E-02  5.000000E-01  9.754669E-02 -1.344846E-02  0.000000E+00  1.319097E-02 -5.524665E-04 -3.919196E-19  2.365232E-01  0.000000E+00
  1.071900E-01 -1.365817E-02  5.000000E-01  1.082725E-01 -1.387380E-02  0.000000E+00  1.312628E-02 -4.878169E-04 -9.165020E-21  2.211174E-01  0.000000E+00
  1.184180E-01 -1.404683E-02  5.000000E-01  1.196139E-01 -1.426638E-02  0.000000E+00  1.306289E-02 -4.274985E-04  2.105126E-19  2.081615E-01  0.000000E+00
  1.302610E-01 -1.441135E-02  5.000000E-01  1.315765E-01 -1.463459E-02  0.000000E+00  1.303597E-02 -3.869638E-04  8.122377E-21  1.977288E-01  0.000000E+00
  1.427230E-01 -1.476751E-02  5.000000E-01  1.441644E-01 -1.499434E-02  0.000000E+00  1.306615E-02 -3.688469E-04  1.878258E-20  1.875763E-01  0.000000E+00
  1.427230E-01 -1.476751E-02  5.000000E-01  1.441644E-01 -1.499434E-02  0.000000E+00  1.306615E-02 -3.688469E-04  1.878258E-20  1.875763E-01  0.000000E+00
  1.558070E-01 -1.513260E-02  5.000000E-01  1.573805E-01 -1.536312E-02  0.000000E+00  1.314351E-02 -3.612387E-04  3.857445E-20  1.751077E-01  0.000000E+00
  1.695140E-01 -1.550434E-02  5.000000E-01  1.712259E-01 -1.573861E-02  0.000000E+00  1.322699E-02 -3.414049E-04 -5.443342E-19  1.589474E-01  0.000000E+00
  1.838420E-01 -1.585586E-02  5.000000E-01  1.856986E-01 -1.609368E-02  0.000000E+00  1.326243E-02 -2.877157E-04 -7.848177E-19  1.403715E-01  0.000000E+00
  1.987870E-01 -1.613803E-02  5.000000E-01  2.007946E-01 -1.637870E-02  0.000000E+00  1.320341E-02 -1.863650E-04 -6.565196E-19  1.218499E-01  0.000000E+00
  2.143420E-01 -1.628319E-02  5.000000E-01  2.165067E-01 -1.652533E-02  0.000000E+00  1.303704E-02 -4.987180E-05 -8.725265E-19  1.071414E-01  0.000000E+00
  2.304940E-01 -1.625289E-02  5.000000E-01  2.328218E-01 -1.649472E-02  0.000000E+00  1.279980E-02  7.690236E-05 -5.831536E-19  1.011121E-01  0.000000E+00
  2.472290E-01 -1.607986E-02  5.000000E-01  2.497258E-01 -1.631994E-02  0.000000E+00  1.254411E-02  1.632018E-04  3.459644E-19  1.032110E-01  0.000000E+00
  2.645310E-01 -1.580838E-02  5.000000E-01  2.672025E-01 -1.604572E-02  0.000000E+00  1.229809E-02  2.190382E-04  8.282015E-19  1.070284E-01  0.000000E+00
  2.823750E-01 -1.545388E-02  5.000000E-01  2.852267E-01 -1.568764E-02  0.000000E+00  1.207185E-02  2.649567E-04  3.840914E-19  1.085089E-01  0.000000E+00
  3.007320E-01 -1.501259E-02  5.000000E-01  3.037691E-01 -1.524189E-02  0.000000E+00  1.188017E-02  3.045177E-04 -2.082553E-19  1.088545E-01  0.000000E+00
  3.195690E-01 -1.449801E-02  5.000000E-01  3.227964E-01 -1.472211E-02  0.000000E+00  1.174370E-02  3.276394E-04 -7.101186E-19  1.105171E-01  0.000000E+00
  3.388440E-01 -1.394801E-02  5.000000E-01  3.422660E-01 -1.416657E-02  0.000000E+00  1.166564E-02  3.345875E-04 -5.644644E-19  1.124308E-01  0.000000E+00
  3.585140E-01 -1.338223E-02  5.000000E-01  3.621347E-01 -1.359507E-02  0.000000E+00  1.161700E-02  3.430560E-04 -3.183906E-20  1.111270E-01  0.000000E+00
  3.785290E-01 -1.277720E-02  5.000000E-01  3.823518E-01 -1.298393E-02  0.000000E+00  1.155451E-02  3.668857E-04  1.815483E-19  1.063729E-01  0.000000E+00
  3.988350E-01 -1.210088E-02  5.000000E-01  4.028629E-01 -1.230077E-02  0.000000E+00  1.144445E-02  4.081133E-04 -1.535947E-19  1.013897E-01  0.000000E+00
  4.193750E-01 -1.131913E-02  5.000000E-01  4.236103E-01 -1.151114E-02  0.000000E+00  1.127086E-02  4.694743E-04  2.403892E-20  9.829708E-02  0.000000E+00
  4.400850E-01 -1.038126E-02  5.000000E-01  4.445295E-01 -1.056379E-02  0.000000E+00  1.104590E-02  5.474000E-04  2.368467E-19  9.830242E-02  0.000000E+00
  4.609060E-01 -9.257995E-03  5.000000E-01  4.655608E-01 -9.429183E-03  0.000000E+00  1.081687E-02  6.153660E-04  7.886067E-20  1.038873E-01  0.000000E+00
  4.818030E-01 -8.003489E-03  5.000000E-01  4.866688E-01 -8.162008E-03  0.000000E+00  1.064010E-02  6.382033E-04  2.908267E-20  1.161986E-01  0.000000E+00
  5.027520E-01 -6.746465E-03  5.000000E-01  5.078294E-01 -6.892289E-03  0.000000E+00  1.052147E-02  6.188312E-04 -2.195897E-20  1.296011E-01  0.000000E+00
  5.237130E-01 -5.542806E-03  5.000000E-01  5.290021E-01 -5.676473E-03  0.000000E+00  1.038864E-02  6.103424E-04  1.232023E-19  1.348844E-01  0.000000E+00
  5.446170E-01 -4.292586E-03  5.000000E-01  5.501172E-01 -4.413627E-03  0.000000E+00  1.014638E-02  6.555012E-04  1.723356E-19  1.316123E-01  0.000000E+00
  5.653940E-01 -2.845772E-03  5.000000E-01  5.711040E-01 -2.952202E-03  0.000000E+00  9.764430E-03  7.297355E-04 -1.097970E-18  1.324678E-01  0.000000E+00
  4.675910E-01  6.786076E-02  5.000000E-01  4.723133E-01  6.846841E-02  0.000000E+00  1.538878E-02 -8.289882E-04  1.974505E-19 -6.887430E-01  0.000000E+00
  4.464640E-01  6.890012E-02  5.000000E-01  4.509729E-01  6.951826E-02  0.000000E+00  1.586989E-02 -6.984289E-04  6.233491E-19 -7.163831E-01  0.000000E+00
  4.254410E-01  6.971968E-02  5.000000E-01  4.297376E-01  7.034610E-02  0.000000E+00  1.633419E-02 -5.525743E-04  9.112927E-19 -7.414348E-01  0.000000E+00
  4.045840E-01  7.032046E-02  5.000000E-01  4.086700E-01  7.095294E-02  0.000000E+00  1.676533E-02 -3.996931E-04  4.373917E-19 -7.648920E-01  0.000000E+00
  3.839530E-01  7.071224E-02  5.000000E-01  3.878306E-01  7.134868E-02  0.000000E+00  1.716475E-02 -2.414980E-04 -1.552918E-19 -7.874266E-01  0.000000E+00
  3.636060E-01  7.090075E-02  5.000000E-01  3.672781E-01  7.153910E-02  0.000000E+00  1.754753E-02 -7.627521E-05 -1.478984E-19 -8.095621E-01  0.000000E+00
  3.435960E-01  7.089148E-02  5.000000E-01  3.470660E-01  7.152973E-02  0.000000E+00  1.793328E-02  9.697352E-05  9.131013E-20 -8.325203E-01  0.000000E+00
  3.239710E-01  7.068994E-02  5.000000E-01  3.272428E-01  7.132616E-02  0.000000E+00  1.834287E-02  2.797400E-04  1.636128E-19 -8.580084E-01  0.000000E+00
  3.047740E-01  7.030293E-02  5.000000E-01  3.078520E-01  7.093524E-02  0.000000E+00  1.879907E-02  4.795628E-04 -3.285344E-20 -8.864774E-01  0.000000E+00
  2.860450E-01  6.972736E-02  5.000000E-01  2.889338E-01  7.035386E-02  0.000000E+00  1.931957E-02  7.114090E-04 -2.955160E-20 -9.159377E-01  0.000000E+00
  2.678190E-01  6.894869E-02  5.000000E-01  2.705237E-01  6.956732E-02  0.000000E+00  1.989986E-02  9.845226E-04 -5.061622E-19 -9.441298E-01  0.000000E+00
  2.501300E-01  6.795781E-02  5.000000E-01  2.526561E-01  6.856644E-02  0.000000E+00  2.051270E-02  1.296651E-03 -1.299635E-18 -9.703428E-01  0.000000E+00
  2.330040E-01  6.675537E-02  5.000000E-01  2.353571E-01  6.735185E-02  0.000000E+00  2.112654E-02  1.642057E-03 -1.434768E-18 -9.945905E-01  0.000000E+00
  2.164660E-01  6.534851E-02  5.000000E-01  2.186521E-01  6.593078E-02  0.000000E+00  2.172121E-02  2.016785E-03 -9.716407E-19 -1.016014E+00  0.000000E+00
  2.005340E-01  6.374880E-02  5.000000E-01  2.025592E-01  6.431491E-02  0.000000E+00  2.229360E-02  2.426911E-03 -5.921381E-19 -1.031178E+00  0.000000E+00
  1.852230E-01  6.195726E-02  5.000000E-01  1.870936E-01  6.250528E-02  0.000000E+00  2.283541E-02  2.872861E-03 -9.429174E-19 -1.037877E+00  0.000000E+00
  1.705440E-01  5.998510E-02  5.000000E-01  1.722664E-01  6.051321E-02  0.000000E+00  2.332416E-02  3.332564E-03 -1.109098E-18 -1.040651E+00  0.000000E+00
  1.565000E-01  5.785989E-02  5.000000E-01  1.580805E-01  5.836654E-02  0.000000E+00  2.376174E-02  3.788137E-03 -1.417078E-18 -1.048231E+00  0.000000E+00
  1.430940E-01  5.561343E-02  5.000000E-01  1.445391E-01  5.609739E-02  0.000000E+00  2.420501E-02  4.265005E-03 -1.578470E-18 -1.064070E+00  0.000000E+00
  1.303270E-01  5.325471E-02  5.000000E-01  1.316432E-01  5.371484E-02  0.000000E+00  2.473163E-02  4.839406E-03 -1.106539E-18 -1.078247E+00  0.000000E+00
  1.182110E-01  5.075584E-02  5.000000E-01  1.194048E-01  5.119074E-02  0.000000E+00  2.533182E-02  5.554288E-03 -1.231555E-18 -1.074859E+00  0.000000E+00
  1.067560E-01  4.810173E-02  5.000000E-01  1.078341E-01  4.850983E-02  0.000000E+00  2.586677E-02  6.363521E-03 -1.450633E-18 -1.044614E+00  0.000000E+00
  9.596750E-02  4.529754E-02  5.000000E-01  9.693669E-02  4.567732E-02  0.000000E+00  2.614050E-02  7.116212E-03 -1.385466E-18 -9.966291E-01  0.000000E+00
  8.582800E-02  4.241060E-02  5.000000E-01  8.669479E-02  4.276122E-02  0.000000E+00  2.607850E-02  7.676665E-03 -5.081725E-19 -9.510549E-01  0.000000E+00
  8.582800E-02  4.241060E-02  5.000000E-01  8.669479E-02  4.276122E-02  0.000000E+00  2.607850E-02  7.676665E-03 -5.081725E-19 -9.510549E-01  0.000000E+00
  7.631050E-02  3.951478E-02  5.000000E-01  7.708117E-02  3.983615E-02  0.000000E+00  2.582833E-02  8.123121E-03  3.723193E-19 -9.122819E-01  0.000000E+00
  6.740780E-02  3.662332E-02  5.000000E-01  6.808857E-02  3.691549E-02  0.000000E+00  2.557068E-02  8.603051E-03 -1.414546E-19 -8.727124E-01  0.000000E+00
  5.911740E-02  3.373715E-02  5.000000E-01  5.971444E-02  3.400017E-02  0.000000E+00  2.536177E-02  9.144292E-03  5.390499E-19 -8.290090E-01  0.000000E+00
  5.143150E-02  3.087013E-02  5.000000E-01  5.195092E-02  3.110420E-02  0.000000E+00  2.517335E-02  9.711572E-03  8.027437E-19 -7.817859E-01  0.000000E+00
  4.433770E-02  2.804239E-02  5.000000E-01  4.478548E-02  2.824791E-02  0.000000E+00  2.495882E-02  1.027654E-02  1.253568E-18 -7.337743E-01  0.000000E+00
  3.782240E-02  2.527342E-02  5.000000E-01  3.820438E-02  2.545097E-02  0.000000E+00  2.469148E-02  1.083947E-02  1.011789E-18 -6.889035E-01  0.000000E+00
  3.187460E-02  2.257712E-02  5.000000E-01  3.219651E-02  2.272744E-02  0.000000E+00  2.437977E-02  1.142667E-02 -7.373739E-19 -6.498551E-01  0.000000E+00
  2.648400E-02  1.996568E-02  5.000000E-01  2.675147E-02  2.008963E-02  0.000000E+00  2.405449E-02  1.211014E-02  1.085285E-19 -6.093046E-01  0.000000E+00
  2.164990E-02  1.744030E-02  5.000000E-01  2.186855E-02  1.753874E-02  0.000000E+00  2.367977E-02  1.294594E-02 -8.702225E-19 -5.484163E-01  0.000000E+00
  1.737670E-02  1.500085E-02  5.000000E-01  1.755219E-02  1.507466E-02  0.000000E+00  2.308962E-02  1.376776E-02 -2.667481E-18 -4.611681E-01  0.000000E+00
  1.364080E-02  1.267555E-02  5.000000E-01  1.377857E-02  1.272587E-02  0.000000E+00  2.215196E-02  1.425807E-02 -2.697125E-18 -3.690503E-01  0.000000E+00
  1.039090E-02  1.050947E-02  5.000000E-01  1.049584E-02  1.053791E-02  0.000000E+00  2.096711E-02  1.436993E-02 -3.335443E-18 -2.983892E-01  0.000000E+00
  7.586340E-03  8.530171E-03  5.000000E-01  7.662961E-03  8.538628E-03  0.000000E+00  1.981376E-02  1.451530E-02 -3.408172E-18 -2.526899E-01  0.000000E+00
  5.226210E-03  6.734585E-03  5.000000E-01  5.278995E-03  6.724909E-03  0.000000E+00  1.895925E-02  1.527166E-02 -5.345467E-18 -2.188403E-01  0.000000E+00
  3.324300E-03  5.114200E-03  5.000000E-01  3.357878E-03  5.088160E-03  0.000000E+00  1.854266E-02  1.715542E-02 -1.276695E-17 -1.845893E-01  0.000000E+00
  1.883580E-03  3.674472E-03  5.000000E-01  1.902608E-03  3.633891E-03  0.000000E+00  1.836743E-02  2.071793E-02 -2.044642E-17 -1.272341E-01  0.000000E+00
  8.951490E-04  2.432875E-03  5.000000E-01  9.041943E-04  2.379755E-03  0.000000E+00  1.743985E-02  2.614620E-02 -2.032074E-17 -8.340373E-03  0.000000E+00
  3.201820E-04  1.420786E-03  5.000000E-01  3.234206E-04  1.357445E-03  0.000000E+00  1.415225E-02  3.197759E-02 -1.095044E-17  1.913220E-01  0.000000E+00
  6.852390E-05  6.758283E-04  5.000000E-01  6.922102E-05  6.049638E-04  0.000000E+00  8.442684E-03  3.491269E-02  2.552241E-18  4.029650E-01  0.000000E+00
  4.217600E-06  2.262119E-04  5.000000E-01  4.265277E-06  1.508066E-04  0.000000E+00  3.039838E-03  3.463374E-02  2.607229E-17  4.773129E-01  0.000000E+00
 -5.032520E-09  7.691304E-05  5.000000E-01  0.000000E+00  0.000000E+00  0.000000E+00 -4.435640E-04  3.759102E-02  6.349661E-17  4.436768E-01  0.000000E+00
  5.154440E-06 -7.288852E-05  5.000000E-01  5.211579E-06 -1.513144E-04  0.000000E+00 -3.967898E-03  3.867791E-02  7.578038E-17  5.488276E-01  0.000000E+00