 Title = "ADflow Slice Data"
Variables =  "CoordinateX"  "CoordinateY"  "CoordinateZ"  "XoC"  "YoC"  "ZoC" "VelocityX" "VelocityY" "VelocityZ" "CoefPressure" "Mach" 
Zone T= "Slice_0001 None Absolute Regular z = 0.50000000"
 Nodes =          192  Elements=          184  ZONETYPE=FELINESEG
 DATAPACKING=POINT
  5.653940E-01  1.388886E-03  5.000000E-01  5.711039E-01  1.333445E-03  0.000000E+00  1.048319E-02 -2.094582E-04  1.852729E-19  1.664597E-01  0.000000E+00
  5.859770E-01  1.064774E-03  5.000000E-01  5.918948E-01  1.006059E-03  0.000000E+00  1.048266E-02 -1.187289E-04  1.594570E-19  1.500934E-01  0.000000E+00
  6.063060E-01  9.266894E-04  5.000000E-01  6.124291E-01  8.665806E-04  0.000000E+00  1.043894E-02 -3.689573E-05 -2.715373E-20  1.454770E-01  0.000000E+00
  6.263240E-01  9.211545E-04  5.000000E-01  6.326492E-01  8.609899E-04  0.000000E+00  1.048480E-02 -3.917831E-06  2.461373E-19  1.474932E-01  0.000000E+00
  6.459860E-01  9.134654E-04  5.000000E-01  6.525098E-01  8.532231E-04  0.000000E+00  1.073251E-02 -5.545347E-05  3.396287E-19  1.514178E-01  0.000000E+00
  6.652460E-01  7.271197E-04  5.000000E-01  6.719643E-01  6.649954E-04  0.000000E+00  1.119159E-02 -1.701477E-04  9.924279E-19  1.488437E-01  0.000000E+00
  6.840650E-01  3.350452E-04  5.000000E-01  6.909734E-01  2.689614E-04  0.000000E+00  1.170653E-02 -2.240029E-04 -1.754068E-19  1.261594E-01  0.000000E+00
  7.024070E-01  7.467836E-06  5.000000E-01  7.095006E-01 -6.192411E-05  0.000000E+00  1.203571E-02 -1.185129E-04 -8.131261E-19  8.754800E-02  0.000000E+00
  7.202400E-01 -2.445576E-05  5.000000E-01  7.275137E-01 -9.417010E-05  0.000000E+00  1.197234E-02  1.252317E-04 -8.558407E-20  5.551603E-02  0.000000E+00
  7.375350E-01  3.778898E-04  5.000000E-01  7.449833E-01  3.122387E-04  0.000000E+00  1.139676E-02  4.312484E-04 -9.658280E-19  4.480496E-02  0.000000E+00
  7.542690E-01  1.276551E-03  5.000000E-01  7.618863E-01  1.219975E-03  0.000000E+00  1.032013E-02  7.138224E-04 -1.220217E-18  5.868543E-02  0.000000E+00
  7.704220E-01  2.676156E-03  5.000000E-01  7.782025E-01  2.633715E-03  0.000000E+00  8.890524E-03  9.045055E-04 -1.308003E-18  9.319590E-02  0.000000E+00
  7.859770E-01  4.539318E-03  5.000000E-01  7.939146E-01  4.515693E-03  0.000000E+00  7.374118E-03  9.470130E-04 -1.299039E-18  1.471653E-01  0.000000E+00
  8.009220E-01  6.626433E-03  5.000000E-01  8.090105E-01  6.623886E-03  0.000000E+00  6.065667E-03  8.372000E-04  5.509184E-19  2.175316E-01  0.000000E+00
  8.152480E-01  8.573325E-03  5.000000E-01  8.234812E-01  8.590440E-03  0.000000E+00  5.127114E-03  6.570908E-04  1.769034E-18  2.837469E-01  0.000000E+00
  8.289490E-01  1.019166E-02  5.000000E-01  8.373205E-01  1.022511E-02  0.000000E+00  4.551565E-03  4.859199E-04  8.738264E-19  3.281648E-01  0.000000E+00
  8.420260E-01  1.142072E-02  5.000000E-01  8.505296E-01  1.146659E-02  0.000000E+00  4.260430E-03  3.452905E-04 -8.345352E-19  3.535994E-01  0.000000E+00
  8.544790E-01  1.226553E-02  5.000000E-01  8.631084E-01  1.231993E-02  0.000000E+00  4.176399E-03  2.293798E-04 -1.405594E-18  3.687421E-01  0.000000E+00
  8.663160E-01  1.276523E-02  5.000000E-01  8.750649E-01  1.282468E-02  0.000000E+00  4.238117E-03  1.276073E-04 -1.337288E-19  3.781162E-01  0.000000E+00
  8.775420E-01  1.297154E-02  5.000000E-01  8.864043E-01  1.303307E-02  0.000000E+00  4.394991E-03  3.271861E-05  1.897383E-19  3.830430E-01  0.000000E+00
  8.881660E-01  1.293919E-02  5.000000E-01  8.971356E-01  1.300040E-02  0.000000E+00  4.606556E-03 -5.846607E-05  7.037161E-20  3.842682E-01  0.000000E+00
  8.981970E-01  1.271973E-02  5.000000E-01  9.072679E-01  1.277872E-02  0.000000E+00  4.845751E-03 -1.481598E-04  4.493123E-19  3.829167E-01  0.000000E+00
  9.076460E-01  1.235323E-02  5.000000E-01  9.168123E-01  1.240852E-02  0.000000E+00  5.100652E-03 -2.403058E-04 -1.608353E-19  3.802504E-01  0.000000E+00
  9.165220E-01  1.186518E-02  5.000000E-01  9.257779E-01  1.191554E-02  0.000000E+00  5.369896E-03 -3.383713E-04 -7.595673E-19  3.765905E-01  0.000000E+00
  9.165220E-01  1.186518E-02  5.000000E-01  9.257779E-01  1.191554E-02  0.000000E+00  5.369896E-03 -3.383713E-04 -7.595673E-19  3.765905E-01  0.000000E+00
  9.248360E-01  1.127773E-02  5.000000E-01  9.341759E-01  1.132215E-02  0.000000E+00  5.655231E-03 -4.433122E-04 -1.083764E-18  3.714818E-01  0.000000E+00
  9.325990E-01  1.061207E-02  5.000000E-01  9.420173E-01  1.064977E-02  0.000000E+00  5.958563E-03 -5.553741E-04 -1.632705E-19  3.647870E-01  0.000000E+00
  9.398210E-01  9.887826E-03  5.000000E-01  9.493122E-01  9.918215E-03  0.000000E+00  6.282265E-03 -6.750791E-04  7.777363E-19  3.566480E-01  0.000000E+00
  9.465130E-01  9.123187E-03  5.000000E-01  9.560718E-01  9.145854E-03  0.000000E+00  6.628926E-03 -8.030445E-04  8.442437E-19  3.471344E-01  0.000000E+00
  9.526870E-01  8.334986E-03  5.000000E-01  9.623082E-01  8.349694E-03  0.000000E+00  7.000740E-03 -9.398221E-04  1.328717E-18  3.362555E-01  0.000000E+00
  9.583540E-01  7.538892E-03  5.000000E-01  9.680324E-01  7.545559E-03  0.000000E+00  7.399456E-03 -1.085840E-03  7.757780E-19  3.240158E-01  0.000000E+00
  9.635240E-01  6.749537E-03  5.000000E-01  9.732546E-01  6.748233E-03  0.000000E+00  7.826996E-03 -1.241312E-03 -1.850076E-19  3.104042E-01  0.000000E+00
  9.682080E-01  5.980480E-03  5.000000E-01  9.779859E-01  5.971409E-03  0.000000E+00  8.287325E-03 -1.406775E-03 -1.430430E-18  2.954636E-01  0.000000E+00
  9.724140E-01  5.244416E-03  5.000000E-01  9.822344E-01  5.227911E-03  0.000000E+00  8.788970E-03 -1.583401E-03 -1.726184E-18  2.792652E-01  0.000000E+00
  9.761510E-01  4.552995E-03  5.000000E-01  9.860091E-01  4.529508E-03  0.000000E+00  9.344795E-03 -1.772695E-03 -8.945869E-19  2.618370E-01  0.000000E+00
  9.794290E-01  3.916706E-03  5.000000E-01  9.893202E-01  3.886794E-03  0.000000E+00  9.963580E-03 -1.975929E-03 -8.489854E-19  2.432448E-01  0.000000E+00
  9.822540E-01  3.345209E-03  5.000000E-01  9.921738E-01  3.309525E-03  0.000000E+00  1.062904E-02 -2.190050E-03 -5.467667E-19  2.238193E-01  0.000000E+00
  9.846330E-01  2.846913E-03  5.000000E-01  9.945768E-01  2.806196E-03  0.000000E+00  1.127648E-02 -2.398234E-03  8.043770E-19  2.048827E-01  0.000000E+00
  9.865710E-01  2.429123E-03  5.000000E-01  9.965344E-01  2.384187E-03  0.000000E+00  1.174931E-02 -2.553156E-03  1.871199E-18  1.852668E-01  0.000000E+00
  9.880740E-01  2.097779E-03  5.000000E-01  9.980525E-01  2.049497E-03  0.000000E+00  1.179902E-02 -2.627681E-03 -2.580204E-18  1.593591E-01  0.000000E+00
  9.891450E-01  1.857666E-03  5.000000E-01  9.991343E-01  1.806959E-03  0.000000E+00  1.207443E-02 -2.801790E-03 -2.502876E-17  1.556233E-01  0.000000E+00
  9.897860E-01  1.712260E-03  5.000000E-01  9.997818E-01  1.660085E-03  0.000000E+00  1.534959E-02 -3.001059E-03 -7.065151E-17  1.958910E-01  0.000000E+00
  9.900000E-01  1.663529E-03  5.000000E-01  9.999980E-01  1.610861E-03  0.000000E+00  1.062151E-02 -5.396127E-03 -7.500126E-17 -5.460115E-02  0.000000E+00
  9.900000E-01  1.742239E-03  5.000000E-01  9.999980E-01  1.690367E-03  0.000000E+00  1.058910E-03 -1.563280E-02  4.997344E-18 -1.928369E-01  0.000000E+00
  9.900000E-01  1.820959E-03  5.000000E-01  9.999980E-01  1.769882E-03  0.000000E+00 -5.294838E-04 -1.512293E-02  8.469545E-17 -1.895182E-02  0.000000E+00
  9.900000E-01  1.899680E-03  5.000000E-01  9.999980E-01  1.849397E-03  0.000000E+00 -2.520694E-04  3.211157E-04  1.042206E-16 -2.433651E-02  0.000000E+00
  9.900000E-01  1.978390E-03  5.000000E-01  9.999980E-01  1.928902E-03  0.000000E+00  6.247917E-04  2.285454E-03  1.280810E-16 -1.265373E-01  0.000000E+00
  9.900000E-01  2.057110E-03  5.000000E-01  9.999980E-01  2.008417E-03  0.000000E+00  4.944495E-03 -2.885008E-03  1.557906E-16 -4.361560E-02  0.000000E+00
  9.900000E-01  2.057110E-03  5.000000E-01  9.999980E-01  2.008417E-03  0.000000E+00  4.944495E-03 -2.885008E-03  1.557906E-16 -4.361560E-02  0.000000E+00
  9.897900E-01  2.115276E-03  5.000000E-01  9.997859E-01  2.067171E-03  0.000000E+00  6.250122E-03 -2.017124E-03  1.096060E-16  7.689380E-02  0.000000E+00
  9.891580E-01  2.289654E-03  5.000000E-01  9.991475E-01  2.243310E-03  0.000000E+00  3.539764E-03 -9.212741E-04  3.747443E-17  3.884095E-02  0.000000E+00
  9.881040E-01  2.579473E-03  5.000000E-01  9.980828E-01  2.536055E-03  0.000000E+00  2.715692E-03 -7.433095E-04  4.015505E-18  2.911318E-02  0.000000E+00
  9.866260E-01  2.983554E-03  5.000000E-01  9.965899E-01  2.944217E-03  0.000000E+00  2.457855E-03 -6.745098E-04 -3.731098E-18  2.929028E-02  0.000000E+00
  9.847200E-01  3.500272E-03  5.000000E-01  9.946647E-01  3.466153E-03  0.000000E+00  2.361726E-03 -6.365797E-04 -2.734909E-18  2.280925E-02  0.000000E+00
  9.823820E-01  4.127350E-03  5.000000E-01  9.923030E-01  4.099564E-03  0.000000E+00  2.436923E-03 -6.487012E-04 -1.081794E-18  1.300351E-02  0.000000E+00
  9.796080E-01  4.861781E-03  5.000000E-01  9.895010E-01  4.841413E-03  0.000000E+00  2.655106E-03 -6.970901E-04 -3.882568E-19  1.699163E-03  0.000000E+00
  9.763910E-01  5.699940E-03  5.000000E-01  9.862515E-01  5.688036E-03  0.000000E+00  2.971141E-03 -7.666236E-04 -5.001562E-19 -1.154380E-02  0.000000E+00
  9.727270E-01  6.637025E-03  5.000000E-01  9.825505E-01  6.634585E-03  0.000000E+00  3.355033E-03 -8.480249E-04 -6.034228E-19 -2.690957E-02  0.000000E+00
  9.686070E-01  7.667541E-03  5.000000E-01  9.783889E-01  7.675508E-03  0.000000E+00  3.789951E-03 -9.351312E-04 -7.710634E-19 -4.423573E-02  0.000000E+00
  9.640240E-01  8.784603E-03  5.000000E-01  9.737597E-01  8.803851E-03  0.000000E+00  4.267277E-03 -1.023666E-03 -2.557605E-19 -6.335781E-02  0.000000E+00
  9.589680E-01  9.980128E-03  5.000000E-01  9.686526E-01  1.001145E-02  0.000000E+00  4.782933E-03 -1.110452E-03  9.429513E-19 -8.405707E-02  0.000000E+00
  9.534310E-01  1.124437E-02  5.000000E-01  9.630597E-01  1.128846E-02  0.000000E+00  5.333746E-03 -1.192320E-03  2.198086E-19 -1.060412E-01  0.000000E+00
  9.474030E-01  1.256594E-02  5.000000E-01  9.569708E-01  1.262338E-02  0.000000E+00  5.914679E-03 -1.265261E-03 -1.238646E-18 -1.288521E-01  0.000000E+00
  9.408720E-01  1.393158E-02  5.000000E-01  9.503738E-01  1.400280E-02  0.000000E+00  6.517035E-03 -1.324662E-03 -1.513387E-18 -1.519672E-01  0.000000E+00
  9.338280E-01  1.532581E-02  5.000000E-01  9.432587E-01  1.541111E-02  0.000000E+00  7.128122E-03 -1.365335E-03 -1.664360E-18 -1.747439E-01  0.000000E+00
  9.262600E-01  1.673096E-02  5.000000E-01  9.356143E-01  1.683045E-02  0.000000E+00  7.730564E-03 -1.381369E-03 -3.084556E-19 -1.963094E-01  0.000000E+00
  9.181550E-01  1.812670E-02  5.000000E-01  9.274274E-01  1.824030E-02  0.000000E+00  8.300893E-03 -1.366898E-03 -2.727818E-19 -2.156619E-01  0.000000E+00
  9.095020E-01  1.949034E-02  5.000000E-01  9.186870E-01  1.961771E-02  0.000000E+00  8.808465E-03 -1.316506E-03 -2.059660E-18 -2.314854E-01  0.000000E+00
  9.002880E-01  2.079639E-02  5.000000E-01  9.093800E-01  2.093694E-02  0.000000E+00  9.213599E-03 -1.226277E-03 -1.939578E-18 -2.420652E-01  0.000000E+00
  8.905020E-01  2.201737E-02  5.000000E-01  8.994952E-01  2.217026E-02  0.000000E+00  9.467006E-03 -1.096822E-03 -1.168080E-18 -2.457482E-01  0.000000E+00
  8.801320E-01  2.312812E-02  5.000000E-01  8.890204E-01  2.329222E-02  0.000000E+00  9.514285E-03 -9.351761E-04 -8.649736E-19 -2.412540E-01  0.000000E+00
  8.691700E-01  2.410838E-02  5.000000E-01  8.779477E-01  2.428239E-02  0.000000E+00  9.304811E-03 -7.537058E-04 -6.516898E-19 -2.277437E-01  0.000000E+00
  8.691700E-01  2.410838E-02  5.000000E-01  8.779477E-01  2.428239E-02  0.000000E+00  9.304811E-03 -7.537058E-04 -6.516898E-19 -2.277437E-01  0.000000E+00
  8.576080E-01  2.494414E-02  5.000000E-01  8.662690E-01  2.512658E-02  0.000000E+00  8.803647E-03 -5.698375E-04 -4.458334E-19 -2.049486E-01  0.000000E+00
  8.454380E-01  2.563329E-02  5.000000E-01  8.539761E-01  2.582269E-02  0.000000E+00  8.005477E-03 -4.058779E-04 -1.080590E-18 -1.734964E-01  0.000000E+00
  8.326580E-01  2.619693E-02  5.000000E-01  8.410670E-01  2.639202E-02  0.000000E+00  6.946541E-03 -2.839815E-04 -7.996258E-19 -1.352066E-01  0.000000E+00
  8.192630E-01  2.669576E-02  5.000000E-01  8.275367E-01  2.689590E-02  0.000000E+00  5.707547E-03 -2.192415E-04  1.029628E-18 -9.384441E-02  0.000000E+00
  8.052550E-01  2.725780E-02  5.000000E-01  8.133872E-01  2.746360E-02  0.000000E+00  4.406457E-03 -2.115485E-04  1.271181E-18 -5.713988E-02  0.000000E+00
  7.906370E-01  2.810919E-02  5.000000E-01  7.986216E-01  2.832360E-02  0.000000E+00  3.189806E-03 -2.391552E-04  1.176468E-18 -3.694898E-02  0.000000E+00
  7.754120E-01  2.959625E-02  5.000000E-01  7.832429E-01  2.982567E-02  0.000000E+00  2.223127E-03 -2.674125E-04  1.958883E-18 -3.961716E-02  0.000000E+00
  7.595880E-01  3.202507E-02  5.000000E-01  7.672591E-01  3.227903E-02  0.000000E+00  1.656867E-03 -2.918453E-04  1.851038E-18 -5.902598E-02  0.000000E+00
  7.431760E-01  3.542929E-02  5.000000E-01  7.506813E-01  3.571763E-02  0.000000E+00  1.601161E-03 -3.698293E-04  1.904143E-18 -9.416392E-02  0.000000E+00
  7.261880E-01  3.972084E-02  5.000000E-01  7.335218E-01  4.005251E-02  0.000000E+00  2.174318E-03 -5.923610E-04  3.024790E-18 -1.646388E-01  0.000000E+00
  7.086430E-01  4.466868E-02  5.000000E-01  7.157996E-01  4.505032E-02  0.000000E+00  3.576320E-03 -1.028749E-03  2.852990E-18 -2.984648E-01  0.000000E+00
  6.905640E-01  4.985446E-02  5.000000E-01  6.975380E-01  5.028847E-02  0.000000E+00  6.041032E-03 -1.627215E-03 -9.045747E-19 -4.917375E-01  0.000000E+00
  6.719770E-01  5.465569E-02  5.000000E-01  6.787633E-01  5.513819E-02  0.000000E+00  9.505882E-03 -2.058018E-03 -2.022392E-18 -6.717127E-01  0.000000E+00
  6.529150E-01  5.829161E-02  5.000000E-01  6.595088E-01  5.881083E-02  0.000000E+00  1.314541E-02 -1.878051E-03  3.262460E-19 -7.488264E-01  0.000000E+00
  6.334180E-01  6.037854E-02  5.000000E-01  6.398149E-01  6.091884E-02  0.000000E+00  1.550023E-02 -1.140810E-03  6.231689E-19 -7.090753E-01  0.000000E+00
  6.135280E-01  6.123439E-02  5.000000E-01  6.197240E-01  6.178332E-02  0.000000E+00  1.560783E-02 -3.829092E-04  2.159780E-19 -5.919212E-01  0.000000E+00
  5.932910E-01  6.133293E-02  5.000000E-01  5.992826E-01  6.188287E-02  0.000000E+00  1.371279E-02 -1.436755E-05  4.483433E-19 -4.443534E-01  0.000000E+00
  5.727570E-01  6.125334E-02  5.000000E-01  5.785413E-01  6.180247E-02  0.000000E+00  1.078256E-02 -7.437447E-05  1.209620E-18 -3.231614E-01  0.000000E+00
  5.519810E-01  6.167193E-02  5.000000E-01  5.575554E-01  6.222528E-02  0.000000E+00  7.823661E-03 -3.323079E-04  8.162571E-19 -2.713809E-01  0.000000E+00
  5.310180E-01  6.321525E-02  5.000000E-01  5.363807E-01  6.378419E-02  0.000000E+00  5.553991E-03 -5.265779E-04 -9.346554E-19 -2.866473E-01  0.000000E+00
  5.099250E-01  6.584866E-02  5.000000E-01  5.150747E-01  6.644420E-02  0.000000E+00  4.335356E-03 -6.158415E-04 -4.150069E-19 -3.491400E-01  0.000000E+00
  4.887640E-01  6.927748E-02  5.000000E-01  4.937000E-01  6.990764E-02  0.000000E+00  4.262308E-03 -7.365765E-04 -1.290990E-18 -4.536299E-01  0.000000E+00
  4.675910E-01  7.314057E-02  5.000000E-01  4.723132E-01  7.380975E-02  0.000000E+00  5.328301E-03 -9.751217E-04 -1.668917E-18 -5.954399E-01  0.000000E+00
  7.860720E-05 -3.612411E-04  5.000000E-01  7.940613E-05 -4.343566E-04  0.000000E+00 -1.192955E-02  3.382976E-02 -4.686317E-15  9.095078E-01  0.000000E+00
  3.989240E-04 -8.631505E-04  5.000000E-01  4.029578E-04 -9.413348E-04  0.000000E+00 -8.188574E-03  1.167478E-02 -3.855557E-15  1.119830E+00  0.000000E+00
  1.196920E-03 -1.472484E-03  5.000000E-01  1.209013E-03 -1.556822E-03  0.000000E+00  1.104695E-03 -1.972879E-05 -2.440982E-15  1.025190E+00  0.000000E+00
  2.563580E-03 -2.116302E-03  5.000000E-01  2.589475E-03 -2.207141E-03  0.000000E+00  7.937536E-03 -3.084416E-03 -1.045624E-15  8.530006E-01  0.000000E+00
  4.492740E-03 -2.764895E-03  5.000000E-01  4.538117E-03 -2.862284E-03  0.000000E+00  1.117717E-02 -3.337926E-03 -1.250340E-16  7.360510E-01  0.000000E+00
  6.952190E-03 -3.419301E-03  5.000000E-01  7.022405E-03 -3.523299E-03  0.000000E+00  1.252259E-02 -3.100458E-03  2.271923E-16  6.603059E-01  0.000000E+00
  9.910730E-03 -4.100983E-03  5.000000E-01  1.001082E-02 -4.211866E-03  0.000000E+00  1.316313E-02 -2.916814E-03  2.228824E-16  5.993896E-01  0.000000E+00
  1.334950E-02 -4.834430E-03  5.000000E-01  1.348432E-02 -4.952720E-03  0.000000E+00  1.358341E-02 -2.771321E-03  1.101309E-16  5.380570E-01  0.000000E+00
  1.728780E-02 -5.603864E-03  5.000000E-01  1.746239E-02 -5.729924E-03  0.000000E+00  1.388768E-02 -2.541720E-03  2.289174E-17  4.712173E-01  0.000000E+00
  2.175590E-02 -6.367454E-03  5.000000E-01  2.197562E-02 -6.501226E-03  0.000000E+00  1.406998E-02 -2.218831E-03 -1.158357E-17  4.081828E-01  0.000000E+00
  2.676920E-02 -7.091224E-03  5.000000E-01  2.703955E-02 -7.232306E-03  0.000000E+00  1.415146E-02 -1.876983E-03 -1.382250E-17  3.590052E-01  0.000000E+00
  3.232800E-02 -7.762508E-03  5.000000E-01  3.265448E-02 -7.910368E-03  0.000000E+00  1.417293E-02 -1.576629E-03 -7.558450E-18  3.245528E-01  0.000000E+00
  3.842930E-02 -8.383226E-03  5.000000E-01  3.881740E-02 -8.537356E-03  0.000000E+00  1.416405E-02 -1.337809E-03 -2.581297E-18  2.995330E-01  0.000000E+00
  4.507220E-02 -8.962374E-03  5.000000E-01  4.552739E-02 -9.122352E-03  0.000000E+00  1.415556E-02 -1.170762E-03 -4.103987E-20  2.800339E-01  0.000000E+00
  5.225680E-02 -9.523925E-03  5.000000E-01  5.278454E-02 -9.689574E-03  0.000000E+00  1.418537E-02 -1.077675E-03  9.894884E-20  2.638025E-01  0.000000E+00
  5.998640E-02 -1.009457E-02  5.000000E-01  6.059221E-02 -1.026598E-02  0.000000E+00  1.426278E-02 -1.024750E-03 -3.553393E-20  2.458929E-01  0.000000E+00
  6.827110E-02 -1.067448E-02  5.000000E-01  6.896057E-02 -1.085175E-02  0.000000E+00  1.436398E-02 -9.713469E-04 -1.649417E-19  2.234415E-01  0.000000E+00
  7.712280E-02 -1.125218E-02  5.000000E-01  7.790167E-02 -1.143528E-02  0.000000E+00  1.446611E-02 -9.058675E-04  1.395279E-19  1.990779E-01  0.000000E+00
  8.655260E-02 -1.181737E-02  5.000000E-01  8.742670E-02 -1.200618E-02  0.000000E+00  1.455386E-02 -8.262706E-04  8.018061E-19  1.752886E-01  0.000000E+00
  9.657140E-02 -1.235478E-02  5.000000E-01  9.754668E-02 -1.254901E-02  0.000000E+00  1.460792E-02 -7.216583E-04  5.867129E-19  1.518254E-01  0.000000E+00
  1.071900E-01 -1.283487E-02  5.000000E-01  1.082725E-01 -1.303395E-02  0.000000E+00  1.461543E-02 -5.886159E-04  3.360454E-19  1.292063E-01  0.000000E+00
  1.184180E-01 -1.323116E-02  5.000000E-01  1.196139E-01 -1.343424E-02  0.000000E+00  1.458621E-02 -4.431705E-04 -2.946153E-19  1.099603E-01  0.000000E+00
  1.302610E-01 -1.353214E-02  5.000000E-01  1.315765E-01 -1.373827E-02  0.000000E+00  1.453800E-02 -3.008801E-04 -1.494930E-19  9.481596E-02  0.000000E+00
  1.427230E-01 -1.373095E-02  5.000000E-01  1.441644E-01 -1.393909E-02  0.000000E+00  1.447307E-02 -1.651440E-04 -9.219542E-20  8.238255E-02  0.000000E+00
  1.427230E-01 -1.373095E-02  5.000000E-01  1.441644E-01 -1.393909E-02  0.000000E+00  1.447307E-02 -1.651440E-04 -9.219542E-20  8.238255E-02  0.000000E+00
  1.558070E-01 -1.382079E-02  5.000000E-01  1.573805E-01 -1.402983E-02  0.000000E+00  1.436692E-02 -2.671218E-05 -4.044594E-19  7.101506E-02  0.000000E+00
  1.695140E-01 -1.377763E-02  5.000000E-01  1.712259E-01 -1.398624E-02  0.000000E+00  1.417447E-02  1.293236E-04 -1.313376E-19  6.032564E-02  0.000000E+00
  1.838420E-01 -1.356011E-02  5.000000E-01  1.856986E-01 -1.376652E-02  0.000000E+00  1.385442E-02  3.077543E-04  3.238700E-19  5.240506E-02  0.000000E+00
  1.987870E-01 -1.312001E-02  5.000000E-01  2.007945E-01 -1.332197E-02  0.000000E+00  1.339186E-02  4.968456E-04  5.859884E-19  5.044645E-02  0.000000E+00
  2.143420E-01 -1.241843E-02  5.000000E-01  2.165066E-01 -1.261331E-02  0.000000E+00  1.281133E-02  6.678914E-04  2.285530E-20  5.744194E-02  0.000000E+00
  2.304940E-01 -1.145592E-02  5.000000E-01  2.328218E-01 -1.164108E-02  0.000000E+00  1.216762E-02  7.900667E-04  5.337286E-19  7.424325E-02  0.000000E+00
  2.472290E-01 -1.027420E-02  5.000000E-01  2.497258E-01 -1.044743E-02  0.000000E+00  1.151705E-02  8.525210E-04  4.423825E-19  9.793872E-02  0.000000E+00
  2.645310E-01 -8.931766E-03  5.000000E-01  2.672025E-01 -9.091435E-03  0.000000E+00  1.089704E-02  8.681730E-04  3.760651E-21  1.235388E-01  0.000000E+00
  2.823750E-01 -7.472387E-03  5.000000E-01  2.852267E-01 -7.617318E-03  0.000000E+00  1.033033E-02  8.556287E-04  4.446696E-19  1.477483E-01  0.000000E+00
  3.007320E-01 -5.932236E-03  5.000000E-01  3.037691E-01 -6.061613E-03  0.000000E+00  9.840809E-03  8.196942E-04  4.668532E-19  1.708769E-01  0.000000E+00
  3.195690E-01 -4.373602E-03  5.000000E-01  3.227963E-01 -4.487238E-03  0.000000E+00  9.453528E-03  7.550953E-04  5.066838E-19  1.941000E-01  0.000000E+00
  3.388440E-01 -2.890373E-03  5.000000E-01  3.422660E-01 -2.989030E-03  0.000000E+00  9.173712E-03  6.670910E-04  5.475276E-19  2.152314E-01  0.000000E+00
  3.585140E-01 -1.547524E-03  5.000000E-01  3.621346E-01 -1.632620E-03  0.000000E+00  8.977500E-03  5.744621E-04  6.865723E-19  2.301918E-01  0.000000E+00
  3.785290E-01 -3.557244E-04  5.000000E-01  3.823518E-01 -4.287842E-04  0.000000E+00  8.836538E-03  4.877399E-04  2.485232E-19  2.391368E-01  0.000000E+00
  3.988350E-01  6.766684E-04  5.000000E-01  4.028628E-01  6.140347E-04  0.000000E+00  8.741266E-03  4.053880E-04  1.340218E-19  2.454201E-01  0.000000E+00
  4.193750E-01  1.537507E-03  5.000000E-01  4.236103E-01  1.483567E-03  0.000000E+00  8.701108E-03  3.275225E-04  2.481861E-19  2.501560E-01  0.000000E+00
  4.400850E-01  2.228092E-03  5.000000E-01  4.445294E-01  2.181126E-03  0.000000E+00  8.741835E-03  2.513093E-04  2.506994E-19  2.529551E-01  0.000000E+00
  4.609060E-01  2.732381E-03  5.000000E-01  4.655607E-01  2.690507E-03  0.000000E+00  8.900227E-03  1.597526E-04 -1.402481E-19  2.542383E-01  0.000000E+00
  4.818030E-01  2.981787E-03  5.000000E-01  4.866687E-01  2.942433E-03  0.000000E+00  9.199084E-03  3.233926E-05 -4.050884E-19  2.534548E-01  0.000000E+00
  5.027520E-01  2.886538E-03  5.000000E-01  5.078293E-01  2.846221E-03  0.000000E+00  9.607801E-03 -1.197671E-04 -1.699712E-19  2.459991E-01  0.000000E+00
  5.237130E-01  2.463326E-03  5.000000E-01  5.290020E-01  2.418735E-03  0.000000E+00  1.002891E-02 -2.389185E-04 -9.273875E-19  2.261517E-01  0.000000E+00
  5.446170E-01  1.887213E-03  5.000000E-01  5.501171E-01  1.836804E-03  0.000000E+00  1.034178E-02 -2.665258E-04 -9.459120E-19  1.954237E-01  0.000000E+00
  5.653940E-01  1.388886E-03  5.000000E-01  5.711039E-01  1.333445E-03  0.000000E+00  1.048319E-02 -2.094582E-04  1.852729E-19  1.664597E-01  0.000000E+00
  4.675910E-01  7.314057E-02  5.000000E-01  4.723132E-01  7.380975E-02  0.000000E+00  5.328301E-03 -9.751217E-04 -1.668917E-18 -5.954399E-01  0.000000E+00
  4.464640E-01  7.702261E-02  5.000000E-01  4.509728E-01  7.773099E-02  0.000000E+00  7.483628E-03 -1.298098E-03  6.385733E-19 -7.717256E-01  0.000000E+00
  4.254410E-01  8.051203E-02  5.000000E-01  4.297375E-01  8.125566E-02  0.000000E+00  1.063944E-02 -1.579330E-03  4.540927E-19 -9.888587E-01  0.000000E+00
  4.045840E-01  8.332882E-02  5.000000E-01  4.086699E-01  8.410089E-02  0.000000E+00  1.467364E-02 -1.649270E-03 -1.401343E-18 -1.245138E+00  0.000000E+00
  3.839530E-01  8.528875E-02  5.000000E-01  3.878305E-01  8.608061E-02  0.000000E+00  1.936096E-02 -1.303437E-03 -1.494664E-18 -1.498528E+00  0.000000E+00
  3.636060E-01  8.622555E-02  5.000000E-01  3.672781E-01  8.702687E-02  0.000000E+00  2.422806E-02 -3.391761E-04 -2.907373E-19 -1.670443E+00  0.000000E+00
  3.435960E-01  8.599912E-02  5.000000E-01  3.470660E-01  8.679815E-02  0.000000E+00  2.844193E-02  1.320336E-03  6.015897E-20 -1.690152E+00  0.000000E+00
  3.239710E-01  8.450134E-02  5.000000E-01  3.272428E-01  8.528525E-02  0.000000E+00  3.092090E-02  3.343835E-03  5.983754E-19 -1.552656E+00  0.000000E+00
  3.047740E-01  8.184131E-02  5.000000E-01  3.078519E-01  8.259836E-02  0.000000E+00  3.097585E-02  4.936308E-03  1.203737E-18 -1.332024E+00  0.000000E+00
  2.860450E-01  7.844255E-02  5.000000E-01  2.889338E-01  7.916527E-02  0.000000E+00  2.902269E-02  5.600393E-03  2.561599E-19 -1.106569E+00  0.000000E+00
  2.678190E-01  7.469116E-02  5.000000E-01  2.705237E-01  7.537599E-02  0.000000E+00  2.615926E-02  5.499247E-03 -8.767466E-19 -9.118718E-01  0.000000E+00
  2.501300E-01  7.088332E-02  5.000000E-01  2.526561E-01  7.152970E-02  0.000000E+00  2.329767E-02  4.998683E-03  2.121175E-18 -7.608707E-01  0.000000E+00
  2.330040E-01  6.722148E-02  5.000000E-01  2.353571E-01  6.783088E-02  0.000000E+00  2.094811E-02  4.393029E-03  3.499383E-18 -6.574664E-01  0.000000E+00
  2.164660E-01  6.382561E-02  5.000000E-01  2.186521E-01  6.440071E-02  0.000000E+00  1.930263E-02  3.849661E-03  1.320328E-18 -6.014405E-01  0.000000E+00
  2.005340E-01  6.074688E-02  5.000000E-01  2.025592E-01  6.129090E-02  0.000000E+00  1.838939E-02  3.475271E-03  1.307457E-19 -5.824257E-01  0.000000E+00
  1.852230E-01  5.792246E-02  5.000000E-01  1.870936E-01  5.843795E-02  0.000000E+00  1.813879E-02  3.325398E-03 -8.776413E-20 -5.831909E-01  0.000000E+00
  1.705440E-01  5.525003E-02  5.000000E-01  1.722663E-01  5.573853E-02  0.000000E+00  1.838809E-02  3.368202E-03 -8.458754E-19 -5.941647E-01  0.000000E+00
  1.565000E-01  5.266215E-02  5.000000E-01  1.580805E-01  5.312451E-02  0.000000E+00  1.894817E-02  3.542145E-03 -1.731166E-18 -6.142592E-01  0.000000E+00
  1.430940E-01  5.011981E-02  5.000000E-01  1.445391E-01  5.055651E-02  0.000000E+00  1.967863E-02  3.821694E-03 -1.507798E-18 -6.422114E-01  0.000000E+00
  1.303270E-01  4.758360E-02  5.000000E-01  1.316432E-01  4.799468E-02  0.000000E+00  2.049566E-02  4.227792E-03 -7.362623E-19 -6.691432E-01  0.000000E+00
  1.182110E-01  4.499654E-02  5.000000E-01  1.194048E-01  4.538149E-02  0.000000E+00  2.131361E-02  4.767437E-03 -5.241474E-19 -6.820926E-01  0.000000E+00
  1.067560E-01  4.232472E-02  5.000000E-01  1.078341E-01  4.268269E-02  0.000000E+00  2.200866E-02  5.390845E-03 -3.530685E-19 -6.723652E-01  0.000000E+00
  9.596750E-02  3.956088E-02  5.000000E-01  9.693668E-02  3.989093E-02  0.000000E+00  2.244588E-02  5.976709E-03  4.090344E-19 -6.456121E-01  0.000000E+00
  8.582800E-02  3.675810E-02  5.000000E-01  8.669478E-02  3.705985E-02  0.000000E+00  2.258294E-02  6.418444E-03  8.289767E-21 -6.172084E-01  0.000000E+00
  8.582800E-02  3.675810E-02  5.000000E-01  8.669478E-02  3.705985E-02  0.000000E+00  2.258294E-02  6.418444E-03  8.289767E-21 -6.172084E-01  0.000000E+00
  7.631050E-02  3.397763E-02  5.000000E-01  7.708116E-02  3.425130E-02  0.000000E+00  2.252775E-02  6.767713E-03 -3.302447E-19 -5.907200E-01  0.000000E+00
  6.740780E-02  3.122969E-02  5.000000E-01  6.808855E-02  3.147561E-02  0.000000E+00  2.240951E-02  7.126214E-03  1.138695E-19 -5.609192E-01  0.000000E+00
  5.911740E-02  2.851591E-02  5.000000E-01  5.971443E-02  2.873442E-02  0.000000E+00  2.227719E-02  7.508772E-03 -8.223320E-20 -5.263168E-01  0.000000E+00
  5.143150E-02  2.585032E-02  5.000000E-01  5.195091E-02  2.604191E-02  0.000000E+00  2.212672E-02  7.887833E-03  1.484098E-18 -4.880161E-01  0.000000E+00
  4.433770E-02  2.325257E-02  5.000000E-01  4.478547E-02  2.341793E-02  0.000000E+00  2.194016E-02  8.244188E-03  1.747053E-18 -4.482442E-01  0.000000E+00
  3.782240E-02  2.074157E-02  5.000000E-01  3.820437E-02  2.088157E-02  0.000000E+00  2.170921E-02  8.579916E-03  2.535797E-20 -4.103009E-01  0.000000E+00
  3.187460E-02  1.833108E-02  5.000000E-01  3.219651E-02  1.844674E-02  0.000000E+00  2.144825E-02  8.915361E-03  2.011567E-19 -3.774201E-01  0.000000E+00
  2.648400E-02  1.603279E-02  5.000000E-01  2.675147E-02  1.612524E-02  0.000000E+00  2.118808E-02  9.303168E-03  1.939461E-18 -3.458450E-01  0.000000E+00
  2.164990E-02  1.384900E-02  5.000000E-01  2.186855E-02  1.391939E-02  0.000000E+00  2.091082E-02  9.786763E-03  1.148696E-17 -3.023828E-01  0.000000E+00
  1.737670E-02  1.178035E-02  5.000000E-01  1.755219E-02  1.182985E-02  0.000000E+00  2.049670E-02  1.026073E-02  3.646269E-17 -2.421408E-01  0.000000E+00
  1.364080E-02  9.847208E-03  5.000000E-01  1.377856E-02  9.877187E-03  0.000000E+00  1.983725E-02  1.051794E-02  8.438683E-17 -1.803078E-01  0.000000E+00
  1.039090E-02  8.079668E-03  5.000000E-01  1.049584E-02  8.091797E-03  0.000000E+00  1.899939E-02  1.053512E-02  1.512082E-16 -1.364430E-01  0.000000E+00
  7.586340E-03  6.492686E-03  5.000000E-01  7.662959E-03  6.488788E-03  0.000000E+00  1.822387E-02  1.061188E-02  1.989334E-16 -1.147536E-01  0.000000E+00
  5.226210E-03  5.078317E-03  5.000000E-01  5.278994E-03  5.060135E-03  0.000000E+00  1.782443E-02  1.120907E-02  1.414559E-16 -1.098596E-01  0.000000E+00
  3.324300E-03  3.824690E-03  5.000000E-01  3.357877E-03  3.793848E-03  0.000000E+00  1.817021E-02  1.290507E-02 -1.418925E-16 -1.188490E-01  0.000000E+00
  1.883580E-03  2.729750E-03  5.000000E-01  1.902607E-03  2.687850E-03  0.000000E+00  1.950181E-02  1.667478E-02 -7.376313E-16 -1.229282E-01  0.000000E+00
  8.951490E-04  1.799856E-03  5.000000E-01  9.041942E-04  1.748565E-03  0.000000E+00  2.095653E-02  2.366717E-02 -1.610498E-15 -6.790010E-02  0.000000E+00
  3.201820E-04  1.051273E-03  5.000000E-01  3.234206E-04  9.924224E-04  0.000000E+00  1.951700E-02  3.310694E-02 -2.585218E-15  1.044267E-01  0.000000E+00
  6.852390E-05  5.051897E-04  5.000000E-01  6.922100E-05  4.408242E-04  0.000000E+00  1.299950E-02  3.997425E-02 -3.447656E-15  3.365716E-01  0.000000E+00
  4.217600E-06  1.773684E-04  5.000000E-01  4.265277E-06  1.096923E-04  0.000000E+00  5.000252E-03  4.214555E-02 -4.025174E-15  4.189033E-01  0.000000E+00
 -5.032520E-09  6.877283E-05  5.000000E-01  0.000000E+00  0.000000E+00  0.000000E+00 -9.525223E-04  4.935871E-02 -4.386166E-15  3.675209E-01  0.000000E+00
  5.154440E-06 -4.007099E-05  5.000000E-01  5.211578E-06 -1.099430E-04  0.000000E+00 -7.181769E-03  5.162243E-02 -4.713891E-15  5.241590E-01  0.000000E+00