 Title = "ADflow Slice Data"
Variables =  "CoordinateX"  "CoordinateY"  "CoordinateZ"  "XoC"  "YoC"  "ZoC" "VelocityX" "VelocityY" "VelocityZ" "CoefPressure" "Mach" 
Zone T= "Slice_0001 None Absolute Regular z = 0.50000000"
 Nodes =          192  Elements=          184  ZONETYPE=FELINESEG
 DATAPACKING=POINT
  5.653940E-01  1.095478E-03  5.000000E-01  5.711039E-01  1.046142E-03  0.000000E+00  8.712388E-03  7.976223E-04 -8.464575E-19  1.816083E-01  0.000000E+00
  5.859770E-01  3.046817E-03  5.000000E-01  5.918948E-01  3.017187E-03  0.000000E+00  8.250310E-03  8.000582E-04  9.158386E-20  1.990018E-01  0.000000E+00
  6.063060E-01  5.065816E-03  5.000000E-01  6.124291E-01  5.056577E-03  0.000000E+00  7.789502E-03  7.783653E-04 -2.828999E-19  2.228717E-01  0.000000E+00
  6.263240E-01  7.078219E-03  5.000000E-01  6.326493E-01  7.089302E-03  0.000000E+00  7.380324E-03  7.277459E-04 -9.375035E-19  2.488356E-01  0.000000E+00
  6.459860E-01  8.977141E-03  5.000000E-01  6.525098E-01  9.007402E-03  0.000000E+00  7.059752E-03  6.508030E-04 -9.295524E-19  2.737041E-01  0.000000E+00
  6.652460E-01  1.066427E-02  5.000000E-01  6.719643E-01  1.071157E-02  0.000000E+00  6.835122E-03  5.607497E-04 -1.577289E-19  2.943496E-01  0.000000E+00
  6.840650E-01  1.209815E-02  5.000000E-01  6.909734E-01  1.215993E-02  0.000000E+00  6.681373E-03  4.768367E-04  9.350834E-19  3.082366E-01  0.000000E+00
  7.024070E-01  1.331532E-02  5.000000E-01  7.095006E-01  1.338939E-02  0.000000E+00  6.562123E-03  4.078151E-04  1.192729E-18  3.168988E-01  0.000000E+00
  7.202400E-01  1.434869E-02  5.000000E-01  7.275137E-01  1.443320E-02  0.000000E+00  6.452265E-03  3.486703E-04  1.423717E-18  3.244546E-01  0.000000E+00
  7.375350E-01  1.521573E-02  5.000000E-01  7.449834E-01  1.530900E-02  0.000000E+00  6.341398E-03  2.935870E-04  1.387356E-18  3.326238E-01  0.000000E+00
  7.542690E-01  1.592543E-02  5.000000E-01  7.618864E-01  1.602586E-02  0.000000E+00  6.231767E-03  2.395708E-04  6.972966E-19  3.411443E-01  0.000000E+00
  7.704220E-01  1.648055E-02  5.000000E-01  7.782025E-01  1.658659E-02  0.000000E+00  6.136150E-03  1.845727E-04 -3.001280E-19  3.491908E-01  0.000000E+00
  7.859770E-01  1.688069E-02  5.000000E-01  7.939146E-01  1.699076E-02  0.000000E+00  6.077782E-03  1.208561E-04 -7.055308E-19  3.569388E-01  0.000000E+00
  8.009220E-01  1.709202E-02  5.000000E-01  8.090105E-01  1.720424E-02  0.000000E+00  6.085081E-03  3.810386E-05 -7.942014E-19  3.647753E-01  0.000000E+00
  8.152480E-01  1.706956E-02  5.000000E-01  8.234812E-01  1.718154E-02  0.000000E+00  6.171906E-03 -6.028234E-05 -4.982426E-19  3.698637E-01  0.000000E+00
  8.289490E-01  1.682352E-02  5.000000E-01  8.373206E-01  1.693302E-02  0.000000E+00  6.328332E-03 -1.617840E-04 -2.399313E-19  3.695074E-01  0.000000E+00
  8.420260E-01  1.639215E-02  5.000000E-01  8.505297E-01  1.649730E-02  0.000000E+00  6.532916E-03 -2.593128E-04 -6.166092E-19  3.648997E-01  0.000000E+00
  8.544790E-01  1.581761E-02  5.000000E-01  8.631084E-01  1.591695E-02  0.000000E+00  6.763179E-03 -3.501645E-04 -1.242462E-18  3.581343E-01  0.000000E+00
  8.663160E-01  1.514053E-02  5.000000E-01  8.750650E-01  1.523303E-02  0.000000E+00  6.998022E-03 -4.325200E-04 -1.542770E-18  3.503069E-01  0.000000E+00
  8.775420E-01  1.439671E-02  5.000000E-01  8.864043E-01  1.448171E-02  0.000000E+00  7.219135E-03 -5.044990E-04 -1.907016E-18  3.419884E-01  0.000000E+00
  8.881660E-01  1.361677E-02  5.000000E-01  8.971356E-01  1.369389E-02  0.000000E+00  7.413492E-03 -5.647065E-04 -2.128783E-18  3.336213E-01  0.000000E+00
  8.981970E-01  1.282558E-02  5.000000E-01  9.072679E-01  1.289471E-02  0.000000E+00  7.576763E-03 -6.156305E-04 -9.184230E-19  3.258242E-01  0.000000E+00
  9.076460E-01  1.203613E-02  5.000000E-01  9.168124E-01  1.209728E-02  0.000000E+00  7.716025E-03 -6.652412E-04  3.247555E-19  3.193921E-01  0.000000E+00
  9.165220E-01  1.124787E-02  5.000000E-01  9.257780E-01  1.130106E-02  0.000000E+00  7.845392E-03 -7.202402E-04  6.563962E-19  3.141106E-01  0.000000E+00
  9.165220E-01  1.124787E-02  5.000000E-01  9.257780E-01  1.130106E-02  0.000000E+00  7.845392E-03 -7.202402E-04  6.563962E-19  3.141106E-01  0.000000E+00
  9.248360E-01  1.045991E-02  5.000000E-01  9.341760E-01  1.050515E-02  0.000000E+00  7.977684E-03 -7.820595E-04  5.039772E-19  3.088707E-01  0.000000E+00
  9.325990E-01  9.673886E-03  5.000000E-01  9.420174E-01  9.711184E-03  0.000000E+00  8.121851E-03 -8.505794E-04  2.962074E-19  3.030801E-01  0.000000E+00
  9.398210E-01  8.892898E-03  5.000000E-01  9.493123E-01  8.922309E-03  0.000000E+00  8.284329E-03 -9.258416E-04  3.035686E-19  2.966422E-01  0.000000E+00
  9.465130E-01  8.121292E-03  5.000000E-01  9.560719E-01  8.142909E-03  0.000000E+00  8.469671E-03 -1.007851E-03  1.574030E-19  2.894814E-01  0.000000E+00
  9.526870E-01  7.364320E-03  5.000000E-01  9.623082E-01  7.378293E-03  0.000000E+00  8.680543E-03 -1.096530E-03  1.422774E-19  2.814969E-01  0.000000E+00
  9.583540E-01  6.627933E-03  5.000000E-01  9.680325E-01  6.634470E-03  0.000000E+00  8.918145E-03 -1.191693E-03  2.244403E-19  2.726227E-01  0.000000E+00
  9.635240E-01  5.918549E-03  5.000000E-01  9.732547E-01  5.917921E-03  0.000000E+00  9.183050E-03 -1.292923E-03 -1.256207E-19  2.628054E-01  0.000000E+00
  9.682080E-01  5.242767E-03  5.000000E-01  9.779860E-01  5.235314E-03  0.000000E+00  9.477153E-03 -1.400132E-03 -5.962643E-19  2.520665E-01  0.000000E+00
  9.724140E-01  4.607278E-03  5.000000E-01  9.822344E-01  4.593407E-03  0.000000E+00  9.806205E-03 -1.513718E-03 -8.803441E-19  2.404677E-01  0.000000E+00
  9.761510E-01  4.018601E-03  5.000000E-01  9.860092E-01  3.998785E-03  0.000000E+00  1.017980E-02 -1.634169E-03 -1.267485E-18  2.280277E-01  0.000000E+00
  9.794290E-01  3.482870E-03  5.000000E-01  9.893203E-01  3.457644E-03  0.000000E+00  1.060376E-02 -1.762011E-03 -1.662223E-18  2.148095E-01  0.000000E+00
  9.822540E-01  3.005921E-03  5.000000E-01  9.921738E-01  2.975879E-03  0.000000E+00  1.106078E-02 -1.894794E-03 -8.819801E-19  2.011149E-01  0.000000E+00
  9.846330E-01  2.592964E-03  5.000000E-01  9.945768E-01  2.558751E-03  0.000000E+00  1.148987E-02 -2.019440E-03  8.357860E-19  1.882199E-01  0.000000E+00
  9.865710E-01  2.248595E-03  5.000000E-01  9.965344E-01  2.210904E-03  0.000000E+00  1.174718E-02 -2.098109E-03  2.070477E-18  1.749715E-01  0.000000E+00
  9.880740E-01  1.976626E-03  5.000000E-01  9.980526E-01  1.936189E-03  0.000000E+00  1.160571E-02 -2.118140E-03 -2.544373E-18  1.553650E-01  0.000000E+00
  9.891450E-01  1.780131E-03  5.000000E-01  9.991344E-01  1.737709E-03  0.000000E+00  1.173477E-02 -2.243061E-03 -2.570698E-17  1.566024E-01  0.000000E+00
  9.897860E-01  1.661353E-03  5.000000E-01  9.997819E-01  1.617732E-03  0.000000E+00  1.496765E-02 -2.301784E-03 -7.245626E-17  2.029920E-01  0.000000E+00
  9.900000E-01  1.621600E-03  5.000000E-01  9.999980E-01  1.577577E-03  0.000000E+00  1.041284E-02 -4.723028E-03 -7.662761E-17 -3.835487E-02  0.000000E+00
  9.900000E-01  1.700310E-03  5.000000E-01  9.999980E-01  1.657082E-03  0.000000E+00  1.042632E-03 -1.500045E-02  5.833561E-18 -1.736014E-01  0.000000E+00
  9.900000E-01  1.779030E-03  5.000000E-01  9.999980E-01  1.736597E-03  0.000000E+00 -5.223806E-04 -1.425470E-02  8.670707E-17 -3.097548E-04  0.000000E+00
  9.900000E-01  1.857750E-03  5.000000E-01  9.999980E-01  1.816112E-03  0.000000E+00 -2.777302E-04  1.561499E-03  1.042917E-16 -5.312079E-03  0.000000E+00
  9.900000E-01  1.936460E-03  5.000000E-01  9.999980E-01  1.895617E-03  0.000000E+00  6.694292E-04  3.177252E-03  1.295667E-16 -1.158741E-01  0.000000E+00
  9.900000E-01  2.015180E-03  5.000000E-01  9.999980E-01  1.975132E-03  0.000000E+00  5.451315E-03 -2.688654E-03  1.624182E-16 -2.710093E-02  0.000000E+00
  9.900000E-01  2.015180E-03  5.000000E-01  9.999980E-01  1.975132E-03  0.000000E+00  5.451315E-03 -2.688654E-03  1.624182E-16 -2.710093E-02  0.000000E+00
  9.897900E-01  2.064684E-03  5.000000E-01  9.997859E-01  2.025136E-03  0.000000E+00  7.022269E-03 -1.965740E-03  1.159280E-16  1.051788E-01  0.000000E+00
  9.891580E-01  2.213291E-03  5.000000E-01  9.991475E-01  2.175244E-03  0.000000E+00  4.208466E-03 -9.322322E-04  3.951794E-17  6.545526E-02  0.000000E+00
  9.881040E-01  2.461135E-03  5.000000E-01  9.980829E-01  2.425591E-03  0.000000E+00  3.401587E-03 -7.981766E-04  4.371927E-18  5.662030E-02  0.000000E+00
  9.866260E-01  2.808475E-03  5.000000E-01  9.965900E-01  2.776438E-03  0.000000E+00  3.144904E-03 -7.441777E-04 -3.353256E-18  5.884703E-02  0.000000E+00
  9.847200E-01  3.255682E-03  5.000000E-01  9.946647E-01  3.228162E-03  0.000000E+00  3.006409E-03 -7.043341E-04 -2.551242E-18  5.440228E-02  0.000000E+00
  9.823820E-01  3.803148E-03  5.000000E-01  9.923031E-01  3.781157E-03  0.000000E+00  3.007087E-03 -7.027535E-04 -1.096125E-18  4.716477E-02  0.000000E+00
  9.796080E-01  4.451241E-03  5.000000E-01  9.895011E-01  4.435794E-03  0.000000E+00  3.123548E-03 -7.285722E-04 -2.991715E-19  3.906013E-02  0.000000E+00
  9.763910E-01  5.200355E-03  5.000000E-01  9.862516E-01  5.192474E-03  0.000000E+00  3.313389E-03 -7.702407E-04  1.283389E-19  2.958241E-02  0.000000E+00
  9.727270E-01  6.050607E-03  5.000000E-01  9.825506E-01  6.051313E-03  0.000000E+00  3.548638E-03 -8.214272E-04  3.297748E-19  1.854426E-02  0.000000E+00
  9.686070E-01  7.002125E-03  5.000000E-01  9.783890E-01  7.012440E-03  0.000000E+00  3.813680E-03 -8.781968E-04  4.484245E-19  6.074325E-03  0.000000E+00
  9.640240E-01  8.054624E-03  5.000000E-01  9.737597E-01  8.075569E-03  0.000000E+00  4.101284E-03 -9.384125E-04  5.305764E-19 -7.775783E-03  0.000000E+00
  9.589680E-01  9.207536E-03  5.000000E-01  9.686527E-01  9.240124E-03  0.000000E+00  4.409926E-03 -1.001301E-03  4.683410E-19 -2.297750E-02  0.000000E+00
  9.534310E-01  1.045971E-02  5.000000E-01  9.630597E-01  1.050494E-02  0.000000E+00  4.740695E-03 -1.066581E-03  7.068845E-19 -3.950872E-02  0.000000E+00
  9.474030E-01  1.180942E-02  5.000000E-01  9.569709E-01  1.186828E-02  0.000000E+00  5.094872E-03 -1.133675E-03  1.058207E-18 -5.726659E-02  0.000000E+00
  9.408720E-01  1.325418E-02  5.000000E-01  9.503739E-01  1.332764E-02  0.000000E+00  5.472564E-03 -1.201821E-03  1.222101E-18 -7.619164E-02  0.000000E+00
  9.338280E-01  1.479051E-02  5.000000E-01  9.432588E-01  1.487948E-02  0.000000E+00  5.872843E-03 -1.269955E-03  1.159767E-18 -9.621888E-02  0.000000E+00
  9.262600E-01  1.641388E-02  5.000000E-01  9.356143E-01  1.651925E-02  0.000000E+00  6.293605E-03 -1.336313E-03  2.386849E-19 -1.171929E-01  0.000000E+00
  9.181550E-01  1.811824E-02  5.000000E-01  9.274275E-01  1.824081E-02  0.000000E+00  6.731065E-03 -1.398738E-03 -2.380714E-19 -1.389720E-01  0.000000E+00
  9.095020E-01  1.989610E-02  5.000000E-01  9.186871E-01  2.003663E-02  0.000000E+00  7.179497E-03 -1.454492E-03 -4.615865E-19 -1.612043E-01  0.000000E+00
  9.002880E-01  2.173793E-02  5.000000E-01  9.093800E-01  2.189706E-02  0.000000E+00  7.629844E-03 -1.500330E-03  1.157556E-19 -1.831891E-01  0.000000E+00
  8.905020E-01  2.363233E-02  5.000000E-01  8.994952E-01  2.381060E-02  0.000000E+00  8.069121E-03 -1.534140E-03  3.099826E-19 -2.043426E-01  0.000000E+00
  8.801320E-01  2.556993E-02  5.000000E-01  8.890205E-01  2.576776E-02  0.000000E+00  8.483277E-03 -1.555763E-03 -1.871570E-19 -2.244667E-01  0.000000E+00
  8.691700E-01  2.754405E-02  5.000000E-01  8.779478E-01  2.776182E-02  0.000000E+00  8.860770E-03 -1.565485E-03 -7.554418E-19 -2.434403E-01  0.000000E+00
  8.691700E-01  2.754405E-02  5.000000E-01  8.779478E-01  2.776182E-02  0.000000E+00  8.860770E-03 -1.565485E-03 -7.554418E-19 -2.434403E-01  0.000000E+00
  8.576080E-01  2.954884E-02  5.000000E-01  8.662690E-01  2.978686E-02  0.000000E+00  9.193264E-03 -1.563474E-03 -2.120378E-18 -2.610225E-01  0.000000E+00
  8.454380E-01  3.157933E-02  5.000000E-01  8.539761E-01  3.183785E-02  0.000000E+00  9.474989E-03 -1.551162E-03 -1.656723E-18 -2.769632E-01  0.000000E+00
  8.326580E-01  3.363270E-02  5.000000E-01  8.410670E-01  3.391196E-02  0.000000E+00  9.703772E-03 -1.531605E-03 -1.410510E-18 -2.909294E-01  0.000000E+00
  8.192630E-01  3.571019E-02  5.000000E-01  8.275368E-01  3.601043E-02  0.000000E+00  9.882870E-03 -1.510419E-03 -8.600533E-19 -3.029996E-01  0.000000E+00
  8.052550E-01  3.782040E-02  5.000000E-01  8.133873E-01  3.814195E-02  0.000000E+00  1.002515E-02 -1.495733E-03  6.688351E-19 -3.145080E-01  0.000000E+00
  7.906370E-01  3.998047E-02  5.000000E-01  7.986217E-01  4.032383E-02  0.000000E+00  1.015833E-02 -1.495467E-03  2.019139E-18 -3.281683E-01  0.000000E+00
  7.754120E-01  4.221255E-02  5.000000E-01  7.832429E-01  4.257846E-02  0.000000E+00  1.032538E-02 -1.512544E-03  1.919188E-18 -3.466169E-01  0.000000E+00
  7.595880E-01  4.452831E-02  5.000000E-01  7.672591E-01  4.491761E-02  0.000000E+00  1.057415E-02 -1.540014E-03  6.994883E-19 -3.702269E-01  0.000000E+00
  7.431760E-01  4.690736E-02  5.000000E-01  7.506814E-01  4.732068E-02  0.000000E+00  1.093533E-02 -1.568098E-03  1.322249E-18 -3.985123E-01  0.000000E+00
  7.261880E-01  4.931713E-02  5.000000E-01  7.335218E-01  4.975478E-02  0.000000E+00  1.141217E-02 -1.588514E-03  1.605962E-18 -4.312624E-01  0.000000E+00
  7.086430E-01  5.171369E-02  5.000000E-01  7.157996E-01  5.217555E-02  0.000000E+00  1.198314E-02 -1.588778E-03  3.147036E-19 -4.666206E-01  0.000000E+00
  6.905640E-01  5.404109E-02  5.000000E-01  6.975380E-01  5.452645E-02  0.000000E+00  1.260040E-02 -1.553496E-03 -8.341731E-19 -5.002286E-01  0.000000E+00
  6.719770E-01  5.623725E-02  5.000000E-01  6.787633E-01  5.674479E-02  0.000000E+00  1.319087E-02 -1.472142E-03 -3.510640E-19 -5.263388E-01  0.000000E+00
  6.529150E-01  5.824671E-02  5.000000E-01  6.595088E-01  5.877454E-02  0.000000E+00  1.366641E-02 -1.352058E-03  5.607380E-19 -5.417795E-01  0.000000E+00
  6.334180E-01  6.005329E-02  5.000000E-01  6.398149E-01  6.059937E-02  0.000000E+00  1.395465E-02 -1.220288E-03  4.263121E-19 -5.483352E-01  0.000000E+00
  6.135280E-01  6.169006E-02  5.000000E-01  6.197240E-01  6.225267E-02  0.000000E+00  1.403766E-02 -1.100931E-03  2.603485E-19 -5.492606E-01  0.000000E+00
  5.932910E-01  6.319919E-02  5.000000E-01  5.992827E-01  6.377705E-02  0.000000E+00  1.395345E-02 -1.005156E-03  4.888610E-19 -5.474437E-01  0.000000E+00
  5.727570E-01  6.462577E-02  5.000000E-01  5.785413E-01  6.521803E-02  0.000000E+00  1.377068E-02 -9.395835E-04  3.359185E-19 -5.466993E-01  0.000000E+00
  5.519810E-01  6.601648E-02  5.000000E-01  5.575555E-01  6.662278E-02  0.000000E+00  1.357059E-02 -9.059891E-04 -7.020378E-19 -5.510972E-01  0.000000E+00
  5.310180E-01  6.741195E-02  5.000000E-01  5.363808E-01  6.803234E-02  0.000000E+00  1.343456E-02 -8.963021E-04 -6.395036E-19 -5.632931E-01  0.000000E+00
  5.099250E-01  6.882155E-02  5.000000E-01  5.150748E-01  6.945618E-02  0.000000E+00  1.342855E-02 -9.010712E-04 -1.276346E-19 -5.854347E-01  0.000000E+00
  4.887640E-01  7.024596E-02  5.000000E-01  4.937000E-01  7.089498E-02  0.000000E+00  1.360122E-02 -9.092666E-04 -2.256433E-19 -6.180104E-01  0.000000E+00
  4.675910E-01  7.165232E-02  5.000000E-01  4.723132E-01  7.231554E-02  0.000000E+00  1.398256E-02 -9.035118E-04 -1.291604E-19 -6.587073E-01  0.000000E+00
  7.860720E-05 -5.149525E-04  5.000000E-01  7.940614E-05 -5.805525E-04  0.000000E+00 -7.261732E-03  2.630048E-02 -3.264975E-16  8.836129E-01  0.000000E+00
  3.989240E-04 -1.191682E-03  5.000000E-01  4.029578E-04 -1.264116E-03  0.000000E+00 -6.120286E-03  1.109093E-02 -2.050085E-16  1.090977E+00  0.000000E+00
  1.196920E-03 -2.021256E-03  5.000000E-01  1.209013E-03 -2.102068E-03  0.000000E+00 -1.882996E-04  8.807222E-04 -8.876736E-17  1.067092E+00  0.000000E+00
  2.563580E-03 -2.903727E-03  5.000000E-01  2.589475E-03 -2.993451E-03  0.000000E+00  5.695081E-03 -2.961605E-03 -1.754199E-17  9.257024E-01  0.000000E+00
  4.492740E-03 -3.793757E-03  5.000000E-01  4.538117E-03 -3.892470E-03  0.000000E+00  9.296550E-03 -3.781199E-03  5.598001E-18  8.019074E-01  0.000000E+00
  6.952190E-03 -4.686886E-03  5.000000E-01  7.022405E-03 -4.794618E-03  0.000000E+00  1.120311E-02 -3.758590E-03 -4.241138E-19  7.142480E-01  0.000000E+00
  9.910730E-03 -5.606203E-03  5.000000E-01  1.001082E-02 -5.723219E-03  0.000000E+00  1.230517E-02 -3.645152E-03 -9.926891E-18  6.449474E-01  0.000000E+00
  1.334950E-02 -6.579156E-03  5.000000E-01  1.348432E-02 -6.705999E-03  0.000000E+00  1.306767E-02 -3.504436E-03 -1.137410E-17  5.758038E-01  0.000000E+00
  1.728780E-02 -7.582021E-03  5.000000E-01  1.746240E-02 -7.718991E-03  0.000000E+00  1.360280E-02 -3.215670E-03 -7.374827E-18  4.991540E-01  0.000000E+00
  2.175590E-02 -8.559449E-03  5.000000E-01  2.197562E-02 -8.706290E-03  0.000000E+00  1.391144E-02 -2.783061E-03 -2.113979E-18  4.263521E-01  0.000000E+00
  2.676920E-02 -9.468424E-03  5.000000E-01  2.703955E-02 -9.624446E-03  0.000000E+00  1.403851E-02 -2.317210E-03  1.817861E-18  3.706349E-01  0.000000E+00
  3.232800E-02 -1.029470E-02  5.000000E-01  3.265449E-02 -1.045907E-02  0.000000E+00  1.405825E-02 -1.907278E-03  2.432133E-18  3.336561E-01  0.000000E+00
  3.842930E-02 -1.104327E-02  5.000000E-01  3.881740E-02 -1.121519E-02  0.000000E+00  1.402540E-02 -1.583403E-03  1.680414E-18  3.088479E-01  0.000000E+00
  4.507220E-02 -1.172817E-02  5.000000E-01  4.552739E-02 -1.190701E-02  0.000000E+00  1.398543E-02 -1.357660E-03  1.436970E-18  2.910881E-01  0.000000E+00
  5.225680E-02 -1.238166E-02  5.000000E-01  5.278455E-02 -1.256710E-02  0.000000E+00  1.398576E-02 -1.230121E-03  9.255811E-19  2.773824E-01  0.000000E+00
  5.998640E-02 -1.303875E-02  5.000000E-01  6.059221E-02 -1.323083E-02  0.000000E+00  1.403794E-02 -1.157643E-03  7.166813E-19  2.617128E-01  0.000000E+00
  6.827110E-02 -1.370215E-02  5.000000E-01  6.896058E-02 -1.390092E-02  0.000000E+00  1.411436E-02 -1.090488E-03  7.205799E-19  2.407615E-01  0.000000E+00
  7.712280E-02 -1.436121E-02  5.000000E-01  7.790167E-02 -1.456665E-02  0.000000E+00  1.418883E-02 -1.014963E-03  5.256286E-19  2.177811E-01  0.000000E+00
  8.655260E-02 -1.500765E-02  5.000000E-01  8.742670E-02 -1.521961E-02  0.000000E+00  1.424455E-02 -9.292666E-04  6.290329E-19  1.957171E-01  0.000000E+00
  9.657140E-02 -1.562828E-02  5.000000E-01  9.754668E-02 -1.584651E-02  0.000000E+00  1.426058E-02 -8.215565E-04  6.381221E-19  1.742037E-01  0.000000E+00
  1.071900E-01 -1.619444E-02  5.000000E-01  1.082725E-01 -1.641838E-02  0.000000E+00  1.422391E-02 -6.889752E-04  5.879132E-19  1.537398E-01  0.000000E+00
  1.184180E-01 -1.668279E-02  5.000000E-01  1.196139E-01 -1.691167E-02  0.000000E+00  1.414858E-02 -5.511125E-04  4.481688E-19  1.371085E-01  0.000000E+00
  1.302610E-01 -1.708936E-02  5.000000E-01  1.315765E-01 -1.732235E-02  0.000000E+00  1.406004E-02 -4.267640E-04  1.765309E-20  1.249243E-01  0.000000E+00
  1.427230E-01 -1.741763E-02  5.000000E-01  1.441644E-01 -1.765393E-02  0.000000E+00  1.396983E-02 -3.206035E-04  2.249729E-19  1.152996E-01  0.000000E+00
  1.427230E-01 -1.741763E-02  5.000000E-01  1.441644E-01 -1.765393E-02  0.000000E+00  1.396983E-02 -3.206035E-04  2.249729E-19  1.152996E-01  0.000000E+00
  1.558070E-01 -1.767355E-02  5.000000E-01  1.573805E-01 -1.791243E-02  0.000000E+00  1.386366E-02 -2.226603E-04  2.205672E-19  1.059897E-01  0.000000E+00
  1.695140E-01 -1.784600E-02  5.000000E-01  1.712259E-01 -1.808663E-02  0.000000E+00  1.370740E-02 -1.154996E-04 -4.252445E-19  9.603575E-02  0.000000E+00
  1.838420E-01 -1.790668E-02  5.000000E-01  1.856986E-01 -1.814792E-02  0.000000E+00  1.347087E-02  9.360635E-06 -3.904988E-19  8.708464E-02  0.000000E+00
  1.987870E-01 -1.782102E-02  5.000000E-01  2.007946E-01 -1.806140E-02  0.000000E+00  1.314838E-02  1.453674E-04 -2.065953E-20  8.184236E-02  0.000000E+00
  2.143420E-01 -1.756335E-02  5.000000E-01  2.165067E-01 -1.780112E-02  0.000000E+00  1.276892E-02  2.695060E-04 -2.813744E-19  8.275927E-02  0.000000E+00
  2.304940E-01 -1.714564E-02  5.000000E-01  2.328218E-01 -1.737919E-02  0.000000E+00  1.238632E-02  3.548018E-04 -1.590861E-19  9.033134E-02  0.000000E+00
  2.472290E-01 -1.661758E-02  5.000000E-01  2.497258E-01 -1.684580E-02  0.000000E+00  1.205070E-02  3.927849E-04  5.414071E-20  1.014658E-01  0.000000E+00
  2.645310E-01 -1.603593E-02  5.000000E-01  2.672025E-01 -1.625828E-02  0.000000E+00  1.178791E-02  4.000137E-04 -3.769949E-21  1.110311E-01  0.000000E+00
  2.823750E-01 -1.542626E-02  5.000000E-01  2.852267E-01 -1.564245E-02  0.000000E+00  1.160583E-02  3.992304E-04  7.284082E-19  1.159948E-01  0.000000E+00
  3.007320E-01 -1.479095E-02  5.000000E-01  3.037691E-01 -1.500073E-02  0.000000E+00  1.151352E-02  3.961199E-04  7.200831E-19  1.175895E-01  0.000000E+00
  3.195690E-01 -1.414540E-02  5.000000E-01  3.227963E-01 -1.434865E-02  0.000000E+00  1.152005E-02  3.827894E-04  2.384255E-19  1.181592E-01  0.000000E+00
  3.388440E-01 -1.352407E-02  5.000000E-01  3.422660E-01 -1.372105E-02  0.000000E+00  1.160734E-02  3.639506E-04  4.165975E-19  1.165490E-01  0.000000E+00
  3.585140E-01 -1.292620E-02  5.000000E-01  3.621347E-01 -1.311715E-02  0.000000E+00  1.171359E-02  3.645873E-04 -1.213600E-19  1.094220E-01  0.000000E+00
  3.785290E-01 -1.229046E-02  5.000000E-01  3.823518E-01 -1.247498E-02  0.000000E+00  1.175745E-02  4.028303E-04 -5.046401E-19  9.787035E-02  0.000000E+00
  3.988350E-01 -1.154337E-02  5.000000E-01  4.028629E-01 -1.172035E-02  0.000000E+00  1.167091E-02  4.799129E-04  6.430990E-20  8.721852E-02  0.000000E+00
  4.193750E-01 -1.060813E-02  5.000000E-01  4.236103E-01 -1.077566E-02  0.000000E+00  1.141671E-02  5.945966E-04  2.423705E-19  8.114820E-02  0.000000E+00
  4.400850E-01 -9.390861E-03  5.000000E-01  4.445294E-01 -9.546099E-03  0.000000E+00  1.101059E-02  7.312919E-04 -8.004943E-19  8.214895E-02  0.000000E+00
  4.609060E-01 -7.840070E-03  5.000000E-01  4.655607E-01 -7.979647E-03  0.000000E+00  1.053905E-02  8.387680E-04 -2.215959E-18  9.515209E-02  0.000000E+00
  4.818030E-01 -6.060307E-03  5.000000E-01  4.866688E-01 -6.181910E-03  0.000000E+00  1.011160E-02  8.692222E-04 -2.009477E-18  1.207161E-01  0.000000E+00
  5.027520E-01 -4.241388E-03  5.000000E-01  5.078293E-01 -4.344621E-03  0.000000E+00  9.771844E-03  8.341597E-04 -8.161457E-19  1.484477E-01  0.000000E+00
  5.237130E-01 -2.489394E-03  5.000000E-01  5.290020E-01 -2.574934E-03  0.000000E+00  9.470886E-03  7.917177E-04 -3.239101E-19  1.662222E-01  0.000000E+00
  5.446170E-01 -7.480644E-04  5.000000E-01  5.501171E-01 -8.160186E-04  0.000000E+00  9.128124E-03  7.842287E-04 -8.122202E-19  1.733553E-01  0.000000E+00
  5.653940E-01  1.095478E-03  5.000000E-01  5.711039E-01  1.046142E-03  0.000000E+00  8.712388E-03  7.976223E-04 -8.464575E-19  1.816083E-01  0.000000E+00
  4.675910E-01  7.165232E-02  5.000000E-01  4.723132E-01  7.231554E-02  0.000000E+00  1.398256E-02 -9.035118E-04 -1.291604E-19 -6.587073E-01  0.000000E+00
  4.464640E-01  7.298085E-02  5.000000E-01  4.509729E-01  7.365748E-02  0.000000E+00  1.457148E-02 -8.744239E-04 -4.881798E-19 -7.066243E-01  0.000000E+00
  4.254410E-01  7.418414E-02  5.000000E-01  4.297375E-01  7.487292E-02  0.000000E+00  1.534982E-02 -8.132454E-04 -1.080706E-18 -7.616307E-01  0.000000E+00
  4.045840E-01  7.520452E-02  5.000000E-01  4.086699E-01  7.590361E-02  0.000000E+00  1.629278E-02 -7.031612E-04 -1.243849E-18 -8.221785E-01  0.000000E+00
  3.839530E-01  7.598190E-02  5.000000E-01  3.878306E-01  7.668884E-02  0.000000E+00  1.736191E-02 -5.264891E-04 -4.073378E-19 -8.849739E-01  0.000000E+00
  3.636060E-01  7.645766E-02  5.000000E-01  3.672781E-01  7.716941E-02  0.000000E+00  1.850090E-02 -2.674511E-04 -9.685286E-20 -9.433631E-01  0.000000E+00
  3.435960E-01  7.658028E-02  5.000000E-01  3.470660E-01  7.729327E-02  0.000000E+00  1.962945E-02  8.331841E-05 -2.565075E-19 -9.882164E-01  0.000000E+00
  3.239710E-01  7.630694E-02  5.000000E-01  3.272428E-01  7.701717E-02  0.000000E+00  2.063536E-02  5.068444E-04 -2.332116E-19 -1.014440E+00  0.000000E+00
  3.047740E-01  7.564046E-02  5.000000E-01  3.078519E-01  7.634396E-02  0.000000E+00  2.140768E-02  9.461976E-04 -3.592180E-19 -1.025640E+00  0.000000E+00
  2.860450E-01  7.463966E-02  5.000000E-01  2.889338E-01  7.533305E-02  0.000000E+00  2.191562E-02  1.361061E-03 -3.225297E-19 -1.027070E+00  0.000000E+00
  2.678190E-01  7.335254E-02  5.000000E-01  2.705237E-01  7.403293E-02  0.000000E+00  2.221024E-02  1.746327E-03 -1.697420E-19 -1.022014E+00  0.000000E+00
  2.501300E-01  7.182109E-02  5.000000E-01  2.526561E-01  7.248602E-02  0.000000E+00  2.236814E-02  2.103193E-03 -2.262652E-19 -1.014247E+00  0.000000E+00
  2.330040E-01  7.008326E-02  5.000000E-01  2.353571E-01  7.073064E-02  0.000000E+00  2.246454E-02  2.438648E-03  4.669510E-20 -1.006636E+00  0.000000E+00
  2.164660E-01  6.817054E-02  5.000000E-01  2.186521E-01  6.879860E-02  0.000000E+00  2.255889E-02  2.764961E-03  1.390537E-19 -9.998720E-01  0.000000E+00
  2.005340E-01  6.610837E-02  5.000000E-01  2.025592E-01  6.671560E-02  0.000000E+00  2.269173E-02  3.101668E-03 -4.568722E-19 -9.915982E-01  0.000000E+00
  1.852230E-01  6.390653E-02  5.000000E-01  1.870936E-01  6.449152E-02  0.000000E+00  2.287330E-02  3.459405E-03 -1.220573E-18 -9.801236E-01  0.000000E+00
  1.705440E-01  6.157901E-02  5.000000E-01  1.722663E-01  6.214050E-02  0.000000E+00  2.308670E-02  3.826546E-03 -1.144534E-18 -9.694840E-01  0.000000E+00
  1.565000E-01  5.915022E-02  5.000000E-01  1.580805E-01  5.968718E-02  0.000000E+00  2.332816E-02  4.194757E-03 -1.786203E-18 -9.674544E-01  0.000000E+00
  1.430940E-01  5.664590E-02  5.000000E-01  1.445391E-01  5.715757E-02  0.000000E+00  2.363860E-02  4.595854E-03 -3.107862E-18 -9.766839E-01  0.000000E+00
  1.303270E-01  5.406693E-02  5.000000E-01  1.316432E-01  5.455256E-02  0.000000E+00  2.407488E-02  5.108877E-03 -1.341146E-18 -9.865302E-01  0.000000E+00
  1.182110E-01  5.137600E-02  5.000000E-01  1.194048E-01  5.183445E-02  0.000000E+00  2.460942E-02  5.774684E-03  2.596205E-20 -9.803689E-01  0.000000E+00
  1.067560E-01  4.855056E-02  5.000000E-01  1.078341E-01  4.898048E-02  0.000000E+00  2.509346E-02  6.541439E-03  9.760391E-19 -9.480870E-01  0.000000E+00
  9.596750E-02  4.559101E-02  5.000000E-01  9.693668E-02  4.599103E-02  0.000000E+00  2.532816E-02  7.251852E-03  1.521141E-19 -8.981814E-01  0.000000E+00
  8.582800E-02  4.256426E-02  5.000000E-01  8.669479E-02  4.293371E-02  0.000000E+00  2.523620E-02  7.766543E-03 -2.128479E-18 -8.505512E-01  0.000000E+00
  8.582800E-02  4.256426E-02  5.000000E-01  8.669479E-02  4.293371E-02  0.000000E+00  2.523620E-02  7.766543E-03 -2.128479E-18 -8.505512E-01  0.000000E+00
  7.631050E-02  3.954479E-02  5.000000E-01  7.708117E-02  3.988376E-02  0.000000E+00  2.495482E-02  8.162852E-03 -1.196208E-18 -8.093478E-01  0.000000E+00
  6.740780E-02  3.654455E-02  5.000000E-01  6.808856E-02  3.685322E-02  0.000000E+00  2.465356E-02  8.585871E-03 -1.845764E-19 -7.670115E-01  0.000000E+00
  5.911740E-02  3.356350E-02  5.000000E-01  5.971443E-02  3.384206E-02  0.000000E+00  2.438695E-02  9.060133E-03 -3.149555E-19 -7.205438E-01  0.000000E+00
  5.143150E-02  3.061568E-02  5.000000E-01  5.195091E-02  3.086447E-02  0.000000E+00  2.413281E-02  9.548996E-03  7.152633E-19 -6.706985E-01  0.000000E+00
  4.433770E-02  2.772187E-02  5.000000E-01  4.478547E-02  2.794144E-02  0.000000E+00  2.385188E-02  1.002432E-02  7.042576E-19 -6.200493E-01  0.000000E+00
  3.782240E-02  2.490223E-02  5.000000E-01  3.820437E-02  2.509332E-02  0.000000E+00  2.352175E-02  1.048613E-02 -2.719151E-18 -5.723828E-01  0.000000E+00
  3.187460E-02  2.217107E-02  5.000000E-01  3.219651E-02  2.233458E-02  0.000000E+00  2.315128E-02  1.095895E-02 -5.819244E-18 -5.307459E-01  0.000000E+00
  2.648400E-02  1.954073E-02  5.000000E-01  2.675147E-02  1.967767E-02  0.000000E+00  2.277016E-02  1.151032E-02 -1.189593E-17 -4.889672E-01  0.000000E+00
  2.164990E-02  1.701218E-02  5.000000E-01  2.186855E-02  1.712358E-02  0.000000E+00  2.234852E-02  1.219342E-02 -2.554976E-17 -4.296408E-01  0.000000E+00
  1.737670E-02  1.458475E-02  5.000000E-01  1.755219E-02  1.467164E-02  0.000000E+00  2.174169E-02  1.285811E-02 -4.754139E-17 -3.470292E-01  0.000000E+00
  1.364080E-02  1.228540E-02  5.000000E-01  1.377856E-02  1.234908E-02  0.000000E+00  2.083884E-02  1.322156E-02 -7.695487E-17 -2.610219E-01  0.000000E+00
  1.039090E-02  1.015683E-02  5.000000E-01  1.049584E-02  1.019901E-02  0.000000E+00  1.974003E-02  1.325516E-02 -1.050213E-16 -1.959051E-01  0.000000E+00
  7.586340E-03  8.223517E-03  5.000000E-01  7.662960E-03  8.246167E-03  0.000000E+00  1.870853E-02  1.335113E-02 -1.199940E-16 -1.547062E-01  0.000000E+00
  5.226210E-03  6.479255E-03  5.000000E-01  5.278995E-03  6.484289E-03  0.000000E+00  1.800314E-02  1.405594E-02 -1.226364E-16 -1.254026E-01  0.000000E+00
  3.324300E-03  4.912360E-03  5.000000E-01  3.357877E-03  4.901571E-03  0.000000E+00  1.777200E-02  1.587762E-02 -1.445276E-16 -9.702393E-02  0.000000E+00
  1.883580E-03  3.524765E-03  5.000000E-01  1.902607E-03  3.499962E-03  0.000000E+00  1.783492E-02  1.938668E-02 -2.394876E-16 -4.735526E-02  0.000000E+00
  8.951490E-04  2.330181E-03  5.000000E-01  9.041942E-04  2.293314E-03  0.000000E+00  1.717846E-02  2.481193E-02 -4.365023E-16  6.307578E-02  0.000000E+00
  3.201820E-04  1.356367E-03  5.000000E-01  3.234206E-04  1.309665E-03  0.000000E+00  1.409310E-02  3.069783E-02 -6.809412E-16  2.555178E-01  0.000000E+00
  6.852390E-05  6.384619E-04  5.000000E-01  6.922101E-05  5.845102E-04  0.000000E+00  8.438821E-03  3.363775E-02 -8.468607E-16  4.620018E-01  0.000000E+00
  4.217600E-06  2.042192E-04  5.000000E-01  4.265277E-06  1.458821E-04  0.000000E+00  3.025353E-03  3.324147E-02 -8.251690E-16  5.329936E-01  0.000000E+00
 -5.032520E-09  5.979560E-05  5.000000E-01  0.000000E+00  0.000000E+00  0.000000E+00 -4.505932E-04  3.603758E-02 -6.425438E-16  4.980757E-01  0.000000E+00
  5.154440E-06 -8.525305E-05  5.000000E-01  5.211578E-06 -1.465135E-04  0.000000E+00 -3.891481E-03  3.691111E-02 -4.538526E-16  6.012812E-01  0.000000E+00