 Title = "ADflow Slice Data"
Variables =  "CoordinateX"  "CoordinateY"  "CoordinateZ"  "XoC"  "YoC"  "ZoC" "VelocityX" "VelocityY" "VelocityZ" "CoefPressure" "Mach" 
Zone T= "Slice_0001 None Absolute Regular z = 0.50000000"
 Nodes =          192  Elements=          184  ZONETYPE=FELINESEG
 DATAPACKING=POINT
  5.653940E-01 -6.869520E-03  5.000000E-01  5.711040E-01 -7.006970E-03  0.000000E+00  1.009233E-02  5.576561E-04  3.916828E-19  1.224951E-01  0.000000E+00
  5.859770E-01 -5.588342E-03  5.000000E-01  5.918948E-01 -5.712854E-03  0.000000E+00  9.682411E-03  6.386524E-04  4.103499E-19  1.345117E-01  0.000000E+00
  6.063060E-01 -4.167257E-03  5.000000E-01  6.124291E-01 -4.277418E-03  0.000000E+00  9.327686E-03  6.580094E-04  3.866808E-20  1.575770E-01  0.000000E+00
  6.263240E-01 -2.745001E-03  5.000000E-01  6.326493E-01 -2.840798E-03  0.000000E+00  9.128306E-03  6.207266E-04 -5.213538E-19  1.800892E-01  0.000000E+00
  6.459860E-01 -1.469431E-03  5.000000E-01  6.525099E-01 -1.552346E-03  0.000000E+00  9.122265E-03  5.356453E-04 -8.522019E-19  1.964894E-01  0.000000E+00
  6.652460E-01 -4.557071E-04  5.000000E-01  6.719644E-01 -5.283841E-04  0.000000E+00  9.257771E-03  4.382519E-04 -2.641438E-19  2.027987E-01  0.000000E+00
  6.840650E-01  3.317705E-04  5.000000E-01  6.909734E-01  2.670463E-04  0.000000E+00  9.389725E-03  3.989607E-04  7.021976E-19  1.944935E-01  0.000000E+00
  7.024070E-01  1.119114E-03  5.000000E-01  7.095007E-01  1.062341E-03  0.000000E+00  9.360943E-03  4.471966E-04  4.560688E-19  1.791092E-01  0.000000E+00
  7.202400E-01  2.062994E-03  5.000000E-01  7.275138E-01  2.015753E-03  0.000000E+00  9.087057E-03  5.424162E-04 -7.340418E-19  1.725124E-01  0.000000E+00
  7.375350E-01  3.221788E-03  5.000000E-01  7.449834E-01  3.186250E-03  0.000000E+00  8.567469E-03  6.324518E-04 -1.766642E-18  1.814385E-01  0.000000E+00
  7.542690E-01  4.581614E-03  5.000000E-01  7.618864E-01  4.559809E-03  0.000000E+00  7.869241E-03  6.838686E-04 -1.601504E-18  2.036941E-01  0.000000E+00
  7.704220E-01  6.084251E-03  5.000000E-01  7.782026E-01  6.077622E-03  0.000000E+00  7.098960E-03  6.865157E-04 -6.390601E-19  2.334914E-01  0.000000E+00
  7.859770E-01  7.651794E-03  5.000000E-01  7.939147E-01  7.660996E-03  0.000000E+00  6.383277E-03  6.345967E-04  2.831408E-19  2.678140E-01  0.000000E+00
  8.009220E-01  9.119155E-03  5.000000E-01  8.090106E-01  9.143176E-03  0.000000E+00  5.840114E-03  5.287161E-04  3.212040E-19  3.046396E-01  0.000000E+00
  8.152480E-01  1.029661E-02  5.000000E-01  8.234813E-01  1.033252E-02  0.000000E+00  5.523573E-03  3.959733E-04  2.115092E-19  3.351016E-01  0.000000E+00
  8.289490E-01  1.112349E-02  5.000000E-01  8.373206E-01  1.116775E-02  0.000000E+00  5.414408E-03  2.656350E-04  3.175133E-19  3.524011E-01  0.000000E+00
  8.420260E-01  1.161580E-02  5.000000E-01  8.505297E-01  1.166503E-02  0.000000E+00  5.463581E-03  1.463603E-04  1.303624E-21  3.592861E-01  0.000000E+00
  8.544790E-01  1.181841E-02  5.000000E-01  8.631085E-01  1.186969E-02  0.000000E+00  5.622732E-03  3.696316E-05 -4.715742E-20  3.604650E-01  0.000000E+00
  8.663160E-01  1.178626E-02  5.000000E-01  8.750650E-01  1.183722E-02  0.000000E+00  5.849993E-03 -6.453684E-05  2.390962E-19  3.582512E-01  0.000000E+00
  8.775420E-01  1.157306E-02  5.000000E-01  8.864044E-01  1.162186E-02  0.000000E+00  6.109589E-03 -1.582283E-04  5.301647E-19  3.535551E-01  0.000000E+00
  8.881660E-01  1.122756E-02  5.000000E-01  8.971357E-01  1.127288E-02  0.000000E+00  6.373730E-03 -2.428827E-04  3.576230E-19  3.471041E-01  0.000000E+00
  8.981970E-01  1.079146E-02  5.000000E-01  9.072680E-01  1.083237E-02  0.000000E+00  6.625688E-03 -3.192728E-04  4.955767E-19  3.398468E-01  0.000000E+00
  9.076460E-01  1.029356E-02  5.000000E-01  9.168124E-01  1.032944E-02  0.000000E+00  6.861632E-03 -3.921857E-04  5.421139E-19  3.328331E-01  0.000000E+00
  9.165220E-01  9.748183E-03  5.000000E-01  9.257780E-01  9.778555E-03  0.000000E+00  7.086529E-03 -4.660426E-04 -1.219598E-20  3.262154E-01  0.000000E+00
  9.165220E-01  9.748183E-03  5.000000E-01  9.257780E-01  9.778555E-03  0.000000E+00  7.086529E-03 -4.660426E-04 -1.219598E-20  3.262154E-01  0.000000E+00
  9.248360E-01  9.166453E-03  5.000000E-01  9.341760E-01  9.190951E-03  0.000000E+00  7.306976E-03 -5.419703E-04 -4.099083E-20  3.193537E-01  0.000000E+00
  9.325990E-01  8.558886E-03  5.000000E-01  9.420174E-01  8.577248E-03  0.000000E+00  7.528661E-03 -6.203218E-04 -5.582200E-19  3.119546E-01  0.000000E+00
  9.398210E-01  7.934873E-03  5.000000E-01  9.493123E-01  7.946933E-03  0.000000E+00  7.756939E-03 -7.018030E-04 -9.522604E-19  3.040433E-01  0.000000E+00
  9.465130E-01  7.302988E-03  5.000000E-01  9.560719E-01  7.308667E-03  0.000000E+00  7.996778E-03 -7.871783E-04 -3.947270E-19  2.955954E-01  0.000000E+00
  9.526870E-01  6.671198E-03  5.000000E-01  9.623083E-01  6.670496E-03  0.000000E+00  8.252270E-03 -8.771407E-04 -1.621185E-19  2.865284E-01  0.000000E+00
  9.583540E-01  6.047098E-03  5.000000E-01  9.680325E-01  6.040094E-03  0.000000E+00  8.526592E-03 -9.722436E-04 -4.243917E-19  2.767623E-01  0.000000E+00
  9.635240E-01  5.438080E-03  5.000000E-01  9.732547E-01  5.424925E-03  0.000000E+00  8.822466E-03 -1.072739E-03 -6.001067E-19  2.662123E-01  0.000000E+00
  9.682080E-01  4.851364E-03  5.000000E-01  9.779860E-01  4.832283E-03  0.000000E+00  9.143767E-03 -1.179043E-03 -9.223058E-19  2.548496E-01  0.000000E+00
  9.724140E-01  4.294069E-03  5.000000E-01  9.822345E-01  4.269360E-03  0.000000E+00  9.497884E-03 -1.291847E-03 -3.300669E-19  2.426848E-01  0.000000E+00
  9.761510E-01  3.773136E-03  5.000000E-01  9.860092E-01  3.743167E-03  0.000000E+00  9.895916E-03 -1.411784E-03  1.221005E-18  2.296979E-01  0.000000E+00
  9.794290E-01  3.295188E-03  5.000000E-01  9.893203E-01  3.260392E-03  0.000000E+00  1.034569E-02 -1.539542E-03  1.323669E-18  2.159040E-01  0.000000E+00
  9.822540E-01  2.866572E-03  5.000000E-01  9.921739E-01  2.827447E-03  0.000000E+00  1.083356E-02 -1.673424E-03 -1.261476E-18  2.015551E-01  0.000000E+00
  9.846330E-01  2.493090E-03  5.000000E-01  9.945769E-01  2.450193E-03  0.000000E+00  1.130541E-02 -1.802345E-03 -5.280286E-18  1.879074E-01  0.000000E+00
  9.865710E-01  2.179939E-03  5.000000E-01  9.965345E-01  2.133879E-03  0.000000E+00  1.162767E-02 -1.891941E-03 -5.993929E-18  1.738381E-01  0.000000E+00
  9.880740E-01  1.931536E-03  5.000000E-01  9.980526E-01  1.882968E-03  0.000000E+00  1.158039E-02 -1.933361E-03 -1.730856E-18  1.531251E-01  0.000000E+00
  9.891450E-01  1.751463E-03  5.000000E-01  9.991345E-01  1.701076E-03  0.000000E+00  1.183108E-02 -2.082278E-03 -9.034412E-18  1.527185E-01  0.000000E+00
  9.897860E-01  1.642359E-03  5.000000E-01  9.997819E-01  1.590870E-03  0.000000E+00  1.524160E-02 -2.120433E-03 -5.044918E-17  1.989192E-01  0.000000E+00
  9.900000E-01  1.605808E-03  5.000000E-01  9.999981E-01  1.553950E-03  0.000000E+00  1.062577E-02 -4.513821E-03 -7.379786E-17 -4.592084E-02  0.000000E+00
  9.900000E-01  1.684518E-03  5.000000E-01  9.999981E-01  1.633455E-03  0.000000E+00  1.060913E-03 -1.493983E-02 -3.860636E-18 -1.841172E-01  0.000000E+00
  9.900000E-01  1.763239E-03  5.000000E-01  9.999981E-01  1.712971E-03  0.000000E+00 -5.275660E-04 -1.413263E-02  6.373442E-17 -8.240584E-03  0.000000E+00
  9.900000E-01  1.841959E-03  5.000000E-01  9.999981E-01  1.792486E-03  0.000000E+00 -2.939642E-04  2.140985E-03  4.709352E-17 -1.287826E-02  0.000000E+00
  9.900000E-01  1.920669E-03  5.000000E-01  9.999981E-01  1.871991E-03  0.000000E+00  7.006102E-04  3.650485E-03  5.723862E-17 -1.288306E-01  0.000000E+00
  9.900000E-01  1.999389E-03  5.000000E-01  9.999981E-01  1.951507E-03  0.000000E+00  5.749260E-03 -2.629338E-03  1.030159E-16 -3.633781E-02  0.000000E+00
  9.900000E-01  1.999389E-03  5.000000E-01  9.999981E-01  1.951507E-03  0.000000E+00  5.749260E-03 -2.629338E-03  1.030159E-16 -3.633781E-02  0.000000E+00
  9.897900E-01  2.045505E-03  5.000000E-01  9.997860E-01  1.998088E-03  0.000000E+00  7.443858E-03 -1.959621E-03  8.751833E-17  1.026317E-01  0.000000E+00
  9.891580E-01  2.183766E-03  5.000000E-01  9.991476E-01  2.137745E-03  0.000000E+00  4.561116E-03 -9.370851E-04  4.370304E-17  6.039811E-02  0.000000E+00
  9.881040E-01  2.413847E-03  5.000000E-01  9.980829E-01  2.370150E-03  0.000000E+00  3.816484E-03 -8.299861E-04  2.104735E-17  5.012227E-02  0.000000E+00
  9.866260E-01  2.735217E-03  5.000000E-01  9.965900E-01  2.694766E-03  0.000000E+00  3.651593E-03 -7.975081E-04  7.284249E-18  5.112097E-02  0.000000E+00
  9.847200E-01  3.147119E-03  5.000000E-01  9.946648E-01  3.110828E-03  0.000000E+00  3.604431E-03 -7.755246E-04 -1.017437E-18  4.500061E-02  0.000000E+00
  9.823820E-01  3.648518E-03  5.000000E-01  9.923032E-01  3.617290E-03  0.000000E+00  3.695705E-03 -7.883187E-04 -3.729878E-18  3.594456E-02  0.000000E+00
  9.796080E-01  4.238058E-03  5.000000E-01  9.895011E-01  4.212783E-03  0.000000E+00  3.901549E-03 -8.244372E-04 -2.820545E-18  2.592427E-02  0.000000E+00
  9.763910E-01  4.914081E-03  5.000000E-01  9.862517E-01  4.895634E-03  0.000000E+00  4.179634E-03 -8.727038E-04 -1.263668E-18  1.444316E-02  0.000000E+00
  9.727270E-01  5.674442E-03  5.000000E-01  9.825507E-01  5.663674E-03  0.000000E+00  4.502298E-03 -9.270796E-04 -1.852508E-19  1.409979E-03  0.000000E+00
  9.686070E-01  6.516693E-03  5.000000E-01  9.783890E-01  6.514431E-03  0.000000E+00  4.853285E-03 -9.834916E-04  3.937297E-19 -1.292384E-02  0.000000E+00
  9.640240E-01  7.437832E-03  5.000000E-01  9.737598E-01  7.444872E-03  0.000000E+00  5.223597E-03 -1.039382E-03 -2.196074E-19 -2.838067E-02  0.000000E+00
  9.589680E-01  8.434408E-03  5.000000E-01  9.686527E-01  8.451513E-03  0.000000E+00  5.609045E-03 -1.093342E-03 -6.460813E-19 -4.479620E-02  0.000000E+00
  9.534310E-01  9.502402E-03  5.000000E-01  9.630598E-01  9.530293E-03  0.000000E+00  6.007324E-03 -1.144374E-03 -4.264760E-19 -6.200013E-02  0.000000E+00
  9.474030E-01  1.063728E-02  5.000000E-01  9.569709E-01  1.067663E-02  0.000000E+00  6.415805E-03 -1.191209E-03 -1.051854E-18 -7.972617E-02  0.000000E+00
  9.408720E-01  1.183395E-02  5.000000E-01  9.503739E-01  1.188539E-02  0.000000E+00  6.830392E-03 -1.232647E-03 -9.287098E-19 -9.775950E-02  0.000000E+00
  9.338280E-01  1.308679E-02  5.000000E-01  9.432588E-01  1.315087E-02  0.000000E+00  7.246058E-03 -1.267526E-03 -1.674348E-19 -1.158961E-01  0.000000E+00
  9.262600E-01  1.438967E-02  5.000000E-01  9.356144E-01  1.446692E-02  0.000000E+00  7.657008E-03 -1.294390E-03 -3.856268E-20 -1.338524E-01  0.000000E+00
  9.181550E-01  1.573582E-02  5.000000E-01  9.274275E-01  1.582666E-02  0.000000E+00  8.056374E-03 -1.311932E-03  3.011867E-19 -1.513955E-01  0.000000E+00
  9.095020E-01  1.711805E-02  5.000000E-01  9.186871E-01  1.722286E-02  0.000000E+00  8.436404E-03 -1.318860E-03 -5.336137E-20 -1.681580E-01  0.000000E+00
  9.002880E-01  1.852842E-02  5.000000E-01  9.093801E-01  1.864746E-02  0.000000E+00  8.787673E-03 -1.314018E-03  8.248859E-20 -1.835225E-01  0.000000E+00
  8.905020E-01  1.995851E-02  5.000000E-01  8.994953E-01  2.009199E-02  0.000000E+00  9.098840E-03 -1.297957E-03 -5.221510E-19 -1.970547E-01  0.000000E+00
  8.801320E-01  2.140281E-02  5.000000E-01  8.890205E-01  2.155088E-02  0.000000E+00  9.359592E-03 -1.273349E-03 -3.540485E-19 -2.087409E-01  0.000000E+00
  8.691700E-01  2.285957E-02  5.000000E-01  8.779478E-01  2.302235E-02  0.000000E+00  9.564291E-03 -1.243140E-03  1.397911E-18 -2.187171E-01  0.000000E+00
  8.691700E-01  2.285957E-02  5.000000E-01  8.779478E-01  2.302235E-02  0.000000E+00  9.564291E-03 -1.243140E-03  1.397911E-18 -2.187171E-01  0.000000E+00
  8.576080E-01  2.432926E-02  5.000000E-01  8.662691E-01  2.450689E-02  0.000000E+00  9.713019E-03 -1.210010E-03  1.174465E-18 -2.270254E-01  0.000000E+00
  8.454380E-01  2.581492E-02  5.000000E-01  8.539762E-01  2.600755E-02  0.000000E+00  9.811054E-03 -1.177692E-03  1.686343E-19 -2.337505E-01  0.000000E+00
  8.326580E-01  2.732347E-02  5.000000E-01  8.410671E-01  2.753134E-02  0.000000E+00  9.869481E-03 -1.150813E-03 -3.252792E-19 -2.392711E-01  0.000000E+00
  8.192630E-01  2.886660E-02  5.000000E-01  8.275368E-01  2.909005E-02  0.000000E+00  9.906293E-03 -1.134805E-03 -9.438396E-19 -2.449040E-01  0.000000E+00
  8.052550E-01  3.046201E-02  5.000000E-01  8.133873E-01  3.070157E-02  0.000000E+00  9.947735E-03 -1.133779E-03 -5.865328E-19 -2.530096E-01  0.000000E+00
  7.906370E-01  3.212838E-02  5.000000E-01  7.986217E-01  3.238477E-02  0.000000E+00  1.002586E-02 -1.145073E-03  6.641013E-19 -2.654354E-01  0.000000E+00
  7.754120E-01  3.386979E-02  5.000000E-01  7.832430E-01  3.414377E-02  0.000000E+00  1.016595E-02 -1.157802E-03  7.306166E-19 -2.819921E-01  0.000000E+00
  7.595880E-01  3.566402E-02  5.000000E-01  7.672591E-01  3.595611E-02  0.000000E+00  1.036943E-02 -1.159190E-03  4.050798E-19 -3.008523E-01  0.000000E+00
  7.431760E-01  3.747260E-02  5.000000E-01  7.506814E-01  3.778297E-02  0.000000E+00  1.060713E-02 -1.141413E-03  1.214260E-19 -3.194582E-01  0.000000E+00
  7.261880E-01  3.925754E-02  5.000000E-01  7.335218E-01  3.958593E-02  0.000000E+00  1.082880E-02 -1.103025E-03 -9.842007E-19 -3.343694E-01  0.000000E+00
  7.086430E-01  4.099090E-02  5.000000E-01  7.157996E-01  4.133679E-02  0.000000E+00  1.098042E-02 -1.050430E-03 -1.443340E-18 -3.421757E-01  0.000000E+00
  6.905640E-01  4.266724E-02  5.000000E-01  6.975381E-01  4.303006E-02  0.000000E+00  1.102504E-02 -1.001647E-03  5.816008E-19 -3.431847E-01  0.000000E+00
  6.719770E-01  4.432160E-02  5.000000E-01  6.787634E-01  4.470113E-02  0.000000E+00  1.096779E-02 -9.843074E-04  1.004719E-18 -3.444616E-01  0.000000E+00
  6.529150E-01  4.604375E-02  5.000000E-01  6.595088E-01  4.644068E-02  0.000000E+00  1.087733E-02 -1.010773E-03  1.271044E-18 -3.542374E-01  0.000000E+00
  6.334180E-01  4.790518E-02  5.000000E-01  6.398149E-01  4.832091E-02  0.000000E+00  1.086598E-02 -1.061920E-03  1.285725E-18 -3.747107E-01  0.000000E+00
  6.135280E-01  4.989342E-02  5.000000E-01  6.197241E-01  5.032923E-02  0.000000E+00  1.102810E-02 -1.117065E-03 -5.044397E-19 -4.061009E-01  0.000000E+00
  5.932910E-01  5.196732E-02  5.000000E-01  5.992827E-01  5.242407E-02  0.000000E+00  1.141120E-02 -1.166299E-03 -1.318402E-18 -4.483157E-01  0.000000E+00
  5.727570E-01  5.405917E-02  5.000000E-01  5.785413E-01  5.453704E-02  0.000000E+00  1.201835E-02 -1.193598E-03 -1.080819E-18 -4.966529E-01  0.000000E+00
  5.519810E-01  5.607450E-02  5.000000E-01  5.575555E-01  5.657272E-02  0.000000E+00  1.280203E-02 -1.177970E-03 -1.046762E-19 -5.433703E-01  0.000000E+00
  5.310180E-01  5.790771E-02  5.000000E-01  5.363808E-01  5.842445E-02  0.000000E+00  1.366625E-02 -1.117138E-03  1.729408E-19 -5.855658E-01  0.000000E+00
  5.099250E-01  5.951781E-02  5.000000E-01  5.150748E-01  6.005081E-02  0.000000E+00  1.451260E-02 -1.026086E-03  7.598047E-19 -6.257183E-01  0.000000E+00
  4.887640E-01  6.089983E-02  5.000000E-01  4.937001E-01  6.144678E-02  0.000000E+00  1.529009E-02 -9.053547E-04  7.003420E-20 -6.634282E-01  0.000000E+00
  4.675910E-01  6.203096E-02  5.000000E-01  4.723132E-01  6.258934E-02  0.000000E+00  1.598168E-02 -7.445957E-04 -3.554698E-19 -6.946111E-01  0.000000E+00
  7.860720E-05 -5.337488E-04  5.000000E-01  7.940614E-05 -6.072140E-04  0.000000E+00 -1.153937E-02  4.169236E-02  5.980373E-16  6.059280E-01  0.000000E+00
  3.989240E-04 -1.239280E-03  5.000000E-01  4.029578E-04 -1.319870E-03  0.000000E+00 -1.297055E-02  2.226686E-02  4.046688E-16  9.848669E-01  0.000000E+00
  1.196920E-03 -2.097948E-03  5.000000E-01  1.209013E-03 -2.187210E-03  0.000000E+00 -7.271323E-03  7.237524E-03  2.215995E-16  1.100952E+00  0.000000E+00
  2.563580E-03 -3.000012E-03  5.000000E-01  2.589475E-03 -3.098384E-03  0.000000E+00  3.269234E-04  1.322953E-04  6.846109E-17  1.016855E+00  0.000000E+00
  4.492740E-03 -3.893915E-03  5.000000E-01  4.538118E-03 -4.001315E-03  0.000000E+00  5.836373E-03 -2.297365E-03 -1.173942E-17  9.031570E-01  0.000000E+00
  6.952190E-03 -4.772100E-03  5.000000E-01  7.022406E-03 -4.888369E-03  0.000000E+00  9.042800E-03 -2.935782E-03 -2.755802E-17  8.129687E-01  0.000000E+00
  9.910730E-03 -5.656491E-03  5.000000E-01  1.001082E-02 -5.781691E-03  0.000000E+00  1.080723E-02 -3.045712E-03 -1.579887E-17  7.403273E-01  0.000000E+00
  1.334950E-02 -6.573836E-03  5.000000E-01  1.348432E-02 -6.708301E-03  0.000000E+00  1.179898E-02 -2.950626E-03 -3.901581E-18  6.700482E-01  0.000000E+00
  1.728780E-02 -7.498889E-03  5.000000E-01  1.746240E-02 -7.642696E-03  0.000000E+00  1.232996E-02 -2.655296E-03 -4.379782E-19  5.948109E-01  0.000000E+00
  2.175590E-02 -8.376479E-03  5.000000E-01  2.197562E-02 -8.529148E-03  0.000000E+00  1.254153E-02 -2.221879E-03 -1.942826E-18  5.248725E-01  0.000000E+00
  2.676920E-02 -9.167177E-03  5.000000E-01  2.703955E-02 -9.327832E-03  0.000000E+00  1.256040E-02 -1.778571E-03 -2.724759E-18  4.723816E-01  0.000000E+00
  3.232800E-02 -9.863076E-03  5.000000E-01  3.265449E-02 -1.003076E-02  0.000000E+00  1.249647E-02 -1.411289E-03 -1.793266E-18  4.385017E-01  0.000000E+00
  3.842930E-02 -1.047694E-02  5.000000E-01  3.881741E-02 -1.065082E-02  0.000000E+00  1.240821E-02 -1.142128E-03 -6.154800E-19  4.166819E-01  0.000000E+00
  4.507220E-02 -1.103134E-02  5.000000E-01  4.552739E-02 -1.121083E-02  0.000000E+00  1.232753E-02 -9.747378E-04  8.066212E-19  4.018510E-01  0.000000E+00
  5.225680E-02 -1.156717E-02  5.000000E-01  5.278455E-02 -1.175207E-02  0.000000E+00  1.228598E-02 -9.037779E-04  7.622976E-19  3.910968E-01  0.000000E+00
  5.998640E-02 -1.212828E-02  5.000000E-01  6.059221E-02 -1.231884E-02  0.000000E+00  1.229056E-02 -8.904060E-04  2.998434E-19  3.789115E-01  0.000000E+00
  6.827110E-02 -1.272840E-02  5.000000E-01  6.896058E-02 -1.292502E-02  0.000000E+00  1.232069E-02 -8.930164E-04  6.051251E-19  3.622069E-01  0.000000E+00
  7.712280E-02 -1.337027E-02  5.000000E-01  7.790167E-02 -1.357337E-02  0.000000E+00  1.236125E-02 -9.012716E-04  6.281598E-19  3.435544E-01  0.000000E+00
  8.655260E-02 -1.406086E-02  5.000000E-01  8.742671E-02 -1.427093E-02  0.000000E+00  1.241002E-02 -9.149302E-04  5.054948E-19  3.250009E-01  0.000000E+00
  9.657140E-02 -1.480451E-02  5.000000E-01  9.754669E-02 -1.502210E-02  0.000000E+00  1.246727E-02 -9.252488E-04  1.963916E-19  3.055507E-01  0.000000E+00
  1.071900E-01 -1.559287E-02  5.000000E-01  1.082725E-01 -1.581842E-02  0.000000E+00  1.254545E-02 -9.302590E-04 -5.311351E-19  2.848505E-01  0.000000E+00
  1.184180E-01 -1.642391E-02  5.000000E-01  1.196139E-01 -1.665785E-02  0.000000E+00  1.268426E-02 -9.462707E-04 -1.010786E-18  2.643748E-01  0.000000E+00
  1.302610E-01 -1.731367E-02  5.000000E-01  1.315765E-01 -1.755659E-02  0.000000E+00  1.293557E-02 -9.891229E-04 -8.628638E-19  2.435584E-01  0.000000E+00
  1.427230E-01 -1.828265E-02  5.000000E-01  1.441644E-01 -1.853536E-02  0.000000E+00  1.333332E-02 -1.060960E-03 -3.825681E-19  2.195182E-01  0.000000E+00
  1.427230E-01 -1.828265E-02  5.000000E-01  1.441644E-01 -1.853536E-02  0.000000E+00  1.333332E-02 -1.060960E-03 -3.825681E-19  2.195182E-01  0.000000E+00
  1.558070E-01 -1.934700E-02  5.000000E-01  1.573805E-01 -1.961046E-02  0.000000E+00  1.386637E-02 -1.143050E-03 -2.517043E-19  1.888507E-01  0.000000E+00
  1.695140E-01 -2.049200E-02  5.000000E-01  1.712259E-01 -2.076703E-02  0.000000E+00  1.446294E-02 -1.192044E-03 -7.306426E-19  1.494737E-01  0.000000E+00
  1.838420E-01 -2.165813E-02  5.000000E-01  1.856986E-01 -2.194493E-02  0.000000E+00  1.499812E-02 -1.146716E-03 -7.928101E-19  1.027081E-01  0.000000E+00
  1.987870E-01 -2.273063E-02  5.000000E-01  2.007946E-01 -2.302826E-02  0.000000E+00  1.531780E-02 -9.416255E-04 -3.644645E-19  5.197419E-02  0.000000E+00
  2.143420E-01 -2.353046E-02  5.000000E-01  2.165067E-01 -2.383617E-02  0.000000E+00  1.530402E-02 -5.742468E-04  1.203518E-19  5.680479E-03  0.000000E+00
  2.304940E-01 -2.390641E-02  5.000000E-01  2.328218E-01 -2.421592E-02  0.000000E+00  1.495669E-02 -1.548243E-04  1.904472E-19 -2.069396E-02  0.000000E+00
  2.472290E-01 -2.385174E-02  5.000000E-01  2.497258E-01 -2.416070E-02  0.000000E+00  1.435458E-02  2.095354E-04 -6.229987E-19 -2.193838E-02  0.000000E+00
  2.645310E-01 -2.339373E-02  5.000000E-01  2.672025E-01 -2.369806E-02  0.000000E+00  1.357544E-02  4.955870E-04 -1.037578E-18 -7.676079E-03  0.000000E+00
  2.823750E-01 -2.255391E-02  5.000000E-01  2.852267E-01 -2.284976E-02  0.000000E+00  1.270289E-02  7.050830E-04 -4.194300E-19  1.431070E-02  0.000000E+00
  3.007320E-01 -2.136911E-02  5.000000E-01  3.037691E-01 -2.165299E-02  0.000000E+00  1.184322E-02  8.296820E-04 -3.575749E-19  4.279421E-02  0.000000E+00
  3.195690E-01 -1.993575E-02  5.000000E-01  3.227964E-01 -2.020515E-02  0.000000E+00  1.110446E-02  8.599900E-04  3.873198E-20  7.749825E-02  0.000000E+00
  3.388440E-01 -1.841413E-02  5.000000E-01  3.422660E-01 -1.866817E-02  0.000000E+00  1.054492E-02  8.169075E-04  5.743377E-19  1.120671E-01  0.000000E+00
  3.585140E-01 -1.692423E-02  5.000000E-01  3.621347E-01 -1.716322E-02  0.000000E+00  1.015447E-02  7.468958E-04  1.972889E-19  1.373972E-01  0.000000E+00
  3.785290E-01 -1.550009E-02  5.000000E-01  3.823518E-01 -1.572470E-02  0.000000E+00  9.901699E-03  6.770330E-04  6.211663E-19  1.525397E-01  0.000000E+00
  3.988350E-01 -1.416788E-02  5.000000E-01  4.028629E-01 -1.437904E-02  0.000000E+00  9.770099E-03  6.094832E-04  1.299226E-18  1.623851E-01  0.000000E+00
  4.193750E-01 -1.295217E-02  5.000000E-01  4.236103E-01 -1.315105E-02  0.000000E+00  9.751276E-03  5.457387E-04  1.202603E-18  1.689547E-01  0.000000E+00
  4.400850E-01 -1.185938E-02  5.000000E-01  4.445295E-01 -1.204722E-02  0.000000E+00  9.836238E-03  4.894512E-04  2.298288E-19  1.718924E-01  0.000000E+00
  4.609060E-01 -1.088633E-02  5.000000E-01  4.655607E-01 -1.106435E-02  0.000000E+00  1.000636E-02  4.429207E-04 -5.040500E-19  1.703191E-01  0.000000E+00
  4.818030E-01 -1.001162E-02  5.000000E-01  4.866688E-01 -1.018080E-02  0.000000E+00  1.022991E-02  3.953742E-04 -2.360869E-19  1.659190E-01  0.000000E+00
  5.027520E-01 -9.265365E-03  5.000000E-01  5.078293E-01 -9.427012E-03  0.000000E+00  1.044440E-02  3.482256E-04 -2.016543E-19  1.596804E-01  0.000000E+00
  5.237130E-01 -8.615673E-03  5.000000E-01  5.290020E-01 -8.770758E-03  0.000000E+00  1.054093E-02  3.487635E-04  1.968183E-19  1.475522E-01  0.000000E+00
  5.446170E-01 -7.886739E-03  5.000000E-01  5.501171E-01 -8.034463E-03  0.000000E+00  1.041952E-02  4.353283E-04  5.521783E-19  1.302227E-01  0.000000E+00
  5.653940E-01 -6.869520E-03  5.000000E-01  5.711040E-01 -7.006970E-03  0.000000E+00  1.009233E-02  5.576561E-04  3.916828E-19  1.224951E-01  0.000000E+00
  4.675910E-01  6.203096E-02  5.000000E-01  4.723132E-01  6.258934E-02  0.000000E+00  1.598168E-02 -7.445957E-04 -3.554698E-19 -6.946111E-01  0.000000E+00
  4.464640E-01  6.287784E-02  5.000000E-01  4.509729E-01  6.344477E-02  0.000000E+00  1.656768E-02 -5.491319E-04  1.180148E-19 -7.167679E-01  0.000000E+00
  4.254410E-01  6.343377E-02  5.000000E-01  4.297376E-01  6.400632E-02  0.000000E+00  1.702311E-02 -3.415317E-04 -6.506252E-19 -7.310921E-01  0.000000E+00
  4.045840E-01  6.372170E-02  5.000000E-01  4.086699E-01  6.429716E-02  0.000000E+00  1.733870E-02 -1.425772E-04 -4.892731E-19 -7.404362E-01  0.000000E+00
  3.839530E-01  6.377729E-02  5.000000E-01  3.878306E-01  6.435330E-02  0.000000E+00  1.753116E-02  4.065106E-05 -4.102671E-19 -7.466783E-01  0.000000E+00
  3.636060E-01  6.362878E-02  5.000000E-01  3.672781E-01  6.420330E-02  0.000000E+00  1.763194E-02  2.091052E-04 -6.685904E-19 -7.502749E-01  0.000000E+00
  3.435960E-01  6.330106E-02  5.000000E-01  3.470660E-01  6.387227E-02  0.000000E+00  1.767100E-02  3.631613E-04  1.018404E-19 -7.514895E-01  0.000000E+00
  3.239710E-01  6.281641E-02  5.000000E-01  3.272428E-01  6.338272E-02  0.000000E+00  1.766965E-02  4.972516E-04  6.152605E-19 -7.524471E-01  0.000000E+00
  3.047740E-01  6.220920E-02  5.000000E-01  3.078519E-01  6.276939E-02  0.000000E+00  1.765091E-02  6.039808E-04  2.043700E-19 -7.571362E-01  0.000000E+00
  2.860450E-01  6.151915E-02  5.000000E-01  2.889338E-01  6.207236E-02  0.000000E+00  1.765770E-02  6.930228E-04 -3.408469E-19 -7.673811E-01  0.000000E+00
  2.678190E-01  6.076041E-02  5.000000E-01  2.705237E-01  6.130596E-02  0.000000E+00  1.773914E-02  7.835273E-04 -4.247126E-19 -7.830704E-01  0.000000E+00
  2.501300E-01  5.993482E-02  5.000000E-01  2.526561E-01  6.047203E-02  0.000000E+00  1.792981E-02  8.871223E-04 -3.856484E-20 -8.054144E-01  0.000000E+00
  2.330040E-01  5.903970E-02  5.000000E-01  2.353571E-01  5.956787E-02  0.000000E+00  1.825320E-02  1.011863E-03  1.468273E-19 -8.371027E-01  0.000000E+00
  2.164660E-01  5.806965E-02  5.000000E-01  2.186521E-01  5.858802E-02  0.000000E+00  1.873347E-02  1.168705E-03 -5.726443E-19 -8.798107E-01  0.000000E+00
  2.005340E-01  5.701723E-02  5.000000E-01  2.025592E-01  5.752498E-02  0.000000E+00  1.940264E-02  1.391348E-03 -5.892967E-19 -9.282387E-01  0.000000E+00
  1.852230E-01  5.583802E-02  5.000000E-01  1.870936E-01  5.633386E-02  0.000000E+00  2.025606E-02  1.713038E-03 -1.585505E-19 -9.740316E-01  0.000000E+00
  1.705440E-01  5.449217E-02  5.000000E-01  1.722663E-01  5.497442E-02  0.000000E+00  2.121997E-02  2.122429E-03 -4.820661E-19 -1.016794E+00  0.000000E+00
  1.565000E-01  5.297470E-02  5.000000E-01  1.580805E-01  5.344162E-02  0.000000E+00  2.221490E-02  2.590034E-03  4.719601E-20 -1.062798E+00  0.000000E+00
  1.430940E-01  5.129949E-02  5.000000E-01  1.445391E-01  5.174950E-02  0.000000E+00  2.322574E-02  3.121047E-03  3.120612E-19 -1.114009E+00  0.000000E+00
  1.303270E-01  4.946771E-02  5.000000E-01  1.316432E-01  4.989921E-02  0.000000E+00  2.428474E-02  3.772210E-03 -4.690181E-19 -1.159298E+00  0.000000E+00
  1.182110E-01  4.744976E-02  5.000000E-01  1.194048E-01  4.786088E-02  0.000000E+00  2.535873E-02  4.577270E-03 -3.263364E-19 -1.181726E+00  0.000000E+00
  1.067560E-01  4.523214E-02  5.000000E-01  1.078341E-01  4.562087E-02  0.000000E+00  2.629175E-02  5.488722E-03  5.405695E-19 -1.171858E+00  0.000000E+00
  9.596750E-02  4.282292E-02  5.000000E-01  9.693669E-02  4.318731E-02  0.000000E+00  2.687209E-02  6.352817E-03  8.913001E-19 -1.139974E+00  0.000000E+00
  8.582800E-02  4.029232E-02  5.000000E-01  8.669479E-02  4.063116E-02  0.000000E+00  2.702728E-02  7.026684E-03  4.074908E-19 -1.107884E+00  0.000000E+00
  8.582800E-02  4.029232E-02  5.000000E-01  8.669479E-02  4.063116E-02  0.000000E+00  2.702728E-02  7.026684E-03  4.074908E-19 -1.107884E+00  0.000000E+00
  7.631050E-02  3.771697E-02  5.000000E-01  7.708117E-02  3.802981E-02  0.000000E+00  2.693859E-02  7.584677E-03  1.751092E-18 -1.081010E+00  0.000000E+00
  6.740780E-02  3.511290E-02  5.000000E-01  6.808856E-02  3.539943E-02  0.000000E+00  2.682626E-02  8.178118E-03  3.774855E-18 -1.051893E+00  0.000000E+00
  5.911740E-02  3.248344E-02  5.000000E-01  5.971444E-02  3.274342E-02  0.000000E+00  2.676271E-02  8.839062E-03  4.366115E-18 -1.017195E+00  0.000000E+00
  5.143150E-02  2.984446E-02  5.000000E-01  5.195092E-02  3.007778E-02  0.000000E+00  2.671754E-02  9.533301E-03  4.676968E-18 -9.781143E-01  0.000000E+00
  4.433770E-02  2.721772E-02  5.000000E-01  4.478548E-02  2.742452E-02  0.000000E+00  2.663950E-02  1.023312E-02  7.847324E-18 -9.385076E-01  0.000000E+00
  3.782240E-02  2.462418E-02  5.000000E-01  3.820438E-02  2.480478E-02  0.000000E+00  2.650563E-02  1.094296E-02  1.257697E-17 -9.032255E-01  0.000000E+00
  3.187460E-02  2.207902E-02  5.000000E-01  3.219651E-02  2.223392E-02  0.000000E+00  2.633747E-02  1.169801E-02  1.761204E-17 -8.746025E-01  0.000000E+00
  2.648400E-02  1.959566E-02  5.000000E-01  2.675147E-02  1.972548E-02  0.000000E+00  2.618073E-02  1.258474E-02  2.614639E-17 -8.432087E-01  0.000000E+00
  2.164990E-02  1.717636E-02  5.000000E-01  2.186855E-02  1.728175E-02  0.000000E+00  2.599290E-02  1.366981E-02  3.358651E-17 -7.876272E-01  0.000000E+00
  1.737670E-02  1.482201E-02  5.000000E-01  1.755219E-02  1.490363E-02  0.000000E+00  2.555564E-02  1.476085E-02  3.884422E-17 -7.017289E-01  0.000000E+00
  1.364080E-02  1.256257E-02  5.000000E-01  1.377856E-02  1.262137E-02  0.000000E+00  2.467064E-02  1.547509E-02  4.894462E-17 -6.108175E-01  0.000000E+00
  1.039090E-02  1.044575E-02  5.000000E-01  1.049584E-02  1.048316E-02  0.000000E+00  2.341699E-02  1.572285E-02  7.330911E-17 -5.464965E-01  0.000000E+00
  7.586340E-03  8.501748E-03  5.000000E-01  7.662960E-03  8.519533E-03  0.000000E+00  2.210421E-02  1.594258E-02  1.223506E-16 -5.154914E-01  0.000000E+00
  5.226210E-03  6.729404E-03  5.000000E-01  5.278995E-03  6.729290E-03  0.000000E+00  2.105727E-02  1.678189E-02  2.085472E-16 -5.052676E-01  0.000000E+00
  3.324300E-03  5.121848E-03  5.000000E-01  3.357877E-03  5.105499E-03  0.000000E+00  2.050558E-02  1.886690E-02  3.541428E-16 -5.020119E-01  0.000000E+00
  1.883580E-03  3.686468E-03  5.000000E-01  1.902608E-03  3.655623E-03  0.000000E+00  2.036681E-02  2.297385E-02  5.863224E-16 -4.773295E-01  0.000000E+00
  8.951490E-04  2.442911E-03  5.000000E-01  9.041943E-04  2.399508E-03  0.000000E+00  1.962057E-02  2.959219E-02  8.860688E-16 -3.815929E-01  0.000000E+00
  3.201820E-04  1.425076E-03  5.000000E-01  3.234206E-04  1.371393E-03  0.000000E+00  1.630999E-02  3.728587E-02  1.152482E-15 -1.846798E-01  0.000000E+00
  6.852390E-05  6.733742E-04  5.000000E-01  6.922101E-05  6.120998E-04  0.000000E+00  1.002785E-02  4.224490E-02  1.261438E-15  3.890570E-02  0.000000E+00
  4.217600E-06  2.185981E-04  5.000000E-01  4.265277E-06  1.527309E-04  0.000000E+00  3.746202E-03  4.395954E-02  1.174531E-15  1.175809E-01  0.000000E+00
 -5.032520E-09  6.739420E-05  5.000000E-01  0.000000E+00  0.000000E+00  0.000000E+00 -5.787109E-04  4.998132E-02  9.871805E-16  8.057334E-02  0.000000E+00
  5.154440E-06 -8.441787E-05  5.000000E-01  5.211578E-06 -1.533452E-04  0.000000E+00 -5.451083E-03  5.339671E-02  7.944436E-16  2.143130E-01  0.000000E+00