 Title = "ADflow Slice Data"
Variables =  "CoordinateX"  "CoordinateY"  "CoordinateZ"  "XoC"  "YoC"  "ZoC" "VelocityX" "VelocityY" "VelocityZ" "CoefPressure" "Mach" 
Zone T= "Slice_0001 None Absolute Regular z = 0.50000000"
 Nodes =          192  Elements=          184  ZONETYPE=FELINESEG
 DATAPACKING=POINT
  5.653940E-01 -2.669653E-03  5.000000E-01  5.711040E-01 -2.772044E-03  0.000000E+00  9.768885E-03  6.152699E-04 -5.135180E-19  1.433906E-01  0.000000E+00
  5.859770E-01 -1.294154E-03  5.000000E-01  5.918948E-01 -1.382654E-03  0.000000E+00  9.468790E-03  6.652648E-04 -6.899504E-19  1.502282E-01  0.000000E+00
  6.063060E-01  2.073297E-04  5.000000E-01  6.124291E-01  1.339938E-04  0.000000E+00  9.126430E-03  6.966123E-04 -2.014933E-19  1.650415E-01  0.000000E+00
  6.263240E-01  1.786164E-03  5.000000E-01  6.326493E-01  1.728773E-03  0.000000E+00  8.786774E-03  6.979290E-04  1.808576E-19  1.839126E-01  0.000000E+00
  6.459860E-01  3.359357E-03  5.000000E-01  6.525099E-01  3.317854E-03  0.000000E+00  8.481681E-03  6.681197E-04  7.033261E-20  2.037829E-01  0.000000E+00
  6.652460E-01  4.851306E-03  5.000000E-01  6.719644E-01  4.824870E-03  0.000000E+00  8.211114E-03  6.221751E-04  1.109255E-19  2.213823E-01  0.000000E+00
  6.840650E-01  6.241778E-03  5.000000E-01  6.909734E-01  6.229385E-03  0.000000E+00  7.943193E-03  5.827492E-04  3.108160E-19  2.342935E-01  0.000000E+00
  7.024070E-01  7.576245E-03  5.000000E-01  7.095007E-01  7.577328E-03  0.000000E+00  7.643900E-03  5.559880E-04  6.477645E-19  2.449238E-01  0.000000E+00
  7.202400E-01  8.875013E-03  5.000000E-01  7.275138E-01  8.889213E-03  0.000000E+00  7.302999E-03  5.300268E-04  4.679642E-19  2.580007E-01  0.000000E+00
  7.375350E-01  1.012712E-02  5.000000E-01  7.449834E-01  1.015396E-02  0.000000E+00  6.932580E-03  4.952361E-04  2.154277E-19  2.746247E-01  0.000000E+00
  7.542690E-01  1.130584E-02  5.000000E-01  7.618864E-01  1.134459E-02  0.000000E+00  6.559764E-03  4.494540E-04  1.638761E-19  2.932084E-01  0.000000E+00
  7.704220E-01  1.237853E-02  5.000000E-01  7.782026E-01  1.242812E-02  0.000000E+00  6.220352E-03  3.941550E-04  1.331747E-19  3.115346E-01  0.000000E+00
  7.859770E-01  1.331412E-02  5.000000E-01  7.939147E-01  1.337315E-02  0.000000E+00  5.958271E-03  3.232462E-04  9.150026E-20  3.293151E-01  0.000000E+00
  8.009220E-01  1.403638E-02  5.000000E-01  8.090106E-01  1.410271E-02  0.000000E+00  5.818065E-03  2.271594E-04 -2.294003E-19  3.467026E-01  0.000000E+00
  8.152480E-01  1.446058E-02  5.000000E-01  8.234813E-01  1.453119E-02  0.000000E+00  5.817272E-03  1.129756E-04 -4.843926E-19  3.593465E-01  0.000000E+00
  8.289490E-01  1.458541E-02  5.000000E-01  8.373206E-01  1.465728E-02  0.000000E+00  5.937434E-03 -3.745048E-06 -2.767923E-19  3.635970E-01  0.000000E+00
  8.420260E-01  1.445283E-02  5.000000E-01  8.505297E-01  1.452336E-02  0.000000E+00  6.144935E-03 -1.156713E-04 -2.259453E-19  3.613270E-01  0.000000E+00
  8.544790E-01  1.411519E-02  5.000000E-01  8.631085E-01  1.418231E-02  0.000000E+00  6.406671E-03 -2.206603E-04 -1.626242E-19  3.555333E-01  0.000000E+00
  8.663160E-01  1.362483E-02  5.000000E-01  8.750650E-01  1.368699E-02  0.000000E+00  6.692999E-03 -3.172554E-04  4.802034E-20  3.477655E-01  0.000000E+00
  8.775420E-01  1.302852E-02  5.000000E-01  8.864044E-01  1.308466E-02  0.000000E+00  6.978290E-03 -4.034282E-04  1.412940E-19  3.387655E-01  0.000000E+00
  8.881660E-01  1.236633E-02  5.000000E-01  8.971357E-01  1.241579E-02  0.000000E+00  7.243047E-03 -4.771504E-04 -3.387057E-20  3.291507E-01  0.000000E+00
  8.981970E-01  1.167108E-02  5.000000E-01  9.072680E-01  1.171352E-02  0.000000E+00  7.476940E-03 -5.395156E-04 -2.442643E-19  3.197021E-01  0.000000E+00
  9.076460E-01  1.096342E-02  5.000000E-01  9.168124E-01  1.099872E-02  0.000000E+00  7.681111E-03 -5.965119E-04  2.222041E-20  3.113204E-01  0.000000E+00
  9.165220E-01  1.025040E-02  5.000000E-01  9.257781E-01  1.027849E-02  0.000000E+00  7.864615E-03 -6.538042E-04 -1.884626E-19  3.040407E-01  0.000000E+00
  9.165220E-01  1.025040E-02  5.000000E-01  9.257781E-01  1.027849E-02  0.000000E+00  7.864615E-03 -6.538042E-04 -1.884626E-19  3.040407E-01  0.000000E+00
  9.248360E-01  9.536336E-03  5.000000E-01  9.341760E-01  9.557215E-03  0.000000E+00  8.037410E-03 -7.132622E-04 -3.109619E-19  2.970893E-01  0.000000E+00
  9.325990E-01  8.825601E-03  5.000000E-01  9.420174E-01  8.839302E-03  0.000000E+00  8.207829E-03 -7.756629E-04  3.701027E-19  2.900329E-01  0.000000E+00
  9.398210E-01  8.122236E-03  5.000000E-01  9.493124E-01  8.128834E-03  0.000000E+00  8.383182E-03 -8.419352E-04  4.994868E-19  2.827816E-01  0.000000E+00
  9.465130E-01  7.430234E-03  5.000000E-01  9.560719E-01  7.429842E-03  0.000000E+00  8.569797E-03 -9.129032E-04  6.674666E-19  2.752259E-01  0.000000E+00
  9.526870E-01  6.753704E-03  5.000000E-01  9.623083E-01  6.746480E-03  0.000000E+00  8.772653E-03 -9.892185E-04  7.948333E-19  2.672192E-01  0.000000E+00
  9.583540E-01  6.097053E-03  5.000000E-01  9.680325E-01  6.083198E-03  0.000000E+00  8.995425E-03 -1.071333E-03 -4.314565E-19  2.586319E-01  0.000000E+00
  9.635240E-01  5.465046E-03  5.000000E-01  9.732547E-01  5.444808E-03  0.000000E+00  9.240985E-03 -1.159354E-03 -3.200797E-18  2.493420E-01  0.000000E+00
  9.682080E-01  4.862744E-03  5.000000E-01  9.779860E-01  4.836424E-03  0.000000E+00  9.513055E-03 -1.253546E-03 -5.561225E-18  2.392956E-01  0.000000E+00
  9.724140E-01  4.295510E-03  5.000000E-01  9.822345E-01  4.263461E-03  0.000000E+00  9.818613E-03 -1.354435E-03  1.096618E-18  2.284866E-01  0.000000E+00
  9.761510E-01  3.768842E-03  5.000000E-01  9.860093E-01  3.731474E-03  0.000000E+00  1.016813E-02 -1.462467E-03  2.565553E-17  2.168831E-01  0.000000E+00
  9.794290E-01  3.288182E-03  5.000000E-01  9.893204E-01  3.245960E-03  0.000000E+00  1.056867E-02 -1.578150E-03  4.417558E-17  2.044953E-01  0.000000E+00
  9.822540E-01  2.858924E-03  5.000000E-01  9.921739E-01  2.812367E-03  0.000000E+00  1.100573E-02 -1.699625E-03 -3.125329E-18  1.915735E-01  0.000000E+00
  9.846330E-01  2.486094E-03  5.000000E-01  9.945769E-01  2.435772E-03  0.000000E+00  1.142437E-02 -1.815730E-03 -8.390095E-17  1.793669E-01  0.000000E+00
  9.865710E-01  2.174267E-03  5.000000E-01  9.965345E-01  2.120795E-03  0.000000E+00  1.169061E-02 -1.892308E-03  1.946911E-17  1.667391E-01  0.000000E+00
  9.880740E-01  1.927377E-03  5.000000E-01  9.980527E-01  1.871412E-03  0.000000E+00  1.158634E-02 -1.921318E-03  3.792762E-16  1.474596E-01  0.000000E+00
  9.891450E-01  1.748637E-03  5.000000E-01  9.991345E-01  1.690867E-03  0.000000E+00  1.178684E-02 -2.059249E-03  4.514726E-16  1.484186E-01  0.000000E+00
  9.897860E-01  1.640433E-03  5.000000E-01  9.997820E-01  1.581570E-03  0.000000E+00  1.516995E-02 -2.086741E-03 -5.401000E-16  1.958595E-01  0.000000E+00
  9.900000E-01  1.604200E-03  5.000000E-01  9.999981E-01  1.544971E-03  0.000000E+00  1.058515E-02 -4.472005E-03 -2.776193E-15 -4.782280E-02  0.000000E+00
  9.900000E-01  1.682910E-03  5.000000E-01  9.999981E-01  1.624476E-03  0.000000E+00  1.059893E-03 -1.486149E-02 -4.393762E-15 -1.856885E-01  0.000000E+00
  9.900000E-01  1.761630E-03  5.000000E-01  9.999981E-01  1.703992E-03  0.000000E+00 -5.271057E-04 -1.396563E-02 -3.888107E-15 -9.860196E-03  0.000000E+00
  9.900000E-01  1.840351E-03  5.000000E-01  9.999981E-01  1.783507E-03  0.000000E+00 -2.989371E-04  2.412722E-03 -2.098794E-15 -1.457079E-02  0.000000E+00
  9.900000E-01  1.919061E-03  5.000000E-01  9.999981E-01  1.863012E-03  0.000000E+00  7.099361E-04  3.833791E-03 -3.945829E-17 -1.322661E-01  0.000000E+00
  9.900000E-01  1.997781E-03  5.000000E-01  9.999981E-01  1.942527E-03  0.000000E+00  5.874491E-03 -2.628814E-03  5.623166E-16 -3.874821E-02  0.000000E+00
  9.900000E-01  1.997781E-03  5.000000E-01  9.999981E-01  1.942527E-03  0.000000E+00  5.874491E-03 -2.628814E-03  5.623166E-16 -3.874821E-02  0.000000E+00
  9.897900E-01  2.043582E-03  5.000000E-01  9.997860E-01  1.988791E-03  0.000000E+00  7.647270E-03 -1.997120E-03  4.801492E-17  1.026270E-01  0.000000E+00
  9.891580E-01  2.180941E-03  5.000000E-01  9.991476E-01  2.127537E-03  0.000000E+00  4.736826E-03 -9.683837E-04  3.058889E-17  6.053355E-02  0.000000E+00
  9.881040E-01  2.409676E-03  5.000000E-01  9.980830E-01  2.358582E-03  0.000000E+00  3.974666E-03 -8.598865E-04  1.282795E-16  5.088948E-02  0.000000E+00
  9.866260E-01  2.729488E-03  5.000000E-01  9.965900E-01  2.681624E-03  0.000000E+00  3.786763E-03 -8.234382E-04  6.221199E-17  5.264572E-02  0.000000E+00
  9.847200E-01  3.139944E-03  5.000000E-01  9.946648E-01  3.096225E-03  0.000000E+00  3.710104E-03 -7.961349E-04 -1.906634E-17  4.733109E-02  0.000000E+00
  9.823820E-01  3.640431E-03  5.000000E-01  9.923032E-01  3.601767E-03  0.000000E+00  3.767925E-03 -8.031278E-04 -2.451645E-17  3.924231E-02  0.000000E+00
  9.796080E-01  4.230108E-03  5.000000E-01  9.895012E-01  4.197399E-03  0.000000E+00  3.937090E-03 -8.332027E-04 -6.909942E-19  3.034921E-02  0.000000E+00
  9.763910E-01  4.907931E-03  5.000000E-01  9.862517E-01  4.882067E-03  0.000000E+00  4.175371E-03 -8.754208E-04  8.535692E-18  2.014040E-02  0.000000E+00
  9.727270E-01  5.672458E-03  5.000000E-01  9.825507E-01  5.654315E-03  0.000000E+00  4.454947E-03 -9.239060E-04  4.900845E-18  8.521336E-03  0.000000E+00
  9.686070E-01  6.522043E-03  5.000000E-01  9.783891E-01  6.512480E-03  0.000000E+00  4.759393E-03 -9.747100E-04  7.419162E-19 -4.266844E-03  0.000000E+00
  9.640240E-01  7.454579E-03  5.000000E-01  9.737598E-01  7.454434E-03  0.000000E+00  5.079764E-03 -1.025447E-03 -6.227671E-19 -1.806653E-02  0.000000E+00
  9.589680E-01  8.467610E-03  5.000000E-01  9.686527E-01  8.477695E-03  0.000000E+00  5.412184E-03 -1.074928E-03 -5.622260E-19 -3.273861E-02  0.000000E+00
  9.534310E-01  9.558193E-03  5.000000E-01  9.630598E-01  9.579292E-03  0.000000E+00  5.754838E-03 -1.122409E-03  1.510323E-19 -4.814205E-02  0.000000E+00
  9.474030E-01  1.072297E-02  5.000000E-01  9.569709E-01  1.075583E-02  0.000000E+00  6.105669E-03 -1.166896E-03 -5.928361E-20 -6.404565E-02  0.000000E+00
  9.408720E-01  1.195814E-02  5.000000E-01  9.503740E-01  1.200348E-02  0.000000E+00  6.461194E-03 -1.207436E-03 -1.601288E-19 -8.027155E-02  0.000000E+00
  9.338280E-01  1.325945E-02  5.000000E-01  9.432588E-01  1.331793E-02  0.000000E+00  6.816983E-03 -1.243077E-03  2.499634E-19 -9.665339E-02  0.000000E+00
  9.262600E-01  1.462231E-02  5.000000E-01  9.356144E-01  1.469455E-02  0.000000E+00  7.167792E-03 -1.272574E-03  3.032748E-20 -1.129462E-01  0.000000E+00
  9.181550E-01  1.604159E-02  5.000000E-01  9.274275E-01  1.612817E-02  0.000000E+00  7.507318E-03 -1.294797E-03  5.512767E-21 -1.289551E-01  0.000000E+00
  9.095020E-01  1.751202E-02  5.000000E-01  9.186872E-01  1.761345E-02  0.000000E+00  7.828477E-03 -1.308647E-03 -5.491657E-20 -1.443704E-01  0.000000E+00
  9.002880E-01  1.902781E-02  5.000000E-01  9.093801E-01  1.914455E-02  0.000000E+00  8.122833E-03 -1.313180E-03  3.318716E-19 -1.586688E-01  0.000000E+00
  8.905020E-01  2.058310E-02  5.000000E-01  8.994953E-01  2.071554E-02  0.000000E+00  8.380619E-03 -1.308976E-03  4.547009E-19 -1.715227E-01  0.000000E+00
  8.801320E-01  2.217522E-02  5.000000E-01  8.890205E-01  2.232374E-02  0.000000E+00  8.593607E-03 -1.298454E-03 -2.540852E-19 -1.830054E-01  0.000000E+00
  8.691700E-01  2.380534E-02  5.000000E-01  8.779478E-01  2.397032E-02  0.000000E+00  8.758400E-03 -1.284215E-03 -3.055794E-19 -1.933375E-01  0.000000E+00
  8.691700E-01  2.380534E-02  5.000000E-01  8.779478E-01  2.397032E-02  0.000000E+00  8.758400E-03 -1.284215E-03 -3.055794E-19 -1.933375E-01  0.000000E+00
  8.576080E-01  2.547697E-02  5.000000E-01  8.662691E-01  2.565883E-02  0.000000E+00  8.877178E-03 -1.268599E-03  7.663258E-19 -2.026584E-01  0.000000E+00
  8.454380E-01  2.719608E-02  5.000000E-01  8.539762E-01  2.739531E-02  0.000000E+00  8.956930E-03 -1.254794E-03  1.213121E-18 -2.111734E-01  0.000000E+00
  8.326580E-01  2.897196E-02  5.000000E-01  8.410671E-01  2.918912E-02  0.000000E+00  9.009758E-03 -1.246647E-03  1.243950E-18 -2.194146E-01  0.000000E+00
  8.192630E-01  3.081776E-02  5.000000E-01  8.275368E-01  3.105356E-02  0.000000E+00  9.053868E-03 -1.248613E-03  1.126918E-18 -2.287212E-01  0.000000E+00
  8.052550E-01  3.275075E-02  5.000000E-01  8.133874E-01  3.300608E-02  0.000000E+00  9.114797E-03 -1.264090E-03 -2.069210E-19 -2.410936E-01  0.000000E+00
  7.906370E-01  3.478738E-02  5.000000E-01  7.986217E-01  3.506327E-02  0.000000E+00  9.223185E-03 -1.291313E-03 -1.371331E-18 -2.576855E-01  0.000000E+00
  7.754120E-01  3.692907E-02  5.000000E-01  7.832430E-01  3.722659E-02  0.000000E+00  9.404409E-03 -1.323695E-03 -1.435784E-18 -2.781233E-01  0.000000E+00
  7.595880E-01  3.915759E-02  5.000000E-01  7.672592E-01  3.947762E-02  0.000000E+00  9.667450E-03 -1.355483E-03 -1.059116E-18 -3.017765E-01  0.000000E+00
  7.431760E-01  4.144846E-02  5.000000E-01  7.506814E-01  4.179163E-02  0.000000E+00  1.000460E-02 -1.382676E-03  1.035829E-18 -3.280640E-01  0.000000E+00
  7.261880E-01  4.377327E-02  5.000000E-01  7.335218E-01  4.413991E-02  0.000000E+00  1.039672E-02 -1.400518E-03  2.615382E-18 -3.556778E-01  0.000000E+00
  7.086430E-01  4.610073E-02  5.000000E-01  7.157997E-01  4.649088E-02  0.000000E+00  1.081717E-02 -1.404499E-03  1.477810E-18 -3.826249E-01  0.000000E+00
  6.905640E-01  4.840007E-02  5.000000E-01  6.975381E-01  4.881343E-02  0.000000E+00  1.123675E-02 -1.393874E-03 -6.035116E-19 -4.074103E-01  0.000000E+00
  6.719770E-01  5.065000E-02  5.000000E-01  6.787634E-01  5.108609E-02  0.000000E+00  1.163224E-02 -1.375046E-03 -8.285542E-21 -4.307985E-01  0.000000E+00
  6.529150E-01  5.285043E-02  5.000000E-01  6.595089E-01  5.330874E-02  0.000000E+00  1.199973E-02 -1.355232E-03  1.238463E-18 -4.548424E-01  0.000000E+00
  6.334180E-01  5.500484E-02  5.000000E-01  6.398150E-01  5.548491E-02  0.000000E+00  1.235704E-02 -1.333407E-03 -4.058082E-20 -4.805786E-01  0.000000E+00
  6.135280E-01  5.710067E-02  5.000000E-01  6.197241E-01  5.760191E-02  0.000000E+00  1.272753E-02 -1.305194E-03  4.273171E-19 -5.085248E-01  0.000000E+00
  5.932910E-01  5.911964E-02  5.000000E-01  5.992827E-01  5.964126E-02  0.000000E+00  1.312771E-02 -1.266990E-03  1.666024E-18 -5.385888E-01  0.000000E+00
  5.727570E-01  6.103631E-02  5.000000E-01  5.785413E-01  6.157729E-02  0.000000E+00  1.356285E-02 -1.213317E-03  1.333362E-18 -5.687246E-01  0.000000E+00
  5.519810E-01  6.281807E-02  5.000000E-01  5.575555E-01  6.337705E-02  0.000000E+00  1.402213E-02 -1.139396E-03  5.384098E-19 -5.961303E-01  0.000000E+00
  5.310180E-01  6.443130E-02  5.000000E-01  5.363808E-01  6.500657E-02  0.000000E+00  1.447966E-02 -1.051211E-03 -8.667107E-20 -6.212043E-01  0.000000E+00
  5.099250E-01  6.587243E-02  5.000000E-01  5.150748E-01  6.646226E-02  0.000000E+00  1.491655E-02 -9.614224E-04  5.047680E-19 -6.475187E-01  0.000000E+00
  4.887640E-01  6.715535E-02  5.000000E-01  4.937001E-01  6.775813E-02  0.000000E+00  1.534485E-02 -8.671733E-04  1.038556E-18 -6.760098E-01  0.000000E+00
  4.675910E-01  6.826760E-02  5.000000E-01  4.723133E-01  6.888161E-02  0.000000E+00  1.578903E-02 -7.534557E-04  1.014412E-18 -7.041305E-01  0.000000E+00
  7.860720E-05 -4.429472E-04  5.000000E-01  7.940615E-05 -5.228503E-04  0.000000E+00 -1.120798E-02  3.621811E-02 -6.344171E-15  7.932610E-01  0.000000E+00
  3.989240E-04 -1.047662E-03  5.000000E-01  4.029579E-04 -1.133672E-03  0.000000E+00 -1.020697E-02  1.600332E-02 -3.663184E-15  1.080946E+00  0.000000E+00
  1.196920E-03 -1.780413E-03  5.000000E-01  1.209013E-03 -1.873823E-03  0.000000E+00 -2.679235E-03  2.805884E-03 -1.935759E-15  1.079429E+00  0.000000E+00
  2.563580E-03 -2.548878E-03  5.000000E-01  2.589475E-03 -2.650049E-03  0.000000E+00  4.651560E-03 -2.018951E-03 -4.005063E-16  9.356315E-01  0.000000E+00
  4.492740E-03 -3.312172E-03  5.000000E-01  4.538118E-03 -3.421051E-03  0.000000E+00  8.998861E-03 -3.106282E-03  5.491455E-16  8.112495E-01  0.000000E+00
  6.952190E-03 -4.066991E-03  5.000000E-01  7.022406E-03 -4.183494E-03  0.000000E+00  1.118196E-02 -3.150821E-03  7.081872E-16  7.248620E-01  0.000000E+00
  9.910730E-03 -4.834993E-03  5.000000E-01  1.001082E-02 -4.959252E-03  0.000000E+00  1.231282E-02 -3.035675E-03  4.774027E-16  6.567791E-01  0.000000E+00
  1.334950E-02 -5.641598E-03  5.000000E-01  1.348432E-02 -5.774003E-03  0.000000E+00  1.298126E-02 -2.873867E-03  2.631891E-16  5.899225E-01  0.000000E+00
  1.728780E-02 -6.465403E-03  5.000000E-01  1.746240E-02 -6.606128E-03  0.000000E+00  1.337978E-02 -2.581419E-03  1.574345E-16  5.177324E-01  0.000000E+00
  2.175590E-02 -7.256508E-03  5.000000E-01  2.197562E-02 -7.405222E-03  0.000000E+00  1.356228E-02 -2.176034E-03  9.725087E-17  4.504958E-01  0.000000E+00
  2.676920E-02 -7.976716E-03  5.000000E-01  2.703955E-02 -8.132703E-03  0.000000E+00  1.359620E-02 -1.757901E-03  4.133676E-17  3.996604E-01  0.000000E+00
  3.232800E-02 -8.614317E-03  5.000000E-01  3.265449E-02 -8.776743E-03  0.000000E+00  1.355406E-02 -1.400618E-03 -4.151889E-18  3.661561E-01  0.000000E+00
  3.842930E-02 -9.175204E-03  5.000000E-01  3.881741E-02 -9.343295E-03  0.000000E+00  1.347889E-02 -1.125322E-03 -2.589169E-17  3.438138E-01  0.000000E+00
  4.507220E-02 -9.673610E-03  5.000000E-01  4.552739E-02 -9.846735E-03  0.000000E+00  1.340299E-02 -9.388352E-04 -2.590415E-17  3.280035E-01  0.000000E+00
  5.225680E-02 -1.014038E-02  5.000000E-01  5.278455E-02 -1.031821E-02  0.000000E+00  1.336260E-02 -8.388820E-04 -1.610708E-17  3.161020E-01  0.000000E+00
  5.998640E-02 -1.060904E-02  5.000000E-01  6.059221E-02 -1.079161E-02  0.000000E+00  1.336532E-02 -7.877119E-04 -6.233277E-18  3.028407E-01  0.000000E+00
  6.827110E-02 -1.108435E-02  5.000000E-01  6.896058E-02 -1.127172E-02  0.000000E+00  1.338641E-02 -7.433345E-04 -2.382284E-19  2.853087E-01  0.000000E+00
  7.712280E-02 -1.155953E-02  5.000000E-01  7.790168E-02 -1.175170E-02  0.000000E+00  1.340375E-02 -6.949193E-04  2.215466E-18  2.663206E-01  0.000000E+00
  8.655260E-02 -1.203050E-02  5.000000E-01  8.742671E-02 -1.222742E-02  0.000000E+00  1.340473E-02 -6.417331E-04  2.942209E-18  2.483624E-01  0.000000E+00
  9.657140E-02 -1.248951E-02  5.000000E-01  9.754669E-02 -1.269107E-02  0.000000E+00  1.337421E-02 -5.745708E-04  2.781151E-18  2.309914E-01  0.000000E+00
  1.071900E-01 -1.291572E-02  5.000000E-01  1.082725E-01 -1.312159E-02  0.000000E+00  1.330452E-02 -4.915660E-04  1.989548E-18  2.144936E-01  0.000000E+00
  1.184180E-01 -1.329405E-02  5.000000E-01  1.196139E-01 -1.350374E-02  0.000000E+00  1.321187E-02 -4.092989E-04  1.041764E-18  2.010998E-01  0.000000E+00
  1.302610E-01 -1.362799E-02  5.000000E-01  1.315765E-01 -1.384105E-02  0.000000E+00  1.312354E-02 -3.435884E-04  3.236823E-19  1.911155E-01  0.000000E+00
  1.427230E-01 -1.392887E-02  5.000000E-01  1.441644E-01 -1.414497E-02  0.000000E+00  1.305631E-02 -2.984810E-04 -3.236387E-19  1.826616E-01  0.000000E+00
  1.427230E-01 -1.392887E-02  5.000000E-01  1.441644E-01 -1.414497E-02  0.000000E+00  1.305631E-02 -2.984810E-04 -3.236387E-19  1.826616E-01  0.000000E+00
  1.558070E-01 -1.421139E-02  5.000000E-01  1.573805E-01 -1.443034E-02  0.000000E+00  1.300547E-02 -2.653490E-04 -5.319757E-19  1.735055E-01  0.000000E+00
  1.695140E-01 -1.447530E-02  5.000000E-01  1.712259E-01 -1.469692E-02  0.000000E+00  1.294797E-02 -2.278200E-04 -2.545728E-19  1.624402E-01  0.000000E+00
  1.838420E-01 -1.470379E-02  5.000000E-01  1.856986E-01 -1.492771E-02  0.000000E+00  1.286023E-02 -1.742209E-04 -5.091648E-21  1.504655E-01  0.000000E+00
  1.987870E-01 -1.487017E-02  5.000000E-01  2.007946E-01 -1.509578E-02  0.000000E+00  1.273379E-02 -1.024370E-04  8.647906E-20  1.394618E-01  0.000000E+00
  2.143420E-01 -1.494653E-02  5.000000E-01  2.165067E-01 -1.517291E-02  0.000000E+00  1.258521E-02 -2.585208E-05  1.367623E-19  1.314825E-01  0.000000E+00
  2.304940E-01 -1.493199E-02  5.000000E-01  2.328218E-01 -1.515822E-02  0.000000E+00  1.245193E-02  3.083992E-05 -2.350968E-20  1.279029E-01  0.000000E+00
  2.472290E-01 -1.486302E-02  5.000000E-01  2.497258E-01 -1.508855E-02  0.000000E+00  1.236453E-02  5.667942E-05 -1.868122E-19  1.268023E-01  0.000000E+00
  2.645310E-01 -1.477640E-02  5.000000E-01  2.672025E-01 -1.500106E-02  0.000000E+00  1.232145E-02  6.811132E-05 -2.338245E-19  1.235954E-01  0.000000E+00
  2.823750E-01 -1.467009E-02  5.000000E-01  2.852267E-01 -1.489367E-02  0.000000E+00  1.229551E-02  9.095936E-05 -4.456052E-19  1.158732E-01  0.000000E+00
  3.007320E-01 -1.450835E-02  5.000000E-01  3.037691E-01 -1.473030E-02  0.000000E+00  1.225950E-02  1.360404E-04 -2.582306E-19  1.058872E-01  0.000000E+00
  3.195690E-01 -1.425546E-02  5.000000E-01  3.227964E-01 -1.447485E-02  0.000000E+00  1.219807E-02  1.979540E-04  1.193168E-22  9.729620E-02  0.000000E+00
  3.388440E-01 -1.388752E-02  5.000000E-01  3.422660E-01 -1.410320E-02  0.000000E+00  1.210297E-02  2.663039E-04 -1.346326E-19  9.189983E-02  0.000000E+00
  3.585140E-01 -1.339661E-02  5.000000E-01  3.621347E-01 -1.360734E-02  0.000000E+00  1.196430E-02  3.344864E-04 -4.354241E-21  8.936787E-02  0.000000E+00
  3.785290E-01 -1.277668E-02  5.000000E-01  3.823518E-01 -1.298114E-02  0.000000E+00  1.176813E-02  4.013789E-04  5.182517E-19  8.869198E-02  0.000000E+00
  3.988350E-01 -1.201935E-02  5.000000E-01  4.028629E-01 -1.221617E-02  0.000000E+00  1.150620E-02  4.667075E-04  8.625417E-19  9.004665E-02  0.000000E+00
  4.193750E-01 -1.111749E-02  5.000000E-01  4.236103E-01 -1.130520E-02  0.000000E+00  1.118503E-02  5.334694E-04  7.670770E-19  9.383425E-02  0.000000E+00
  4.400850E-01 -1.004939E-02  5.000000E-01  4.445295E-01 -1.022631E-02  0.000000E+00  1.083546E-02  6.003090E-04  3.850177E-19  1.005638E-01  0.000000E+00
  4.609060E-01 -8.813021E-03  5.000000E-01  4.655607E-01 -8.977454E-03  0.000000E+00  1.051727E-02  6.464317E-04  1.074800E-19  1.119575E-01  0.000000E+00
  4.818030E-01 -7.481051E-03  5.000000E-01  4.866688E-01 -7.632032E-03  0.000000E+00  1.029460E-02  6.431016E-04 -3.239201E-19  1.285176E-01  0.000000E+00
  5.027520E-01 -6.197825E-03  5.000000E-01  5.078293E-01 -6.335848E-03  0.000000E+00  1.018069E-02  5.953923E-04 -1.995132E-19  1.444896E-01  0.000000E+00
  5.237130E-01 -5.034516E-03  5.000000E-01  5.290020E-01 -5.160790E-03  0.000000E+00  1.010991E-02  5.549732E-04  5.238869E-19  1.506825E-01  0.000000E+00
  5.446170E-01 -3.905570E-03  5.000000E-01  5.501171E-01 -4.020443E-03  0.000000E+00  9.987605E-03  5.661966E-04  1.394163E-19  1.464461E-01  0.000000E+00
  5.653940E-01 -2.669653E-03  5.000000E-01  5.711040E-01 -2.772044E-03  0.000000E+00  9.768885E-03  6.152699E-04 -5.135180E-19  1.433906E-01  0.000000E+00
  4.675910E-01  6.826760E-02  5.000000E-01  4.723133E-01  6.888161E-02  0.000000E+00  1.578903E-02 -7.534557E-04  1.014412E-18 -7.041305E-01  0.000000E+00
  4.464640E-01  6.917759E-02  5.000000E-01  4.509729E-01  6.980079E-02  0.000000E+00  1.625318E-02 -6.177872E-04  8.581626E-19 -7.306935E-01  0.000000E+00
  4.254410E-01  6.987316E-02  5.000000E-01  4.297376E-01  7.050338E-02  0.000000E+00  1.672624E-02 -4.668298E-04  1.166620E-19 -7.563293E-01  0.000000E+00
  4.045840E-01  7.035002E-02  5.000000E-01  4.086699E-01  7.098506E-02  0.000000E+00  1.719932E-02 -3.027881E-04 -1.584060E-19 -7.815276E-01  0.000000E+00
  3.839530E-01  7.060730E-02  5.000000E-01  3.878306E-01  7.124494E-02  0.000000E+00  1.766962E-02 -1.232391E-04 -1.833311E-19 -8.061018E-01  0.000000E+00
  3.636060E-01  7.064022E-02  5.000000E-01  3.672781E-01  7.127820E-02  0.000000E+00  1.813736E-02  7.541470E-05 -8.472615E-20 -8.290599E-01  0.000000E+00
  3.435960E-01  7.044471E-02  5.000000E-01  3.470660E-01  7.108071E-02  0.000000E+00  1.859946E-02  2.943880E-04 -5.776521E-20 -8.494011E-01  0.000000E+00
  3.239710E-01  7.001834E-02  5.000000E-01  3.272428E-01  7.065004E-02  0.000000E+00  1.904711E-02  5.291489E-04 -1.562044E-19 -8.674710E-01  0.000000E+00
  3.047740E-01  6.937088E-02  5.000000E-01  3.078519E-01  6.999603E-02  0.000000E+00  1.947431E-02  7.726624E-04 -2.792840E-19 -8.846907E-01  0.000000E+00
  2.860450E-01  6.851845E-02  5.000000E-01  2.889338E-01  6.913499E-02  0.000000E+00  1.988979E-02  1.028911E-03 -2.744216E-19 -9.008921E-01  0.000000E+00
  2.678190E-01  6.746492E-02  5.000000E-01  2.705237E-01  6.807082E-02  0.000000E+00  2.030394E-02  1.305206E-03 -7.153466E-19 -9.151448E-01  0.000000E+00
  2.501300E-01  6.621556E-02  5.000000E-01  2.526561E-01  6.680885E-02  0.000000E+00  2.071603E-02  1.600462E-03 -9.694769E-19 -9.278549E-01  0.000000E+00
  2.330040E-01  6.478084E-02  5.000000E-01  2.353571E-01  6.535964E-02  0.000000E+00  2.112222E-02  1.911934E-03 -3.575909E-19 -9.399356E-01  0.000000E+00
  2.164660E-01  6.317370E-02  5.000000E-01  2.186521E-01  6.373627E-02  0.000000E+00  2.152401E-02  2.239912E-03  1.739083E-19 -9.512822E-01  0.000000E+00
  2.005340E-01  6.140811E-02  5.000000E-01  2.025592E-01  6.195284E-02  0.000000E+00  2.193153E-02  2.594980E-03  6.951579E-19 -9.589581E-01  0.000000E+00
  1.852230E-01  5.948504E-02  5.000000E-01  1.870936E-01  6.001035E-02  0.000000E+00  2.234360E-02  2.982393E-03  6.946308E-19 -9.605492E-01  0.000000E+00
  1.705440E-01  5.741294E-02  5.000000E-01  1.722663E-01  5.791733E-02  0.000000E+00  2.273950E-02  3.384948E-03 -3.888661E-19 -9.595558E-01  0.000000E+00
  1.565000E-01  5.521511E-02  5.000000E-01  1.580805E-01  5.569730E-02  0.000000E+00  2.311442E-02  3.787440E-03 -1.765933E-18 -9.634975E-01  0.000000E+00
  1.430940E-01  5.291898E-02  5.000000E-01  1.445391E-01  5.337799E-02  0.000000E+00  2.350957E-02  4.213033E-03 -2.617957E-18 -9.754530E-01  0.000000E+00
  1.303270E-01  5.053067E-02  5.000000E-01  1.316432E-01  5.096555E-02  0.000000E+00  2.398468E-02  4.730088E-03 -3.132423E-18 -9.864642E-01  0.000000E+00
  1.182110E-01  4.802209E-02  5.000000E-01  1.194048E-01  4.843164E-02  0.000000E+00  2.452451E-02  5.375375E-03 -2.736357E-18 -9.820128E-01  0.000000E+00
  1.067560E-01  4.537821E-02  5.000000E-01  1.078341E-01  4.576106E-02  0.000000E+00  2.500284E-02  6.104516E-03 -2.088336E-18 -9.533236E-01  0.000000E+00
  9.596750E-02  4.260403E-02  5.000000E-01  9.693669E-02  4.295886E-02  0.000000E+00  2.524504E-02  6.779789E-03 -2.191974E-18 -9.083879E-01  0.000000E+00
  8.582800E-02  3.976342E-02  5.000000E-01  8.669479E-02  4.008957E-02  0.000000E+00  2.518469E-02  7.278819E-03 -3.222043E-18 -8.654944E-01  0.000000E+00
  8.582800E-02  3.976342E-02  5.000000E-01  8.669479E-02  4.008957E-02  0.000000E+00  2.518469E-02  7.278819E-03 -3.222043E-18 -8.654944E-01  0.000000E+00
  7.631050E-02  3.692618E-02  5.000000E-01  7.708117E-02  3.722368E-02  0.000000E+00  2.495157E-02  7.671594E-03 -4.465251E-18 -8.286202E-01  0.000000E+00
  6.740780E-02  3.410545E-02  5.000000E-01  6.808856E-02  3.437445E-02  0.000000E+00  2.470517E-02  8.088687E-03 -2.459878E-18 -7.909850E-01  0.000000E+00
  5.911740E-02  3.130321E-02  5.000000E-01  5.971444E-02  3.154391E-02  0.000000E+00  2.449758E-02  8.553327E-03  8.790676E-18 -7.498346E-01  0.000000E+00
  5.143150E-02  2.853368E-02  5.000000E-01  5.195092E-02  2.874642E-02  0.000000E+00  2.430867E-02  9.034021E-03  3.252763E-17 -7.058837E-01  0.000000E+00
  4.433770E-02  2.581678E-02  5.000000E-01  4.478548E-02  2.600207E-02  0.000000E+00  2.410238E-02  9.507061E-03  6.997888E-17 -6.616720E-01  0.000000E+00
  3.782240E-02  2.317154E-02  5.000000E-01  3.820438E-02  2.333012E-02  0.000000E+00  2.385964E-02  9.974767E-03  1.076495E-16 -6.209702E-01  0.000000E+00
  3.187460E-02  2.061163E-02  5.000000E-01  3.219651E-02  2.074436E-02  0.000000E+00  2.359284E-02  1.046291E-02  1.058180E-16 -5.867379E-01  0.000000E+00
  2.648400E-02  1.814877E-02  5.000000E-01  2.675147E-02  1.825662E-02  0.000000E+00  2.333535E-02  1.103816E-02  1.406092E-17 -5.529622E-01  0.000000E+00
  2.164990E-02  1.578451E-02  5.000000E-01  2.186855E-02  1.586849E-02  0.000000E+00  2.305881E-02  1.175423E-02 -2.261284E-16 -5.027592E-01  0.000000E+00
  1.737670E-02  1.351896E-02  5.000000E-01  1.755219E-02  1.358006E-02  0.000000E+00  2.260686E-02  1.246972E-02 -6.602090E-16 -4.302549E-01  0.000000E+00
  1.364080E-02  1.137655E-02  5.000000E-01  1.377856E-02  1.141601E-02  0.000000E+00  2.183796E-02  1.290466E-02 -1.204244E-15 -3.545801E-01  0.000000E+00
  1.039090E-02  9.395353E-03  5.000000E-01  1.049584E-02  9.414808E-03  0.000000E+00  2.082176E-02  1.300976E-02 -1.512016E-15 -3.002610E-01  0.000000E+00
  7.586340E-03  7.597192E-03  5.000000E-01  7.662960E-03  7.598487E-03  0.000000E+00  1.981911E-02  1.314674E-02 -1.168039E-15 -2.724354E-01  0.000000E+00
  5.226210E-03  5.976938E-03  5.000000E-01  5.278995E-03  5.961870E-03  0.000000E+00  1.913527E-02  1.386074E-02 -1.305661E-16 -2.623233E-01  0.000000E+00
  3.324300E-03  4.524769E-03  5.000000E-01  3.357878E-03  4.495035E-03  0.000000E+00  1.904892E-02  1.574918E-02  1.350907E-15 -2.616117E-01  0.000000E+00
  1.883580E-03  3.242919E-03  5.000000E-01  1.902608E-03  3.200240E-03  0.000000E+00  1.958954E-02  1.966175E-02  2.999110E-15 -2.466215E-01  0.000000E+00
  8.951490E-04  2.143988E-03  5.000000E-01  9.041943E-04  2.090210E-03  0.000000E+00  1.976160E-02  2.632277E-02  3.324366E-15 -1.665194E-01  0.000000E+00
  3.201820E-04  1.252592E-03  5.000000E-01  3.234206E-04  1.189813E-03  0.000000E+00  1.719244E-02  3.449680E-02 -1.151170E-15  1.937311E-02  0.000000E+00
  6.852390E-05  5.988737E-04  5.000000E-01  6.922101E-05  5.294921E-04  0.000000E+00  1.088923E-02  3.989470E-02 -1.138270E-14  2.439341E-01  0.000000E+00
  4.217600E-06  2.052407E-04  5.000000E-01  4.265277E-06  1.318837E-04  0.000000E+00  4.098634E-03  4.142086E-02 -2.064680E-14  3.230457E-01  0.000000E+00
 -5.032520E-09  7.467559E-05  5.000000E-01  0.000000E+00  0.000000E+00  0.000000E+00 -6.893780E-04  4.739691E-02 -2.013984E-14  2.795226E-01  0.000000E+00
  5.154440E-06 -5.626070E-05  5.000000E-01  5.211579E-06 -1.322586E-04  0.000000E+00 -5.888017E-03  5.010813E-02 -1.237989E-14  4.164711E-01  0.000000E+00