 Title = "ADflow Slice Data"
Variables =  "CoordinateX"  "CoordinateY"  "CoordinateZ"  "XoC"  "YoC"  "ZoC" "VelocityX" "VelocityY" "VelocityZ" "CoefPressure" "Mach" 
Zone T= "Slice_0001 None Absolute Regular z = 0.50000000"
 Nodes =          192  Elements=          184  ZONETYPE=FELINESEG
 DATAPACKING=POINT
  5.653940E-01 -5.850487E-03  5.000000E-01  5.711042E-01 -6.206824E-03  0.000000E+00  6.818581E-03  1.434382E-03 -1.900078E-20 -1.978463E-01  0.000000E+00
  5.859770E-01  4.867752E-05  5.000000E-01  5.918950E-01 -2.480814E-04  0.000000E+00  3.126447E-03  9.560892E-04 -5.049118E-18 -9.483953E-03  0.000000E+00
  6.063060E-01  7.298923E-03  5.000000E-01  6.124293E-01  7.075387E-03  0.000000E+00  7.834196E-04  2.896060E-04 -7.500071E-18  1.841657E-01  0.000000E+00
  6.263240E-01  1.498245E-02  5.000000E-01  6.326495E-01  1.483652E-02  0.000000E+00 -4.533878E-04 -1.628922E-04 -6.985860E-18  2.973077E-01  0.000000E+00
  6.459860E-01  2.222015E-02  5.000000E-01  6.525101E-01  2.214731E-02  0.000000E+00 -1.058684E-03 -3.558357E-04 -1.373191E-18  3.362085E-01  0.000000E+00
  6.652460E-01  2.822727E-02  5.000000E-01  6.719646E-01  2.821510E-02  0.000000E+00 -1.357652E-03 -3.674980E-04  2.199412E-19  3.433163E-01  0.000000E+00
  6.840650E-01  3.259413E-02  5.000000E-01  6.909737E-01  3.262606E-02  0.000000E+00 -1.493486E-03 -2.910411E-04 -2.474299E-18  3.475609E-01  0.000000E+00
  7.024070E-01  3.548969E-02  5.000000E-01  7.095009E-01  3.555086E-02  0.000000E+00 -1.509511E-03 -1.909127E-04 -5.415344E-19  3.585950E-01  0.000000E+00
  7.202400E-01  3.716339E-02  5.000000E-01  7.275140E-01  3.724146E-02  0.000000E+00 -1.414582E-03 -9.651050E-05 -7.064734E-19  3.756569E-01  0.000000E+00
  7.375350E-01  3.785140E-02  5.000000E-01  7.449837E-01  3.793643E-02  0.000000E+00 -1.211999E-03 -2.365400E-05 -6.730960E-19  3.954156E-01  0.000000E+00
  7.542690E-01  3.776070E-02  5.000000E-01  7.618867E-01  3.784481E-02  0.000000E+00 -9.097067E-04  1.899744E-05 -1.016344E-18  4.147447E-01  0.000000E+00
  7.704220E-01  3.706093E-02  5.000000E-01  7.782028E-01  3.713797E-02  0.000000E+00 -5.210519E-04  2.763950E-05 -1.411254E-18  4.308662E-01  0.000000E+00
  7.859770E-01  3.588737E-02  5.000000E-01  7.939149E-01  3.595256E-02  0.000000E+00 -6.182896E-05  2.130724E-06 -1.280723E-18  4.420882E-01  0.000000E+00
  8.009220E-01  3.434313E-02  5.000000E-01  8.090109E-01  3.439273E-02  0.000000E+00  4.539148E-04 -5.544633E-05 -6.197995E-19  4.477721E-01  0.000000E+00
  8.152480E-01  3.252219E-02  5.000000E-01  8.234815E-01  3.255340E-02  0.000000E+00  1.014732E-03 -1.407984E-04  1.842651E-19  4.473893E-01  0.000000E+00
  8.289490E-01  3.052923E-02  5.000000E-01  8.373209E-01  3.054031E-02  0.000000E+00  1.609377E-03 -2.465489E-04  3.877245E-19  4.408764E-01  0.000000E+00
  8.420260E-01  2.845601E-02  5.000000E-01  8.505300E-01  2.844615E-02  0.000000E+00  2.225295E-03 -3.641132E-04  3.879746E-19  4.293665E-01  0.000000E+00
  8.544790E-01  2.637099E-02  5.000000E-01  8.631087E-01  2.634008E-02  0.000000E+00  2.847855E-03 -4.856337E-04  1.938632E-19  4.144698E-01  0.000000E+00
  8.663160E-01  2.432315E-02  5.000000E-01  8.750653E-01  2.427155E-02  0.000000E+00  3.459299E-03 -6.041191E-04  2.222732E-19  3.974411E-01  0.000000E+00
  8.775420E-01  2.234733E-02  5.000000E-01  8.864047E-01  2.227578E-02  0.000000E+00  4.040247E-03 -7.131395E-04  8.487265E-21  3.793577E-01  0.000000E+00
  8.881660E-01  2.046752E-02  5.000000E-01  8.971360E-01  2.037698E-02  0.000000E+00  4.573819E-03 -8.075984E-04 -2.929657E-19  3.611741E-01  0.000000E+00
  8.981970E-01  1.869961E-02  5.000000E-01  9.072683E-01  1.859121E-02  0.000000E+00  5.049645E-03 -8.864152E-04 -6.994970E-19  3.436514E-01  0.000000E+00
  9.076460E-01  1.704731E-02  5.000000E-01  9.168127E-01  1.692223E-02  0.000000E+00  5.467073E-03 -9.540131E-04 -6.840566E-19  3.275942E-01  0.000000E+00
  9.165220E-01  1.550174E-02  5.000000E-01  9.257783E-01  1.536104E-02  0.000000E+00  5.834229E-03 -1.016223E-03  2.407590E-19  3.131974E-01  0.000000E+00
  9.165220E-01  1.550174E-02  5.000000E-01  9.257783E-01  1.536104E-02  0.000000E+00  5.834229E-03 -1.016223E-03  2.407590E-19  3.131974E-01  0.000000E+00
  9.248360E-01  1.405307E-02  5.000000E-01  9.341763E-01  1.389775E-02  0.000000E+00  6.162686E-03 -1.076523E-03 -6.102556E-21  2.999294E-01  0.000000E+00
  9.325990E-01  1.269365E-02  5.000000E-01  9.420177E-01  1.252459E-02  0.000000E+00  6.463739E-03 -1.137194E-03 -1.290232E-18  2.873976E-01  0.000000E+00
  9.398210E-01  1.141738E-02  5.000000E-01  9.493126E-01  1.123544E-02  0.000000E+00  6.747608E-03 -1.200205E-03 -1.103365E-18  2.754317E-01  0.000000E+00
  9.465130E-01  1.021965E-02  5.000000E-01  9.560722E-01  1.002562E-02  0.000000E+00  7.023032E-03 -1.267068E-03  2.725953E-19  2.638464E-01  0.000000E+00
  9.526870E-01  9.097205E-03  5.000000E-01  9.623086E-01  8.891831E-03  0.000000E+00  7.296931E-03 -1.338855E-03  1.185271E-18  2.524430E-01  0.000000E+00
  9.583540E-01  8.048229E-03  5.000000E-01  9.680328E-01  7.832261E-03  0.000000E+00  7.574773E-03 -1.416288E-03  1.351452E-18  2.410528E-01  0.000000E+00
  9.635240E-01  7.072215E-03  5.000000E-01  9.732550E-01  6.846389E-03  0.000000E+00  7.861595E-03 -1.499821E-03  6.627151E-19  2.295130E-01  0.000000E+00
  9.682080E-01  6.169586E-03  5.000000E-01  9.779863E-01  5.934644E-03  0.000000E+00  8.164101E-03 -1.590308E-03  2.710283E-19  2.177296E-01  0.000000E+00
  9.724140E-01  5.341826E-03  5.000000E-01  9.822348E-01  5.098525E-03  0.000000E+00  8.492960E-03 -1.689284E-03  2.479336E-19  2.056549E-01  0.000000E+00
  9.761510E-01  4.590965E-03  5.000000E-01  9.860096E-01  4.340081E-03  0.000000E+00  8.861548E-03 -1.798399E-03  4.818702E-21  1.931990E-01  0.000000E+00
  9.794290E-01  3.919330E-03  5.000000E-01  9.893207E-01  3.661662E-03  0.000000E+00  9.276121E-03 -1.918427E-03  4.436047E-20  1.803075E-01  0.000000E+00
  9.822540E-01  3.329784E-03  5.000000E-01  9.921742E-01  3.066162E-03  0.000000E+00  9.715702E-03 -2.045293E-03 -3.420798E-20  1.672008E-01  0.000000E+00
  9.846330E-01  2.825088E-03  5.000000E-01  9.945772E-01  2.556369E-03  0.000000E+00  1.011365E-02 -2.162134E-03  1.062791E-18  1.549674E-01  0.000000E+00
  9.865710E-01  2.407969E-03  5.000000E-01  9.965348E-01  2.135037E-03  0.000000E+00  1.032380E-02 -2.226809E-03  2.261383E-18  1.422094E-01  0.000000E+00
  9.880740E-01  2.080750E-03  5.000000E-01  9.980530E-01  1.804514E-03  0.000000E+00  1.012928E-02 -2.220523E-03 -1.806282E-18  1.239061E-01  0.000000E+00
  9.891450E-01  1.845484E-03  5.000000E-01  9.991348E-01  1.566872E-03  0.000000E+00  1.012092E-02 -2.298964E-03 -2.200161E-17  1.262346E-01  0.000000E+00
  9.897860E-01  1.703736E-03  5.000000E-01  9.997823E-01  1.423692E-03  0.000000E+00  1.268907E-02 -2.383221E-03 -6.290687E-17  1.650499E-01  0.000000E+00
  9.900000E-01  1.656351E-03  5.000000E-01  9.999984E-01  1.375829E-03  0.000000E+00  8.804299E-03 -4.833022E-03 -6.890314E-17 -4.301102E-02  0.000000E+00
  9.900000E-01  1.735061E-03  5.000000E-01  9.999984E-01  1.455334E-03  0.000000E+00  8.886109E-04 -1.401367E-02 -2.181073E-18 -1.548056E-01  0.000000E+00
  9.900000E-01  1.813781E-03  5.000000E-01  9.999984E-01  1.534849E-03  0.000000E+00 -4.647765E-04 -1.393494E-02  6.934384E-17 -6.891270E-03  0.000000E+00
  9.900000E-01  1.892502E-03  5.000000E-01  9.999984E-01  1.614364E-03  0.000000E+00 -1.833684E-04 -1.563828E-03  9.425153E-17 -1.235660E-02  0.000000E+00
  9.900000E-01  1.971212E-03  5.000000E-01  9.999984E-01  1.693869E-03  0.000000E+00  4.923530E-04  4.517181E-04  1.152061E-16 -8.883307E-02  0.000000E+00
  9.900000E-01  2.049932E-03  5.000000E-01  9.999984E-01  1.773385E-03  0.000000E+00  3.638881E-03 -2.640778E-03  1.312519E-16 -1.955821E-02  0.000000E+00
  9.900000E-01  2.049932E-03  5.000000E-01  9.999984E-01  1.773385E-03  0.000000E+00  3.638881E-03 -2.640778E-03  1.312519E-16 -1.955821E-02  0.000000E+00
  9.897900E-01  2.106763E-03  5.000000E-01  9.997863E-01  1.830790E-03  0.000000E+00  4.368031E-03 -1.411440E-03  8.966912E-17  7.330803E-02  0.000000E+00
  9.891580E-01  2.277484E-03  5.000000E-01  9.991479E-01  2.003235E-03  0.000000E+00  2.095273E-03 -5.232510E-04  3.102763E-17  4.192471E-02  0.000000E+00
  9.881040E-01  2.562415E-03  5.000000E-01  9.980833E-01  2.291043E-03  0.000000E+00  1.329248E-03 -3.572840E-04  3.552664E-18  3.378784E-02  0.000000E+00
  9.866260E-01  2.962202E-03  5.000000E-01  9.965904E-01  2.694868E-03  0.000000E+00  9.920503E-04 -2.725138E-04 -3.369231E-18  3.639167E-02  0.000000E+00
  9.847200E-01  3.477824E-03  5.000000E-01  9.946651E-01  3.215697E-03  0.000000E+00  7.391288E-04 -2.001478E-04 -1.767306E-18  3.518545E-02  0.000000E+00
  9.823820E-01  4.110447E-03  5.000000E-01  9.923035E-01  3.854709E-03  0.000000E+00  5.874340E-04 -1.585842E-04 -2.236839E-20  3.157972E-02  0.000000E+00
  9.796080E-01  4.861404E-03  5.000000E-01  9.895015E-01  4.613251E-03  0.000000E+00  5.311285E-04 -1.437628E-04 -2.822066E-19  2.726704E-02  0.000000E+00
  9.763910E-01  5.732412E-03  5.000000E-01  9.862520E-01  5.493056E-03  0.000000E+00  5.406621E-04 -1.464618E-04 -1.504047E-18  2.217424E-02  0.000000E+00
  9.727270E-01  6.725061E-03  5.000000E-01  9.825510E-01  6.495730E-03  0.000000E+00  5.909026E-04 -1.600922E-04 -2.408395E-18  1.612445E-02  0.000000E+00
  9.686070E-01  7.841511E-03  5.000000E-01  9.783894E-01  7.623455E-03  0.000000E+00  6.648903E-04 -1.802017E-04 -1.595914E-18  9.099472E-03  0.000000E+00
  9.640240E-01  9.083856E-03  5.000000E-01  9.737601E-01  8.878347E-03  0.000000E+00  7.526723E-04 -2.040385E-04 -7.055253E-19  1.040052E-03  0.000000E+00
  9.589680E-01  1.045458E-02  5.000000E-01  9.686530E-01  1.026292E-02  0.000000E+00  8.497926E-04 -2.304182E-04 -3.969534E-19 -8.110231E-03  0.000000E+00
  9.534310E-01  1.195616E-02  5.000000E-01  9.630601E-01  1.177966E-02  0.000000E+00  9.551949E-04 -2.590705E-04 -7.737397E-19 -1.841040E-02  0.000000E+00
  9.474030E-01  1.359140E-02  5.000000E-01  9.569712E-01  1.343142E-02  0.000000E+00  1.069375E-03 -2.901202E-04 -4.118738E-19 -2.991673E-02  0.000000E+00
  9.408720E-01  1.536350E-02  5.000000E-01  9.503743E-01  1.522141E-02  0.000000E+00  1.193177E-03 -3.238355E-04  5.720641E-19 -4.271985E-02  0.000000E+00
  9.338280E-01  1.727575E-02  5.000000E-01  9.432591E-01  1.715298E-02  0.000000E+00  1.327291E-03 -3.604605E-04  9.205003E-19 -5.693274E-02  0.000000E+00
  9.262600E-01  1.933193E-02  5.000000E-01  9.356147E-01  1.922992E-02  0.000000E+00  1.471954E-03 -4.001269E-04 -1.161370E-19 -7.265727E-02  0.000000E+00
  9.181550E-01  2.153618E-02  5.000000E-01  9.274278E-01  2.145643E-02  0.000000E+00  1.627066E-03 -4.428703E-04 -1.247437E-18 -9.006988E-02  0.000000E+00
  9.095020E-01  2.389308E-02  5.000000E-01  9.186874E-01  2.383714E-02  0.000000E+00  1.792552E-03 -4.887060E-04 -1.478054E-19 -1.093312E-01  0.000000E+00
  9.002880E-01  2.640756E-02  5.000000E-01  9.093804E-01  2.637701E-02  0.000000E+00  1.968368E-03 -5.378024E-04  1.168992E-18 -1.305067E-01  0.000000E+00
  8.905020E-01  2.908485E-02  5.000000E-01  8.994956E-01  2.908134E-02  0.000000E+00  2.155591E-03 -5.910157E-04  7.847351E-19 -1.538722E-01  0.000000E+00
  8.801320E-01  3.193399E-02  5.000000E-01  8.890208E-01  3.195925E-02  0.000000E+00  2.359635E-03 -6.507305E-04  8.182863E-20 -1.801059E-01  0.000000E+00
  8.691700E-01  3.496743E-02  5.000000E-01  8.779481E-01  3.502333E-02  0.000000E+00  2.593707E-03 -7.213498E-04  1.073858E-18 -2.100597E-01  0.000000E+00
  8.691700E-01  3.496743E-02  5.000000E-01  8.779481E-01  3.502333E-02  0.000000E+00  2.593707E-03 -7.213498E-04  1.073858E-18 -2.100597E-01  0.000000E+00
  8.576080E-01  3.819853E-02  5.000000E-01  8.662693E-01  3.828706E-02  0.000000E+00  2.881004E-03 -8.098503E-04  1.258243E-18 -2.446524E-01  0.000000E+00
  8.454380E-01  4.163945E-02  5.000000E-01  8.539764E-01  4.176273E-02  0.000000E+00  3.257671E-03 -9.268031E-04  2.290523E-19 -2.855150E-01  0.000000E+00
  8.326580E-01  4.529714E-02  5.000000E-01  8.410674E-01  4.545736E-02  0.000000E+00  3.779345E-03 -1.087463E-03  1.760824E-19 -3.359716E-01  0.000000E+00
  8.192630E-01  4.916831E-02  5.000000E-01  8.275371E-01  4.936763E-02  0.000000E+00  4.529423E-03 -1.311543E-03  5.634033E-19 -4.012456E-01  0.000000E+00
  8.052550E-01  5.322768E-02  5.000000E-01  8.133876E-01  5.346800E-02  0.000000E+00  5.619966E-03 -1.616933E-03 -1.896699E-18 -4.860429E-01  0.000000E+00
  7.906370E-01  5.740930E-02  5.000000E-01  7.986220E-01  5.769185E-02  0.000000E+00  7.171860E-03 -2.001338E-03 -3.095787E-18 -5.913566E-01  0.000000E+00
  7.754120E-01  6.157850E-02  5.000000E-01  7.832432E-01  6.190316E-02  0.000000E+00  9.277564E-03 -2.423870E-03  2.903391E-19 -7.183574E-01  0.000000E+00
  7.595880E-01  6.555604E-02  5.000000E-01  7.672594E-01  6.592086E-02  0.000000E+00  1.198117E-02 -2.806572E-03  1.160403E-18 -8.747905E-01  0.000000E+00
  7.431760E-01  6.917118E-02  5.000000E-01  7.506816E-01  6.957252E-02  0.000000E+00  1.527371E-02 -3.020772E-03 -3.584495E-19 -1.062363E+00  0.000000E+00
  7.261880E-01  7.221766E-02  5.000000E-01  7.335221E-01  7.264976E-02  0.000000E+00  1.900414E-02 -2.863777E-03 -7.144931E-19 -1.254418E+00  0.000000E+00
  7.086430E-01  7.444878E-02  5.000000E-01  7.157999E-01  7.490342E-02  0.000000E+00  2.272014E-02 -2.099411E-03  7.634852E-19 -1.391376E+00  0.000000E+00
  6.905640E-01  7.559037E-02  5.000000E-01  6.975383E-01  7.605654E-02  0.000000E+00  2.559144E-02 -6.025388E-04  2.654267E-18 -1.402513E+00  0.000000E+00
  6.719770E-01  7.537175E-02  5.000000E-01  6.787636E-01  7.583571E-02  0.000000E+00  2.660483E-02  1.413905E-03  3.565812E-18 -1.247122E+00  0.000000E+00
  6.529150E-01  7.358004E-02  5.000000E-01  6.595091E-01  7.402591E-02  0.000000E+00  2.506847E-02  3.191782E-03  3.841178E-18 -9.600773E-01  0.000000E+00
  6.334180E-01  7.036292E-02  5.000000E-01  6.398152E-01  7.077629E-02  0.000000E+00  2.123838E-02  3.853862E-03  3.206866E-18 -6.384789E-01  0.000000E+00
  6.135280E-01  6.633117E-02  5.000000E-01  6.197243E-01  6.670383E-02  0.000000E+00  1.628317E-02  3.306321E-03  1.268150E-18 -3.566591E-01  0.000000E+00
  5.932910E-01  6.220796E-02  5.000000E-01  5.992829E-01  6.253897E-02  0.000000E+00  1.143732E-02  2.158504E-03  2.654387E-19 -1.430118E-01  0.000000E+00
  5.727570E-01  5.878725E-02  5.000000E-01  5.785415E-01  5.908372E-02  0.000000E+00  7.447217E-03  1.018139E-03 -8.203210E-19 -1.497097E-02  0.000000E+00
  5.519810E-01  5.691674E-02  5.000000E-01  5.575557E-01  5.719432E-02  0.000000E+00  4.643991E-03  2.281584E-04 -1.634237E-18  2.090552E-02  0.000000E+00
  5.310180E-01  5.727432E-02  5.000000E-01  5.363810E-01  5.755551E-02  0.000000E+00  3.173100E-03 -1.736631E-04 -8.065321E-19 -1.519200E-02  0.000000E+00
  5.099250E-01  5.947878E-02  5.000000E-01  5.150750E-01  5.978223E-02  0.000000E+00  3.094826E-03 -4.151591E-04 -1.171135E-18 -1.121616E-01  0.000000E+00
  4.887640E-01  6.277108E-02  5.000000E-01  4.937002E-01  6.310778E-02  0.000000E+00  4.466152E-03 -7.373462E-04 -6.662009E-19 -2.797233E-01  0.000000E+00
  4.675910E-01  6.634109E-02  5.000000E-01  4.723134E-01  6.671384E-02  0.000000E+00  7.343134E-03 -1.116483E-03  1.399579E-18 -4.896782E-01  0.000000E+00
  7.860720E-05 -1.223012E-04  5.000000E-01  7.940617E-05 -4.207869E-04  0.000000E+00  2.323873E-02 -5.032706E-02 -3.997634E-15  2.556531E-01  0.000000E+00
  3.989240E-04 -5.602957E-04  5.000000E-01  4.029580E-04 -8.632049E-04  0.000000E+00  3.187026E-02 -3.117116E-02 -2.920340E-15 -2.181503E-01  0.000000E+00
  1.196920E-03 -1.011626E-03  5.000000E-01  1.209013E-03 -1.319094E-03  0.000000E+00  2.465707E-02 -1.156844E-02 -1.499151E-15 -4.513976E-01  0.000000E+00
  2.563580E-03 -1.396245E-03  5.000000E-01  2.589476E-03 -1.707597E-03  0.000000E+00  1.436218E-02 -3.368508E-03 -3.685564E-16 -3.167491E-01  0.000000E+00
  4.492740E-03 -1.700248E-03  5.000000E-01  4.538119E-03 -2.014670E-03  0.000000E+00  9.864139E-03 -1.255805E-03  1.730220E-16 -9.766347E-02  0.000000E+00
  6.952190E-03 -1.945709E-03  5.000000E-01  7.022408E-03 -2.262610E-03  0.000000E+00  9.479566E-03 -8.244583E-04  2.764761E-16  4.962180E-02  0.000000E+00
  9.910730E-03 -2.174922E-03  5.000000E-01  1.001083E-02 -2.494138E-03  0.000000E+00  1.049947E-02 -7.976060E-04  1.969728E-16  1.178652E-01  0.000000E+00
  1.334950E-02 -2.431110E-03  5.000000E-01  1.348433E-02 -2.752914E-03  0.000000E+00  1.160257E-02 -8.371669E-04  9.530449E-17  1.392403E-01  0.000000E+00
  1.728780E-02 -2.706991E-03  5.000000E-01  1.746240E-02 -3.031580E-03  0.000000E+00  1.230746E-02 -7.822051E-04  3.091051E-17  1.357386E-01  0.000000E+00
  2.175590E-02 -2.962385E-03  5.000000E-01  2.197563E-02 -3.289553E-03  0.000000E+00  1.252370E-02 -6.131258E-04  4.347754E-18  1.278629E-01  0.000000E+00
  2.676920E-02 -3.164854E-03  5.000000E-01  2.703956E-02 -3.494068E-03  0.000000E+00  1.237624E-02 -4.098426E-04 -1.861039E-18  1.298976E-01  0.000000E+00
  3.232800E-02 -3.306310E-03  5.000000E-01  3.265450E-02 -3.636952E-03  0.000000E+00  1.205243E-02 -2.425339E-04 -1.637407E-18  1.433492E-01  0.000000E+00
  3.842930E-02 -3.395900E-03  5.000000E-01  3.881742E-02 -3.727447E-03  0.000000E+00  1.169843E-02 -1.356385E-04 -2.348846E-19  1.619901E-01  0.000000E+00
  4.507220E-02 -3.452262E-03  5.000000E-01  4.552741E-02 -3.784379E-03  0.000000E+00  1.141167E-02 -9.835376E-05  6.967334E-19  1.814243E-01  0.000000E+00
  5.225680E-02 -3.514566E-03  5.000000E-01  5.278457E-02 -3.847312E-03  0.000000E+00  1.125360E-02 -1.311066E-04  1.809805E-19  1.995375E-01  0.000000E+00
  5.998640E-02 -3.628319E-03  5.000000E-01  6.059223E-02 -3.962213E-03  0.000000E+00  1.122469E-02 -2.037616E-04 -2.496522E-19  2.112716E-01  0.000000E+00
  6.827110E-02 -3.808598E-03  5.000000E-01  6.896060E-02 -4.144313E-03  0.000000E+00  1.127632E-02 -2.818913E-04  6.255135E-19  2.140070E-01  0.000000E+00
  7.712280E-02 -4.058311E-03  5.000000E-01  7.790170E-02 -4.396549E-03  0.000000E+00  1.136395E-02 -3.576640E-04  7.006654E-19  2.114400E-01  0.000000E+00
  8.655260E-02 -4.384750E-03  5.000000E-01  8.742674E-02 -4.726284E-03  0.000000E+00  1.146412E-02 -4.317397E-04 -2.329068E-19  2.068274E-01  0.000000E+00
  9.657140E-02 -4.792405E-03  5.000000E-01  9.754672E-02 -5.138056E-03  0.000000E+00  1.156405E-02 -4.961062E-04  1.833612E-19  1.997797E-01  0.000000E+00
  1.071900E-01 -5.271792E-03  5.000000E-01  1.082726E-01 -5.622285E-03  0.000000E+00  1.167148E-02 -5.498794E-04  3.933019E-19  1.903965E-01  0.000000E+00
  1.184180E-01 -5.822004E-03  5.000000E-01  1.196140E-01 -6.178054E-03  0.000000E+00  1.183097E-02 -6.118832E-04 -4.683962E-19  1.807565E-01  0.000000E+00
  1.302610E-01 -6.465311E-03  5.000000E-01  1.315766E-01 -6.827858E-03  0.000000E+00  1.210489E-02 -7.017668E-04 -2.964129E-19  1.704354E-01  0.000000E+00
  1.427230E-01 -7.231818E-03  5.000000E-01  1.441644E-01 -7.602105E-03  0.000000E+00  1.253763E-02 -8.258682E-04  5.815467E-19  1.560653E-01  0.000000E+00
  1.427230E-01 -7.231818E-03  5.000000E-01  1.441644E-01 -7.602105E-03  0.000000E+00  1.253763E-02 -8.258682E-04  5.815467E-19  1.560653E-01  0.000000E+00
  1.558070E-01 -8.148844E-03  5.000000E-01  1.573806E-01 -8.528393E-03  0.000000E+00  1.312582E-02 -9.693635E-04  7.668602E-19  1.335759E-01  0.000000E+00
  1.695140E-01 -9.211196E-03  5.000000E-01  1.712260E-01 -9.601475E-03  0.000000E+00  1.380431E-02 -1.091993E-03  1.724423E-19  1.004401E-01  0.000000E+00
  1.838420E-01 -1.036698E-02  5.000000E-01  1.856987E-01 -1.076894E-02  0.000000E+00  1.445644E-02 -1.133362E-03 -9.687468E-20  5.788544E-02  0.000000E+00
  1.987870E-01 -1.150746E-02  5.000000E-01  2.007946E-01 -1.192093E-02  0.000000E+00  1.493741E-02 -1.022772E-03  9.300608E-20  9.278499E-03  0.000000E+00
  2.143420E-01 -1.245547E-02  5.000000E-01  2.165067E-01 -1.287852E-02  0.000000E+00  1.513255E-02 -7.443803E-04  2.125200E-20 -3.705498E-02  0.000000E+00
  2.304940E-01 -1.305776E-02  5.000000E-01  2.328219E-01 -1.348688E-02  0.000000E+00  1.502688E-02 -3.932136E-04 -2.922656E-19 -6.543803E-02  0.000000E+00
  2.472290E-01 -1.330228E-02  5.000000E-01  2.497259E-01 -1.373387E-02  0.000000E+00  1.465125E-02 -6.351598E-05  2.353242E-19 -7.061522E-02  0.000000E+00
  2.645310E-01 -1.319421E-02  5.000000E-01  2.672026E-01 -1.362472E-02  0.000000E+00  1.399952E-02  2.281458E-04  8.570235E-19 -6.184919E-02  0.000000E+00
  2.823750E-01 -1.271610E-02  5.000000E-01  2.852268E-01 -1.314178E-02  0.000000E+00  1.305795E-02  4.786380E-04  5.426816E-19 -4.498219E-02  0.000000E+00
  3.007320E-01 -1.184672E-02  5.000000E-01  3.037692E-01 -1.226361E-02  0.000000E+00  1.186270E-02  6.665508E-04  3.498955E-19 -1.824100E-02  0.000000E+00
  3.195690E-01 -1.060133E-02  5.000000E-01  3.227965E-01 -1.100565E-02  0.000000E+00  1.052345E-02  7.669356E-04  6.635071E-19  2.054939E-02  0.000000E+00
  3.388440E-01 -9.046281E-03  5.000000E-01  3.422661E-01 -9.434893E-03  0.000000E+00  9.220412E-03  7.679647E-04  1.692443E-18  7.021925E-02  0.000000E+00
  3.585140E-01 -7.346607E-03  5.000000E-01  3.621348E-01 -7.718054E-03  0.000000E+00  8.179461E-03  6.804807E-04  1.111284E-18  1.258697E-01  0.000000E+00
  3.785290E-01 -5.752301E-03  5.000000E-01  3.823519E-01 -6.107647E-03  0.000000E+00  7.628420E-03  5.338219E-04 -7.038810E-19  1.776852E-01  0.000000E+00
  3.988350E-01 -4.536391E-03  5.000000E-01  4.028630E-01 -4.879456E-03  0.000000E+00  7.767712E-03  3.319191E-04 -5.372294E-19  2.149087E-01  0.000000E+00
  4.193750E-01 -3.988590E-03  5.000000E-01  4.236104E-01 -4.326123E-03  0.000000E+00  8.740985E-03  1.341673E-05 -3.774807E-20  2.300102E-01  0.000000E+00
  4.400850E-01 -4.392404E-03  5.000000E-01  4.445296E-01 -4.734016E-03  0.000000E+00  1.054901E-02 -5.005378E-04  9.142641E-19  2.170088E-01  0.000000E+00
  4.609060E-01 -5.859190E-03  5.000000E-01  4.655609E-01 -6.215615E-03  0.000000E+00  1.286941E-02 -1.069155E-03  1.123891E-18  1.554951E-01  0.000000E+00
  4.818030E-01 -7.826017E-03  5.000000E-01  4.866689E-01 -8.202306E-03  0.000000E+00  1.498533E-02 -1.339353E-03  1.027905E-18  4.177091E-02  0.000000E+00
  5.027520E-01 -9.610246E-03  5.000000E-01  5.078295E-01 -1.000455E-02  0.000000E+00  1.589057E-02 -9.969154E-04  1.068317E-18 -8.987875E-02  0.000000E+00
  5.237130E-01 -1.045709E-02  5.000000E-01  5.290022E-01 -1.085996E-02  0.000000E+00  1.465758E-02 -1.262133E-06  2.165702E-20 -2.046017E-01  0.000000E+00
  5.446170E-01 -9.471121E-03  5.000000E-01  5.501173E-01 -9.864024E-03  0.000000E+00  1.120649E-02  1.091020E-03  6.927672E-19 -2.637233E-01  0.000000E+00
  5.653940E-01 -5.850487E-03  5.000000E-01  5.711042E-01 -6.206824E-03  0.000000E+00  6.818581E-03  1.434382E-03 -1.900078E-20 -1.978463E-01  0.000000E+00
  4.675910E-01  6.634109E-02  5.000000E-01  4.723134E-01  6.671384E-02  0.000000E+00  7.343134E-03 -1.116483E-03  1.399579E-18 -4.896782E-01  0.000000E+00
  4.464640E-01  6.935763E-02  5.000000E-01  4.509730E-01  6.976085E-02  0.000000E+00  1.143937E-02 -1.209227E-03  6.803193E-19 -6.614004E-01  0.000000E+00
  4.254410E-01  7.108729E-02  5.000000E-01  4.297377E-01  7.150798E-02  0.000000E+00  1.571531E-02 -7.295501E-04 -4.936124E-19 -7.383192E-01  0.000000E+00
  4.045840E-01  7.148252E-02  5.000000E-01  4.086701E-01  7.190721E-02  0.000000E+00  1.876574E-02  1.123468E-04  1.062490E-19 -7.303561E-01  0.000000E+00
  3.839530E-01  7.089864E-02  5.000000E-01  3.878307E-01  7.131743E-02  0.000000E+00  1.979557E-02  8.730605E-04  3.892948E-20 -6.648595E-01  0.000000E+00
  3.636060E-01  6.967889E-02  5.000000E-01  3.672782E-01  7.008535E-02  0.000000E+00  1.893654E-02  1.286090E-03  7.446875E-19 -5.667221E-01  0.000000E+00
  3.435960E-01  6.814420E-02  5.000000E-01  3.470661E-01  6.853516E-02  0.000000E+00  1.685719E-02  1.312828E-03  5.585582E-19 -4.613996E-01  0.000000E+00
  3.239710E-01  6.658684E-02  5.000000E-01  3.272429E-01  6.696208E-02  0.000000E+00  1.427723E-02  1.060806E-03 -5.884706E-19 -3.694352E-01  0.000000E+00
  3.047740E-01  6.527382E-02  5.000000E-01  3.078520E-01  6.563579E-02  0.000000E+00  1.170058E-02  6.809204E-04 -6.160513E-20 -3.048339E-01  0.000000E+00
  2.860450E-01  6.441662E-02  5.000000E-01  2.889339E-01  6.476994E-02  0.000000E+00  9.414698E-03  3.062237E-04  7.890319E-20 -2.717758E-01  0.000000E+00
  2.678190E-01  6.412712E-02  5.000000E-01  2.705238E-01  6.447751E-02  0.000000E+00  7.573418E-03  1.019400E-05 -2.471953E-19 -2.666927E-01  0.000000E+00
  2.501300E-01  6.443234E-02  5.000000E-01  2.526562E-01  6.478582E-02  0.000000E+00  6.269149E-03 -2.023037E-04 -4.889792E-19 -2.893271E-01  0.000000E+00
  2.330040E-01  6.529730E-02  5.000000E-01  2.353572E-01  6.565952E-02  0.000000E+00  5.604134E-03 -3.718816E-04 -4.818115E-19 -3.573295E-01  0.000000E+00
  2.164660E-01  6.664534E-02  5.000000E-01  2.186522E-01  6.702117E-02  0.000000E+00  5.800031E-03 -5.568102E-04 -4.437614E-20 -5.039050E-01  0.000000E+00
  2.005340E-01  6.835004E-02  5.000000E-01  2.025593E-01  6.874308E-02  0.000000E+00  7.264037E-03 -7.631424E-04 -1.437103E-19 -7.332684E-01  0.000000E+00
  1.852230E-01  6.993675E-02  5.000000E-01  1.870936E-01  7.034582E-02  0.000000E+00  1.038819E-02 -8.509855E-04 -7.512878E-20 -1.009912E+00  0.000000E+00
  1.705440E-01  7.092396E-02  5.000000E-01  1.722664E-01  7.134300E-02  0.000000E+00  1.517529E-02 -5.411610E-04 -9.369680E-19 -1.296169E+00  0.000000E+00
  1.565000E-01  7.111530E-02  5.000000E-01  1.580806E-01  7.153627E-02  0.000000E+00  2.104583E-02  4.439414E-04 -2.928667E-18 -1.552456E+00  0.000000E+00
  1.430940E-01  7.048812E-02  5.000000E-01  1.445392E-01  7.090276E-02  0.000000E+00  2.696517E-02  2.211607E-03 -4.807391E-18 -1.729505E+00  0.000000E+00
  1.303270E-01  6.908306E-02  5.000000E-01  1.316432E-01  6.948351E-02  0.000000E+00  3.179633E-02  4.640268E-03 -5.103528E-18 -1.786034E+00  0.000000E+00
  1.182110E-01  6.693826E-02  5.000000E-01  1.194049E-01  6.731705E-02  0.000000E+00  3.469265E-02  7.370957E-03 -3.991757E-18 -1.713897E+00  0.000000E+00
  1.067560E-01  6.412236E-02  5.000000E-01  1.078342E-01  6.447271E-02  0.000000E+00  3.542049E-02  9.912837E-03 -6.689826E-19 -1.542068E+00  0.000000E+00
  9.596750E-02  6.073201E-02  5.000000E-01  9.693672E-02  6.104811E-02  0.000000E+00  3.433164E-02  1.179461E-02  1.247363E-18 -1.323450E+00  0.000000E+00
  8.582800E-02  5.693091E-02  5.000000E-01  8.669482E-02  5.720863E-02  0.000000E+00  3.211360E-02  1.281653E-02 -2.262522E-18 -1.107075E+00  0.000000E+00
  8.582800E-02  5.693091E-02  5.000000E-01  8.669482E-02  5.720863E-02  0.000000E+00  3.211360E-02  1.281653E-02 -2.262522E-18 -1.107075E+00  0.000000E+00
  7.631050E-02  5.288050E-02  5.000000E-01  7.708120E-02  5.311732E-02  0.000000E+00  2.951176E-02  1.323367E-02 -2.975009E-18 -9.074238E-01  0.000000E+00
  6.740780E-02  4.866681E-02  5.000000E-01  6.808858E-02  4.886106E-02  0.000000E+00  2.699301E-02  1.337822E-02  4.541362E-19 -7.193572E-01  0.000000E+00
  5.911740E-02  4.435628E-02  5.000000E-01  5.971446E-02  4.450700E-02  0.000000E+00  2.469461E-02  1.335844E-02  1.438512E-18 -5.417066E-01  0.000000E+00
  5.143150E-02  4.002251E-02  5.000000E-01  5.195093E-02  4.012946E-02  0.000000E+00  2.259914E-02  1.317669E-02  1.133327E-19 -3.758137E-01  0.000000E+00
  4.433770E-02  3.573773E-02  5.000000E-01  4.478549E-02  3.580141E-02  0.000000E+00  2.065726E-02  1.283614E-02 -8.094282E-19 -2.225468E-01  0.000000E+00
  3.782240E-02  3.156552E-02  5.000000E-01  3.820439E-02  3.158706E-02  0.000000E+00  1.883504E-02  1.236276E-02 -2.530105E-18 -8.229888E-02  0.000000E+00
  3.187460E-02  2.755677E-02  5.000000E-01  3.219652E-02  2.753783E-02  0.000000E+00  1.712511E-02  1.179834E-02 -4.348407E-18  4.459365E-02  0.000000E+00
  2.648400E-02  2.375370E-02  5.000000E-01  2.675148E-02  2.369635E-02  0.000000E+00  1.554168E-02  1.121001E-02 -5.168568E-18  1.615967E-01  0.000000E+00
  2.164990E-02  2.018391E-02  5.000000E-01  2.186856E-02  2.009051E-02  0.000000E+00  1.410289E-02  1.066637E-02 -1.035097E-17  2.769795E-01  0.000000E+00
  1.737670E-02  1.686940E-02  5.000000E-01  1.755220E-02  1.674252E-02  0.000000E+00  1.282821E-02  1.016125E-02 -1.617637E-17  3.926625E-01  0.000000E+00
  1.364080E-02  1.384259E-02  5.000000E-01  1.377857E-02  1.368515E-02  0.000000E+00  1.175295E-02  9.653285E-03 -6.767844E-18  5.008738E-01  0.000000E+00
  1.039090E-02  1.113276E-02  5.000000E-01  1.049585E-02  1.094795E-02  0.000000E+00  1.090122E-02  9.175715E-03  3.713464E-17  5.960900E-01  0.000000E+00
  7.586340E-03  8.748336E-03  5.000000E-01  7.662963E-03  8.539439E-03  0.000000E+00  1.019603E-02  8.802202E-03  1.233872E-16  6.830344E-01  0.000000E+00
  5.226210E-03  6.678634E-03  5.000000E-01  5.278997E-03  6.448834E-03  0.000000E+00  9.374891E-03  8.456536E-03  1.938990E-16  7.694294E-01  0.000000E+00
  3.324300E-03  4.910367E-03  5.000000E-01  3.357879E-03  4.662708E-03  0.000000E+00  7.944378E-03  7.716842E-03  7.867617E-17  8.587033E-01  0.000000E+00
  1.883580E-03  3.436148E-03  5.000000E-01  1.902608E-03  3.173600E-03  0.000000E+00  5.131835E-03  5.551333E-03 -4.398737E-16  9.548784E-01  0.000000E+00
  8.951490E-04  2.252835E-03  5.000000E-01  9.041946E-04  1.978337E-03  0.000000E+00  1.761241E-04 -2.926922E-04 -1.436069E-15  1.053743E+00  0.000000E+00
  3.201820E-04  1.359684E-03  5.000000E-01  3.234207E-04  1.076166E-03  0.000000E+00 -6.113883E-03 -1.368174E-02 -2.681058E-15  1.099223E+00  0.000000E+00
  6.852390E-05  7.501637E-04  5.000000E-01  6.922103E-05  4.604893E-04  0.000000E+00 -9.315005E-03 -3.668179E-02 -3.712100E-15  9.580158E-01  0.000000E+00
  4.217600E-06  4.047909E-04  5.000000E-01  4.265279E-06  1.116284E-04  0.000000E+00 -6.380306E-03 -5.906699E-02 -4.143650E-15  6.086363E-01  0.000000E+00
 -5.032520E-09  2.942785E-04  5.000000E-01  0.000000E+00  0.000000E+00  0.000000E+00 -6.663911E-04 -6.150163E-02 -4.217044E-15  3.863963E-01  0.000000E+00
  5.154440E-06  1.856126E-04  5.000000E-01  5.211580E-06 -1.097634E-04  0.000000E+00  8.043679E-03 -5.586465E-02 -4.311514E-15  4.286177E-01  0.000000E+00