 Title = "ADflow Slice Data"
Variables =  "CoordinateX"  "CoordinateY"  "CoordinateZ"  "XoC"  "YoC"  "ZoC" "VelocityX" "VelocityY" "VelocityZ" "CoefPressure" "Mach" 
Zone T= "Slice_0001 None Absolute Regular z = 0.50000000"
 Nodes =          192  Elements=          184  ZONETYPE=FELINESEG
 DATAPACKING=POINT
  5.653940E-01  1.792944E-02  5.000000E-01  5.711042E-01  1.804130E-02  0.000000E+00 -1.490664E-03 -2.323655E-04 -7.417290E-19  3.305044E-01  0.000000E+00
  5.859770E-01  1.987289E-02  5.000000E-01  5.918951E-01  2.000438E-02  0.000000E+00 -1.205894E-03 -6.792959E-05  8.828920E-19  3.545953E-01  0.000000E+00
  6.063060E-01  1.988729E-02  5.000000E-01  6.124294E-01  2.001891E-02  0.000000E+00 -6.176722E-04  8.841805E-06  4.498660E-19  3.828458E-01  0.000000E+00
  6.263240E-01  1.841273E-02  5.000000E-01  6.326496E-01  1.852947E-02  0.000000E+00  2.816979E-04 -4.287024E-05  9.841480E-19  4.024704E-01  0.000000E+00
  6.459860E-01  1.586092E-02  5.000000E-01  6.525102E-01  1.595189E-02  0.000000E+00  1.476471E-03 -2.305700E-04  1.730328E-18  4.020011E-01  0.000000E+00
  6.652460E-01  1.264492E-02  5.000000E-01  6.719647E-01  1.270340E-02  0.000000E+00  2.930247E-03 -5.229164E-04  2.138808E-18  3.748807E-01  0.000000E+00
  6.840650E-01  9.154942E-03  5.000000E-01  6.909737E-01  9.178178E-03  0.000000E+00  4.582794E-03 -8.568592E-04  3.582997E-18  3.226917E-01  0.000000E+00
  7.024070E-01  5.704496E-03  5.000000E-01  7.095010E-01  5.692884E-03  0.000000E+00  6.341441E-03 -1.159183E-03  3.254302E-18  2.530349E-01  0.000000E+00
  7.202400E-01  2.516929E-03  5.000000E-01  7.275141E-01  2.473124E-03  0.000000E+00  8.083022E-03 -1.369671E-03  9.859155E-19  1.761023E-01  0.000000E+00
  7.375350E-01 -2.818935E-04  5.000000E-01  7.449838E-01 -3.539654E-04  0.000000E+00  9.680804E-03 -1.460554E-03 -2.310829E-19  1.011334E-01  0.000000E+00
  7.542690E-01 -2.648257E-03  5.000000E-01  7.618868E-01 -2.744228E-03  0.000000E+00  1.104552E-02 -1.441860E-03 -1.160025E-18  3.395992E-02  0.000000E+00
  7.704220E-01 -4.598162E-03  5.000000E-01  7.782029E-01 -4.713826E-03  0.000000E+00  1.214634E-02 -1.346804E-03 -1.887195E-18 -2.279376E-02  0.000000E+00
  7.859770E-01 -6.181243E-03  5.000000E-01  7.939150E-01 -6.312896E-03  0.000000E+00  1.298541E-02 -1.191301E-03 -1.386964E-18 -7.115176E-02  0.000000E+00
  8.009220E-01 -7.412008E-03  5.000000E-01  8.090110E-01 -7.556091E-03  0.000000E+00  1.356547E-02 -9.678591E-04 -4.415275E-19 -1.146431E-01  0.000000E+00
  8.152480E-01 -8.282123E-03  5.000000E-01  8.234816E-01 -8.434993E-03  0.000000E+00  1.389771E-02 -6.899799E-04 -2.677976E-19 -1.512924E-01  0.000000E+00
  8.289490E-01 -8.811750E-03  5.000000E-01  8.373210E-01 -8.969970E-03  0.000000E+00  1.401154E-02 -3.920788E-04  3.035886E-19 -1.771770E-01  0.000000E+00
  8.420260E-01 -9.037591E-03  5.000000E-01  8.505301E-01 -9.198092E-03  0.000000E+00  1.394467E-02 -1.033831E-04  8.621012E-19 -1.918984E-01  0.000000E+00
  8.544790E-01 -9.005825E-03  5.000000E-01  8.631089E-01 -9.166005E-03  0.000000E+00  1.373325E-02  1.582745E-04  4.946609E-19 -1.975480E-01  0.000000E+00
  8.663160E-01 -8.761268E-03  5.000000E-01  8.750654E-01 -8.918977E-03  0.000000E+00  1.340695E-02  3.858872E-04  1.259322E-19 -1.965058E-01  0.000000E+00
  8.775420E-01 -8.344530E-03  5.000000E-01  8.864048E-01 -8.498031E-03  0.000000E+00  1.299001E-02  5.783895E-04  3.540392E-19 -1.903256E-01  0.000000E+00
  8.881660E-01 -7.790193E-03  5.000000E-01  8.971361E-01 -7.938095E-03  0.000000E+00  1.250467E-02  7.372328E-04  3.155315E-19 -1.800664E-01  0.000000E+00
  8.981970E-01 -7.128058E-03  5.000000E-01  9.072684E-01 -7.269273E-03  0.000000E+00  1.197858E-02  8.609266E-04  2.873972E-19 -1.662357E-01  0.000000E+00
  9.076460E-01 -6.390685E-03  5.000000E-01  9.168128E-01 -6.524453E-03  0.000000E+00  1.144956E-02  9.444088E-04  2.464406E-19 -1.490160E-01  0.000000E+00
  9.165220E-01 -5.617065E-03  5.000000E-01  9.257785E-01 -5.743020E-03  0.000000E+00  1.095464E-02  9.894483E-04  4.638193E-19 -1.299219E-01  0.000000E+00
  9.165220E-01 -5.617065E-03  5.000000E-01  9.257785E-01 -5.743020E-03  0.000000E+00  1.095464E-02  9.894483E-04  4.638193E-19 -1.299219E-01  0.000000E+00
  9.248360E-01 -4.839008E-03  5.000000E-01  9.341764E-01 -4.957104E-03  0.000000E+00  1.051688E-02  1.006271E-03 -6.675358E-20 -1.114070E-01  0.000000E+00
  9.325990E-01 -4.079608E-03  5.000000E-01  9.420178E-01 -4.190035E-03  0.000000E+00  1.014639E-02  1.004677E-03 -5.226239E-19 -9.477954E-02  0.000000E+00
  9.398210E-01 -3.355662E-03  5.000000E-01  9.493128E-01 -3.458777E-03  0.000000E+00  9.845949E-03  9.916303E-04  6.034539E-19 -8.028614E-02  0.000000E+00
  9.465130E-01 -2.678453E-03  5.000000E-01  9.560724E-01 -2.774729E-03  0.000000E+00  9.614353E-03  9.720674E-04  6.742561E-19 -6.793434E-02  0.000000E+00
  9.526870E-01 -2.054831E-03  5.000000E-01  9.623087E-01 -2.144809E-03  0.000000E+00  9.447845E-03  9.492763E-04  2.268423E-19 -5.773861E-02  0.000000E+00
  9.583540E-01 -1.488524E-03  5.000000E-01  9.680329E-01 -1.572783E-03  0.000000E+00  9.341258E-03  9.253854E-04  3.459317E-19 -4.966674E-02  0.000000E+00
  9.635240E-01 -9.809087E-04  5.000000E-01  9.732552E-01 -1.060040E-03  0.000000E+00  9.289105E-03  9.019475E-04  1.720836E-20 -4.365269E-02  0.000000E+00
  9.682080E-01 -5.312338E-04  5.000000E-01  9.779865E-01 -6.058239E-04  0.000000E+00  9.287186E-03  8.799358E-04 -7.211993E-19 -3.957696E-02  0.000000E+00
  9.724140E-01 -1.380035E-04  5.000000E-01  9.822349E-01 -2.086221E-04  0.000000E+00  9.334482E-03  8.603262E-04 -6.065640E-19 -3.730215E-02  0.000000E+00
  9.761510E-01  2.014856E-04  5.000000E-01  9.860097E-01  1.342957E-04  0.000000E+00  9.433793E-03  8.447273E-04 -1.620061E-19 -3.672464E-02  0.000000E+00
  9.794290E-01  4.907707E-04  5.000000E-01  9.893208E-01  4.265024E-04  0.000000E+00  9.588398E-03  8.340910E-04 -1.077043E-19 -3.771716E-02  0.000000E+00
  9.822540E-01  7.329047E-04  5.000000E-01  9.921743E-01  6.710818E-04  0.000000E+00  9.790803E-03  8.273311E-04  2.104052E-19 -4.007891E-02  0.000000E+00
  9.846330E-01  9.312842E-04  5.000000E-01  9.945773E-01  8.714649E-04  0.000000E+00  1.001298E-02  8.229476E-04  1.585568E-18 -4.274284E-02  0.000000E+00
  9.865710E-01  1.088826E-03  5.000000E-01  9.965349E-01  1.030598E-03  0.000000E+00  1.018146E-02  8.259323E-04  2.627327E-18 -4.605191E-02  0.000000E+00
  9.880740E-01  1.208521E-03  5.000000E-01  9.980531E-01  1.151501E-03  0.000000E+00  1.013904E-02  8.024966E-04 -1.790581E-18 -5.652791E-02  0.000000E+00
  9.891450E-01  1.292399E-03  5.000000E-01  9.991349E-01  1.236227E-03  0.000000E+00  1.035481E-02  7.306738E-04 -2.505435E-17 -5.596212E-02  0.000000E+00
  9.897860E-01  1.341939E-03  5.000000E-01  9.997824E-01  1.286267E-03  0.000000E+00  1.311557E-02  1.392542E-03 -7.356334E-17 -1.147836E-02  0.000000E+00
  9.900000E-01  1.358464E-03  5.000000E-01  9.999986E-01  1.302959E-03  0.000000E+00  9.048994E-03 -1.503734E-03 -8.069048E-17 -1.974564E-01  0.000000E+00
  9.900000E-01  1.437174E-03  5.000000E-01  9.999986E-01  1.382464E-03  0.000000E+00  8.778506E-04 -1.275229E-02 -4.519540E-18 -3.010330E-01  0.000000E+00
  9.900000E-01  1.515894E-03  5.000000E-01  9.999986E-01  1.461979E-03  0.000000E+00 -4.633438E-04 -1.430774E-02  8.154751E-17 -1.564279E-01  0.000000E+00
  9.900000E-01  1.594614E-03  5.000000E-01  9.999986E-01  1.541494E-03  0.000000E+00 -1.718743E-04 -3.088752E-03  1.220338E-16 -1.608741E-01  0.000000E+00
  9.900000E-01  1.673324E-03  5.000000E-01  9.999986E-01  1.620999E-03  0.000000E+00  5.216015E-04 -1.111203E-03  1.478998E-16 -2.287011E-01  0.000000E+00
  9.900000E-01  1.752044E-03  5.000000E-01  9.999986E-01  1.700514E-03  0.000000E+00  3.122864E-03 -2.360574E-03  1.551088E-16 -1.452890E-01  0.000000E+00
  9.900000E-01  1.752044E-03  5.000000E-01  9.999986E-01  1.700514E-03  0.000000E+00  3.122864E-03 -2.360574E-03  1.551088E-16 -1.452890E-01  0.000000E+00
  9.897900E-01  1.746423E-03  5.000000E-01  9.997864E-01  1.694836E-03  0.000000E+00  3.259435E-03 -1.726642E-04  1.002557E-16 -4.476289E-02  0.000000E+00
  9.891580E-01  1.729411E-03  5.000000E-01  9.991481E-01  1.677652E-03  0.000000E+00  8.698985E-04  6.704979E-05  3.223961E-17 -7.595905E-02  0.000000E+00
  9.881040E-01  1.701985E-03  5.000000E-01  9.980834E-01  1.649949E-03  0.000000E+00 -9.716687E-05  1.030832E-06  1.812756E-18 -8.595505E-02  0.000000E+00
  9.866260E-01  1.665302E-03  5.000000E-01  9.965905E-01  1.612896E-03  0.000000E+00 -7.481428E-04 -2.222903E-05 -4.555120E-18 -8.476229E-02  0.000000E+00
  9.847200E-01  1.620721E-03  5.000000E-01  9.946652E-01  1.567865E-03  0.000000E+00 -1.367139E-03 -3.098944E-05 -3.422874E-18 -8.837405E-02  0.000000E+00
  9.823820E-01  1.570272E-03  5.000000E-01  9.923036E-01  1.516906E-03  0.000000E+00 -1.877677E-03 -3.774563E-05 -2.009499E-18 -9.574469E-02  0.000000E+00
  9.796080E-01  1.516653E-03  5.000000E-01  9.895016E-01  1.462746E-03  0.000000E+00 -2.258756E-03 -4.052731E-05 -9.142212E-19 -1.044139E-01  0.000000E+00
  9.763910E-01  1.462597E-03  5.000000E-01  9.862521E-01  1.408143E-03  0.000000E+00 -2.538288E-03 -3.865233E-05 -4.858730E-19 -1.139019E-01  0.000000E+00
  9.727270E-01  1.412152E-03  5.000000E-01  9.825511E-01  1.357189E-03  0.000000E+00 -2.750700E-03 -3.317224E-05 -5.168234E-19 -1.241485E-01  0.000000E+00
  9.686070E-01  1.369059E-03  5.000000E-01  9.783895E-01  1.313661E-03  0.000000E+00 -2.925171E-03 -2.497981E-05 -3.406854E-20 -1.349847E-01  0.000000E+00
  9.640240E-01  1.338200E-03  5.000000E-01  9.737602E-01  1.282490E-03  0.000000E+00 -3.083123E-03 -1.435529E-05  5.476132E-19 -1.462475E-01  0.000000E+00
  9.589680E-01  1.324633E-03  5.000000E-01  9.686531E-01  1.268786E-03  0.000000E+00 -3.237117E-03 -1.239817E-06  3.745625E-19 -1.578640E-01  0.000000E+00
  9.534310E-01  1.334658E-03  5.000000E-01  9.630602E-01  1.278913E-03  0.000000E+00 -3.391628E-03  1.461717E-05 -4.990188E-20 -1.697965E-01  0.000000E+00
  9.474030E-01  1.375056E-03  5.000000E-01  9.569713E-01  1.319719E-03  0.000000E+00 -3.545357E-03  3.328039E-05 -8.552802E-20 -1.820102E-01  0.000000E+00
  9.408720E-01  1.453177E-03  5.000000E-01  9.503744E-01  1.398629E-03  0.000000E+00 -3.693974E-03  5.499629E-05 -1.892668E-19 -1.944363E-01  0.000000E+00
  9.338280E-01  1.577865E-03  5.000000E-01  9.432592E-01  1.524576E-03  0.000000E+00 -3.832045E-03  7.997614E-05 -5.348784E-19 -2.069906E-01  0.000000E+00
  9.262600E-01  1.759053E-03  5.000000E-01  9.356148E-01  1.707594E-03  0.000000E+00 -3.953642E-03  1.081085E-04 -1.124746E-18 -2.196042E-01  0.000000E+00
  9.181550E-01  2.007529E-03  5.000000E-01  9.274280E-01  1.958579E-03  0.000000E+00 -4.052527E-03  1.392820E-04 -8.549237E-19 -2.321136E-01  0.000000E+00
  9.095020E-01  2.336349E-03  5.000000E-01  9.186876E-01  2.290720E-03  0.000000E+00 -4.121957E-03  1.731616E-04 -1.371321E-19 -2.443013E-01  0.000000E+00
  9.002880E-01  2.760013E-03  5.000000E-01  9.093805E-01  2.718663E-03  0.000000E+00 -4.153948E-03  2.092958E-04  9.680705E-20 -2.559845E-01  0.000000E+00
  8.905020E-01  3.296144E-03  5.000000E-01  8.994957E-01  3.260209E-03  0.000000E+00 -4.139672E-03  2.478158E-04  2.783073E-19 -2.668141E-01  0.000000E+00
  8.801320E-01  3.969979E-03  5.000000E-01  8.890209E-01  3.940849E-03  0.000000E+00 -4.070860E-03  2.891753E-04  2.625441E-19 -2.763396E-01  0.000000E+00
  8.691700E-01  4.816614E-03  5.000000E-01  8.779482E-01  4.796034E-03  0.000000E+00 -3.940972E-03  3.326209E-04  3.164066E-20 -2.842565E-01  0.000000E+00
  8.691700E-01  4.816614E-03  5.000000E-01  8.779482E-01  4.796034E-03  0.000000E+00 -3.940972E-03  3.326209E-04  3.164066E-20 -2.842565E-01  0.000000E+00
  8.576080E-01  5.878727E-03  5.000000E-01  8.662695E-01  5.868875E-03  0.000000E+00 -3.747144E-03  3.755516E-04 -4.108557E-19 -2.903210E-01  0.000000E+00
  8.454380E-01  7.206393E-03  5.000000E-01  8.539765E-01  7.209950E-03  0.000000E+00 -3.492937E-03  4.146191E-04 -1.031386E-18 -2.943475E-01  0.000000E+00
  8.326580E-01  8.856408E-03  5.000000E-01  8.410675E-01  8.876629E-03  0.000000E+00 -3.190727E-03  4.461210E-04 -8.728790E-19 -2.962591E-01  0.000000E+00
  8.192630E-01  1.088745E-02  5.000000E-01  8.275372E-01  1.092819E-02  0.000000E+00 -2.862529E-03  4.667718E-04  5.496045E-19 -2.960880E-01  0.000000E+00
  8.052550E-01  1.335071E-02  5.000000E-01  8.133877E-01  1.341632E-02  0.000000E+00 -2.537747E-03  4.743640E-04  1.397220E-18 -2.942233E-01  0.000000E+00
  7.906370E-01  1.626661E-02  5.000000E-01  7.986221E-01  1.636167E-02  0.000000E+00 -2.247333E-03  4.678989E-04 -4.038613E-19 -2.916748E-01  0.000000E+00
  7.754120E-01  1.958738E-02  5.000000E-01  7.832433E-01  1.971598E-02  0.000000E+00 -2.017314E-03  4.524188E-04 -1.691594E-18 -2.893390E-01  0.000000E+00
  7.595880E-01  2.324318E-02  5.000000E-01  7.672595E-01  2.340870E-02  0.000000E+00 -1.864457E-03  4.426081E-04 -1.036074E-18 -2.874451E-01  0.000000E+00
  7.431760E-01  2.724982E-02  5.000000E-01  7.506817E-01  2.745581E-02  0.000000E+00 -1.793606E-03  4.505671E-04  5.099228E-19 -2.863262E-01  0.000000E+00
  7.261880E-01  3.163994E-02  5.000000E-01  7.335222E-01  3.189027E-02  0.000000E+00 -1.793825E-03  4.777114E-04  1.997290E-18 -2.864259E-01  0.000000E+00
  7.086430E-01  3.645212E-02  5.000000E-01  7.158000E-01  3.675105E-02  0.000000E+00 -1.835082E-03  5.192573E-04  1.057698E-18 -2.880588E-01  0.000000E+00
  6.905640E-01  4.173121E-02  5.000000E-01  6.975384E-01  4.208345E-02  0.000000E+00 -1.872122E-03  5.662269E-04  2.579784E-19 -2.900958E-01  0.000000E+00
  6.719770E-01  4.752966E-02  5.000000E-01  6.787637E-01  4.794047E-02  0.000000E+00 -1.857908E-03  6.042497E-04 -2.413512E-18 -2.873500E-01  0.000000E+00
  6.529150E-01  5.390147E-02  5.000000E-01  6.595091E-01  5.437663E-02  0.000000E+00 -1.737468E-03  5.964998E-04 -3.642829E-18 -2.804684E-01  0.000000E+00
  6.334180E-01  6.067706E-02  5.000000E-01  6.398152E-01  6.122065E-02  0.000000E+00 -1.358075E-03  4.605176E-04 -2.270617E-18 -3.019667E-01  0.000000E+00
  6.135280E-01  6.733709E-02  5.000000E-01  6.197244E-01  6.794794E-02  0.000000E+00 -2.747538E-04  8.422864E-05 -2.760822E-18 -4.236344E-01  0.000000E+00
  5.932910E-01  7.325113E-02  5.000000E-01  5.992830E-01  7.392171E-02  0.000000E+00  2.369877E-03 -5.479965E-04  6.543394E-19 -6.863672E-01  0.000000E+00
  5.727570E-01  7.770378E-02  5.000000E-01  5.785416E-01  7.841933E-02  0.000000E+00  7.419647E-03 -1.000208E-03  4.867755E-18 -9.902816E-01  0.000000E+00
  5.519810E-01  7.990743E-02  5.000000E-01  5.575558E-01  8.064523E-02  0.000000E+00  1.434883E-02 -2.496345E-04  3.901975E-18 -1.127271E+00  0.000000E+00
  5.310180E-01  7.924632E-02  5.000000E-01  5.363810E-01  7.997745E-02  0.000000E+00  2.021811E-02  1.856898E-03 -1.221728E-18 -1.018634E+00  0.000000E+00
  5.099250E-01  7.628657E-02  5.000000E-01  5.150750E-01  7.698780E-02  0.000000E+00  2.208358E-02  3.756005E-03 -4.155392E-18 -7.668113E-01  0.000000E+00
  4.887640E-01  7.203193E-02  5.000000E-01  4.937003E-01  7.269020E-02  0.000000E+00  1.996393E-02  4.136801E-03 -5.225997E-18 -4.872196E-01  0.000000E+00
  4.675910E-01  6.748085E-02  5.000000E-01  4.723135E-01  6.809315E-02  0.000000E+00  1.588299E-02  3.190920E-03 -5.646716E-18 -2.602107E-01  0.000000E+00
  7.860720E-05 -3.615253E-04  5.000000E-01  7.940618E-05 -4.344014E-04  0.000000E+00 -4.237583E-02  1.121754E-01 -2.882957E-14 -4.380784E-01  0.000000E+00
  3.989240E-04 -8.636388E-04  5.000000E-01  4.029580E-04 -9.415861E-04  0.000000E+00 -4.551214E-02  5.544397E-02 -2.329148E-14  5.853667E-01  0.000000E+00
  1.196920E-03 -1.473721E-03  5.000000E-01  1.209013E-03 -1.557830E-03  0.000000E+00 -3.008712E-02  2.018135E-02 -1.513849E-14  1.036272E+00  0.000000E+00
  2.563580E-03 -2.119656E-03  5.000000E-01  2.589476E-03 -2.210289E-03  0.000000E+00 -1.264473E-02  5.594988E-03 -7.454316E-15  1.068998E+00  0.000000E+00
  4.492740E-03 -2.773114E-03  5.000000E-01  4.538120E-03 -2.870346E-03  0.000000E+00 -1.010999E-03  4.355664E-04 -2.135105E-15  1.009889E+00  0.000000E+00
  6.952190E-03 -3.437067E-03  5.000000E-01  7.022409E-03 -3.541005E-03  0.000000E+00  5.306748E-03 -1.308369E-03  3.670142E-16  9.506081E-01  0.000000E+00
  9.910730E-03 -4.135480E-03  5.000000E-01  1.001083E-02 -4.246471E-03  0.000000E+00  8.339911E-03 -1.899351E-03  8.813906E-16  8.933182E-01  0.000000E+00
  1.334950E-02 -4.895987E-03  5.000000E-01  1.348433E-02 -5.014659E-03  0.000000E+00  9.633632E-03 -2.053117E-03  5.720102E-16  8.340107E-01  0.000000E+00
  1.728780E-02 -5.706961E-03  5.000000E-01  1.746240E-02 -5.833823E-03  0.000000E+00  1.008836E-02 -1.968610E-03  1.920495E-16  7.709442E-01  0.000000E+00
  2.175590E-02 -6.531776E-03  5.000000E-01  2.197563E-02 -6.666969E-03  0.000000E+00  1.018504E-02 -1.764641E-03 -6.538142E-18  7.098710E-01  0.000000E+00
  2.676920E-02 -7.342531E-03  5.000000E-01  2.703956E-02 -7.485912E-03  0.000000E+00  1.018646E-02 -1.549187E-03 -5.171354E-17  6.578675E-01  0.000000E+00
  3.232800E-02 -8.133403E-03  5.000000E-01  3.265450E-02 -8.284771E-03  0.000000E+00  1.022358E-02 -1.381095E-03 -3.393762E-17  6.164630E-01  0.000000E+00
  3.842930E-02 -8.914068E-03  5.000000E-01  3.881742E-02 -9.073321E-03  0.000000E+00  1.033111E-02 -1.273547E-03 -1.119560E-17  5.826387E-01  0.000000E+00
  4.507220E-02 -9.702390E-03  5.000000E-01  4.552741E-02 -9.869605E-03  0.000000E+00  1.049936E-02 -1.229969E-03  1.286642E-19  5.539954E-01  0.000000E+00
  5.225680E-02 -1.053265E-02  5.000000E-01  5.278457E-02 -1.070825E-02  0.000000E+00  1.071779E-02 -1.250837E-03  2.977051E-18  5.290506E-01  0.000000E+00
  5.998640E-02 -1.144357E-02  5.000000E-01  6.059224E-02 -1.162837E-02  0.000000E+00  1.097278E-02 -1.311959E-03  1.947128E-18  5.036296E-01  0.000000E+00
  6.827110E-02 -1.244891E-02  5.000000E-01  6.896061E-02 -1.264386E-02  0.000000E+00  1.124421E-02 -1.383292E-03  6.848225E-19  4.747762E-01  0.000000E+00
  7.712280E-02 -1.355227E-02  5.000000E-01  7.790171E-02 -1.375837E-02  0.000000E+00  1.152351E-02 -1.456717E-03  5.186133E-19  4.438380E-01  0.000000E+00
  8.655260E-02 -1.475996E-02  5.000000E-01  8.742675E-02 -1.497825E-02  0.000000E+00  1.181768E-02 -1.532180E-03 -8.596362E-20  4.119593E-01  0.000000E+00
  9.657140E-02 -1.607443E-02  5.000000E-01  9.754673E-02 -1.630600E-02  0.000000E+00  1.214144E-02 -1.602146E-03 -4.698935E-19  3.778796E-01  0.000000E+00
  1.071900E-01 -1.748381E-02  5.000000E-01  1.082726E-01 -1.772961E-02  0.000000E+00  1.252494E-02 -1.665108E-03  7.009635E-19  3.408840E-01  0.000000E+00
  1.184180E-01 -1.897839E-02  5.000000E-01  1.196140E-01 -1.923928E-02  0.000000E+00  1.302541E-02 -1.737535E-03  1.731456E-18  3.019132E-01  0.000000E+00
  1.302610E-01 -2.056083E-02  5.000000E-01  1.315766E-01 -2.083771E-02  0.000000E+00  1.370942E-02 -1.835147E-03  1.520319E-18  2.601119E-01  0.000000E+00
  1.427230E-01 -2.223163E-02  5.000000E-01  1.441644E-01 -2.252539E-02  0.000000E+00  1.461051E-02 -1.953569E-03  2.003897E-18  2.124161E-01  0.000000E+00
  1.427230E-01 -2.223163E-02  5.000000E-01  1.441644E-01 -2.252539E-02  0.000000E+00  1.461051E-02 -1.953569E-03  2.003897E-18  2.124161E-01  0.000000E+00
  1.558070E-01 -2.397704E-02  5.000000E-01  1.573806E-01 -2.428842E-02  0.000000E+00  1.567572E-02 -2.049997E-03  1.523159E-18  1.551841E-01  0.000000E+00
  1.695140E-01 -2.573718E-02  5.000000E-01  1.712260E-01 -2.606634E-02  0.000000E+00  1.671963E-02 -2.030735E-03  7.101151E-19  8.677431E-02  0.000000E+00
  1.838420E-01 -2.738430E-02  5.000000E-01  1.856987E-01 -2.773010E-02  0.000000E+00  1.742060E-02 -1.766726E-03  1.929366E-18  1.084089E-02  0.000000E+00
  1.987870E-01 -2.870504E-02  5.000000E-01  2.007947E-01 -2.906417E-02  0.000000E+00  1.738515E-02 -1.154691E-03  1.921513E-18 -6.463539E-02  0.000000E+00
  2.143420E-01 -2.938981E-02  5.000000E-01  2.165068E-01 -2.975586E-02  0.000000E+00  1.635701E-02 -2.873896E-04  3.198273E-19 -1.207479E-01  0.000000E+00
  2.304940E-01 -2.919741E-02  5.000000E-01  2.328219E-01 -2.956152E-02  0.000000E+00  1.447921E-02  4.975083E-04 -1.122451E-18 -1.258614E-01  0.000000E+00
  2.472290E-01 -2.817391E-02  5.000000E-01  2.497259E-01 -2.852768E-02  0.000000E+00  1.223097E-02  9.480063E-04 -1.814248E-18 -7.209445E-02  0.000000E+00
  2.645310E-01 -2.649050E-02  5.000000E-01  2.672026E-01 -2.682727E-02  0.000000E+00  1.017064E-02  1.077413E-03 -1.053450E-18  1.543200E-02  0.000000E+00
  2.823750E-01 -2.441902E-02  5.000000E-01  2.852269E-01 -2.473487E-02  0.000000E+00  8.807910E-03  1.004072E-03  5.968154E-19  1.097526E-01  0.000000E+00
  3.007320E-01 -2.237190E-02  5.000000E-01  3.037693E-01 -2.266707E-02  0.000000E+00  8.532321E-03  7.953191E-04 -1.567313E-20  1.911750E-01  0.000000E+00
  3.195690E-01 -2.094085E-02  5.000000E-01  3.227965E-01 -2.122157E-02  0.000000E+00  9.547579E-03  3.594458E-04 -5.584848E-19  2.460397E-01  0.000000E+00
  3.388440E-01 -2.083116E-02  5.000000E-01  3.422662E-01 -2.111077E-02  0.000000E+00  1.170062E-02 -3.794275E-04  2.671917E-19  2.483082E-01  0.000000E+00
  3.585140E-01 -2.208461E-02  5.000000E-01  3.621348E-01 -2.237688E-02  0.000000E+00  1.431445E-02 -1.120847E-03  6.944296E-19  1.649591E-01  0.000000E+00
  3.785290E-01 -2.390702E-02  5.000000E-01  3.823520E-01 -2.421769E-02  0.000000E+00  1.626978E-02 -1.317516E-03  1.505808E-18  1.156610E-02  0.000000E+00
  3.988350E-01 -2.536156E-02  5.000000E-01  4.028631E-01 -2.568693E-02  0.000000E+00  1.628523E-02 -6.334906E-04  2.468129E-18 -1.550591E-01  0.000000E+00
  4.193750E-01 -2.543697E-02  5.000000E-01  4.236105E-01 -2.576310E-02  0.000000E+00  1.361450E-02  6.330930E-04  3.638308E-18 -2.824784E-01  0.000000E+00
  4.400850E-01 -2.306849E-02  5.000000E-01  4.445297E-01 -2.337069E-02  0.000000E+00  8.972306E-03  1.482715E-03  3.888848E-18 -3.086939E-01  0.000000E+00
  4.609060E-01 -1.758902E-02  5.000000E-01  4.655609E-01 -1.783589E-02  0.000000E+00  4.343668E-03  1.254222E-03  2.993356E-18 -1.716399E-01  0.000000E+00
  4.818030E-01 -9.886575E-03  5.000000E-01  4.866690E-01 -1.005565E-02  0.000000E+00  1.184661E-03  4.499202E-04  8.050149E-19  6.121020E-02  0.000000E+00
  5.027520E-01 -1.304636E-03  5.000000E-01  5.078296E-01 -1.387037E-03  0.000000E+00 -4.792887E-04 -1.751884E-04 -2.571978E-18  2.360775E-01  0.000000E+00
  5.237130E-01  6.887161E-03  5.000000E-01  5.290023E-01  6.887493E-03  0.000000E+00 -1.220763E-03 -4.263985E-04 -2.205299E-18  3.050369E-01  0.000000E+00
  5.446170E-01  1.359592E-02  5.000000E-01  5.501174E-01  1.366401E-02  0.000000E+00 -1.498435E-03 -3.974453E-04 -1.327608E-18  3.189517E-01  0.000000E+00
  5.653940E-01  1.792944E-02  5.000000E-01  5.711042E-01  1.804130E-02  0.000000E+00 -1.490664E-03 -2.323655E-04 -7.417290E-19  3.305044E-01  0.000000E+00
  4.675910E-01  6.748085E-02  5.000000E-01  4.723135E-01  6.809315E-02  0.000000E+00  1.588299E-02  3.190920E-03 -5.646716E-18 -2.602107E-01  0.000000E+00
  4.464640E-01  6.360818E-02  5.000000E-01  4.509731E-01  6.418137E-02  0.000000E+00  1.174720E-02  1.786570E-03 -7.678006E-19 -1.415235E-01  0.000000E+00
  4.254410E-01  6.130152E-02  5.000000E-01  4.297378E-01  6.185141E-02  0.000000E+00  8.689084E-03  6.828496E-04  2.123016E-18 -1.282834E-01  0.000000E+00
  4.045840E-01  6.052457E-02  5.000000E-01  4.086701E-01  6.106662E-02  0.000000E+00  7.200093E-03  1.087725E-04  8.622862E-19 -1.842852E-01  0.000000E+00
  3.839530E-01  6.070881E-02  5.000000E-01  3.878308E-01  6.125272E-02  0.000000E+00  7.316706E-03 -1.483417E-04 -4.631636E-20 -2.936347E-01  0.000000E+00
  3.636060E-01  6.130892E-02  5.000000E-01  3.672783E-01  6.185889E-02  0.000000E+00  8.831476E-03 -2.402142E-04  2.508729E-19 -4.351909E-01  0.000000E+00
  3.435960E-01  6.182106E-02  5.000000E-01  3.470662E-01  6.237620E-02  0.000000E+00  1.132526E-02 -1.112163E-04  1.039505E-18 -5.618431E-01  0.000000E+00
  3.239710E-01  6.179249E-02  5.000000E-01  3.272430E-01  6.234735E-02  0.000000E+00  1.407812E-02  3.079695E-04  1.209306E-18 -6.330563E-01  0.000000E+00
  3.047740E-01  6.105443E-02  5.000000E-01  3.078521E-01  6.160183E-02  0.000000E+00  1.624981E-02  8.482374E-04  1.044638E-18 -6.547394E-01  0.000000E+00
  2.860450E-01  5.984140E-02  5.000000E-01  2.889339E-01  6.037654E-02  0.000000E+00  1.737015E-02  1.263410E-03  4.168583E-19 -6.510317E-01  0.000000E+00
  2.678190E-01  5.837492E-02  5.000000E-01  2.705239E-01  5.889525E-02  0.000000E+00  1.751698E-02  1.474812E-03  9.988075E-19 -6.358355E-01  0.000000E+00
  2.501300E-01  5.681822E-02  5.000000E-01  2.526562E-01  5.732283E-02  0.000000E+00  1.707594E-02  1.517912E-03  1.369330E-18 -6.229669E-01  0.000000E+00
  2.330040E-01  5.527889E-02  5.000000E-01  2.353572E-01  5.576796E-02  0.000000E+00  1.649039E-02  1.468050E-03  3.724138E-19 -6.254424E-01  0.000000E+00
  2.164660E-01  5.381738E-02  5.000000E-01  2.186522E-01  5.429169E-02  0.000000E+00  1.610765E-02  1.398981E-03 -1.138701E-21 -6.525690E-01  0.000000E+00
  2.005340E-01  5.245558E-02  5.000000E-01  2.025593E-01  5.291613E-02  0.000000E+00  1.615078E-02  1.396895E-03  4.039309E-20 -7.006867E-01  0.000000E+00
  1.852230E-01  5.111817E-02  5.000000E-01  1.870937E-01  5.156522E-02  0.000000E+00  1.669198E-02  1.533016E-03 -5.445580E-19 -7.569512E-01  0.000000E+00
  1.705440E-01  4.970911E-02  5.000000E-01  1.722664E-01  5.014192E-02  0.000000E+00  1.763833E-02  1.808941E-03 -6.634696E-19 -8.158096E-01  0.000000E+00
  1.565000E-01  4.818136E-02  5.000000E-01  1.580806E-01  4.859875E-02  0.000000E+00  1.882876E-02  2.193480E-03 -7.822902E-19 -8.795744E-01  0.000000E+00
  1.430940E-01  4.652039E-02  5.000000E-01  1.445392E-01  4.692100E-02  0.000000E+00  2.013985E-02  2.680796E-03 -2.001738E-18 -9.478047E-01  0.000000E+00
  1.303270E-01  4.470997E-02  5.000000E-01  1.316432E-01  4.509230E-02  0.000000E+00  2.149873E-02  3.305212E-03 -2.121451E-18 -1.009157E+00  0.000000E+00
  1.182110E-01  4.271292E-02  5.000000E-01  1.194049E-01  4.307507E-02  0.000000E+00  2.280514E-02  4.078444E-03 -6.841590E-19 -1.047499E+00  0.000000E+00
  1.067560E-01  4.051556E-02  5.000000E-01  1.078342E-01  4.085552E-02  0.000000E+00  2.388806E-02  4.940345E-03  4.121102E-19 -1.053776E+00  0.000000E+00
  9.596750E-02  3.813043E-02  5.000000E-01  9.693673E-02  3.844630E-02  0.000000E+00  2.456136E-02  5.742283E-03  2.649348E-18 -1.037153E+00  0.000000E+00
  8.582800E-02  3.563087E-02  5.000000E-01  8.669483E-02  3.592150E-02  0.000000E+00  2.478035E-02  6.354213E-03  3.667647E-18 -1.017443E+00  0.000000E+00
  8.582800E-02  3.563087E-02  5.000000E-01  8.669483E-02  3.592150E-02  0.000000E+00  2.478035E-02  6.354213E-03  3.667647E-18 -1.017443E+00  0.000000E+00
  7.631050E-02  3.309458E-02  5.000000E-01  7.708121E-02  3.335959E-02  0.000000E+00  2.471917E-02  6.836848E-03  4.328135E-18 -9.999674E-01  0.000000E+00
  6.740780E-02  3.054252E-02  5.000000E-01  6.808859E-02  3.078176E-02  0.000000E+00  2.458067E-02  7.314728E-03  1.136515E-17 -9.791526E-01  0.000000E+00
  5.911740E-02  2.798496E-02  5.000000E-01  5.971446E-02  2.819837E-02  0.000000E+00  2.444310E-02  7.811266E-03  2.813409E-17 -9.534178E-01  0.000000E+00
  5.143150E-02  2.544351E-02  5.000000E-01  5.195094E-02  2.563126E-02  0.000000E+00  2.430020E-02  8.297763E-03  7.139758E-17 -9.249790E-01  0.000000E+00
  4.433770E-02  2.294421E-02  5.000000E-01  4.478550E-02  2.310671E-02  0.000000E+00  2.412886E-02  8.754822E-03  1.477602E-16 -8.982284E-01  0.000000E+00
  3.782240E-02  2.051097E-02  5.000000E-01  3.820439E-02  2.064890E-02  0.000000E+00  2.392849E-02  9.190926E-03  1.629792E-16 -8.786683E-01  0.000000E+00
  3.187460E-02  1.816154E-02  5.000000E-01  3.219652E-02  1.827574E-02  0.000000E+00  2.373086E-02  9.638118E-03 -2.333418E-16 -8.700322E-01  0.000000E+00
  2.648400E-02  1.591069E-02  5.000000E-01  2.675148E-02  1.600216E-02  0.000000E+00  2.357409E-02  1.016013E-02 -1.826591E-15 -8.662565E-01  0.000000E+00
  2.164990E-02  1.376317E-02  5.000000E-01  2.186856E-02  1.383294E-02  0.000000E+00  2.340017E-02  1.079201E-02 -5.772142E-15 -8.507462E-01  0.000000E+00
  1.737670E-02  1.172162E-02  5.000000E-01  1.755220E-02  1.177078E-02  0.000000E+00  2.297134E-02  1.136633E-02 -1.300597E-14 -8.180904E-01  0.000000E+00
  1.364080E-02  9.808363E-03  5.000000E-01  1.377857E-02  9.838198E-03  0.000000E+00  2.200751E-02  1.155998E-02 -2.332952E-14 -7.886753E-01  0.000000E+00
  1.039090E-02  8.055166E-03  5.000000E-01  1.049585E-02  8.067295E-03  0.000000E+00  2.038365E-02  1.121540E-02 -3.482256E-14 -7.942691E-01  0.000000E+00
  7.586340E-03  6.478203E-03  5.000000E-01  7.662964E-03  6.474405E-03  0.000000E+00  1.812819E-02  1.047528E-02 -4.391027E-14 -8.607925E-01  0.000000E+00
  5.226210E-03  5.070410E-03  5.000000E-01  5.278997E-03  5.052394E-03  0.000000E+00  1.543833E-02  9.609124E-03 -4.626382E-14 -1.012972E+00  0.000000E+00
  3.324300E-03  3.820736E-03  5.000000E-01  3.357879E-03  3.790099E-03  0.000000E+00  1.311517E-02  9.204445E-03 -3.903145E-14 -1.268001E+00  0.000000E+00
  1.883580E-03  2.727932E-03  5.000000E-01  1.902608E-03  2.686258E-03  0.000000E+00  1.296889E-02  1.110048E-02 -2.423715E-14 -1.585460E+00  0.000000E+00
  8.951490E-04  1.799046E-03  5.000000E-01  9.041947E-04  1.747991E-03  0.000000E+00  1.616853E-02  1.871855E-02 -1.014450E-14 -1.844206E+00  0.000000E+00
  3.201820E-04  1.050870E-03  5.000000E-01  3.234208E-04  9.922581E-04  0.000000E+00  1.934434E-02  3.389445E-02 -5.057631E-15 -1.932693E+00  0.000000E+00
  6.852390E-05  5.049201E-04  5.000000E-01  6.922104E-05  4.407947E-04  0.000000E+00  1.661986E-02  5.429479E-02 -9.176247E-15 -1.935767E+00  0.000000E+00
  4.217600E-06  1.771273E-04  5.000000E-01  4.265279E-06  1.096913E-04  0.000000E+00  8.203732E-03  8.666472E-02 -1.664184E-14 -2.029287E+00  0.000000E+00
 -5.032520E-09  6.853271E-05  5.000000E-01  0.000000E+00  0.000000E+00  0.000000E+00 -3.688612E-03  1.428068E-01 -2.372706E-14 -2.041545E+00  0.000000E+00
  5.154440E-06 -4.031464E-05  5.000000E-01  5.211581E-06 -1.099467E-04  0.000000E+00 -2.223554E-02  1.609631E-01 -2.877988E-14 -1.521071E+00  0.000000E+00