 Title = "ADflow Slice Data"
Variables =  "CoordinateX"  "CoordinateY"  "CoordinateZ"  "XoC"  "YoC"  "ZoC" "VelocityX" "VelocityY" "VelocityZ" "CoefPressure" "Mach" 
Zone T= "Slice_0001 None Absolute Regular z = 0.50000000"
 Nodes =          192  Elements=          184  ZONETYPE=FELINESEG
 DATAPACKING=POINT
  5.653940E-01 -1.429579E-02  5.000000E-01  5.711041E-01 -1.464704E-02  0.000000E+00  1.402230E-02  3.272391E-04  5.121849E-19 -7.009372E-02  0.000000E+00
  5.859770E-01 -1.349816E-02  5.000000E-01  5.918950E-01 -1.384136E-02  0.000000E+00  1.342166E-02  7.308873E-04  3.915040E-19 -7.970886E-02  0.000000E+00
  6.063060E-01 -1.204960E-02  5.000000E-01  6.124293E-01 -1.237817E-02  0.000000E+00  1.239126E-02  1.072569E-03  1.072436E-19 -6.335367E-02  0.000000E+00
  6.263240E-01 -9.977691E-03  5.000000E-01  6.326495E-01 -1.028533E-02  0.000000E+00  1.103090E-02  1.291166E-03  1.179495E-18 -2.507229E-02  0.000000E+00
  6.459860E-01 -7.371399E-03  5.000000E-01  6.525101E-01 -7.652720E-03  0.000000E+00  9.492078E-03  1.367564E-03  1.055223E-18  2.882936E-02  0.000000E+00
  6.652460E-01 -4.335780E-03  5.000000E-01  6.719646E-01 -4.586443E-03  0.000000E+00  7.948506E-03  1.315877E-03  8.780748E-20  9.208013E-02  0.000000E+00
  6.840650E-01 -1.037260E-03  5.000000E-01  6.909736E-01 -1.254610E-03  0.000000E+00  6.571697E-03  1.164837E-03  4.099758E-19  1.611647E-01  0.000000E+00
  7.024070E-01  2.259142E-03  5.000000E-01  7.095009E-01  2.075084E-03  0.000000E+00  5.476699E-03  9.657573E-04  5.006318E-19  2.283924E-01  0.000000E+00
  7.202400E-01  5.326537E-03  5.000000E-01  7.275140E-01  5.173457E-03  0.000000E+00  4.694319E-03  7.708289E-04  2.644455E-19  2.840592E-01  0.000000E+00
  7.375350E-01  8.007345E-03  5.000000E-01  7.449836E-01  7.881340E-03  0.000000E+00  4.200529E-03  6.051431E-04  4.112823E-19  3.251579E-01  0.000000E+00
  7.542690E-01  1.021784E-02  5.000000E-01  7.618867E-01  1.011416E-02  0.000000E+00  3.952030E-03  4.716632E-04  2.772398E-19  3.537945E-01  0.000000E+00
  7.704220E-01  1.193288E-02  5.000000E-01  7.782028E-01  1.184652E-02  0.000000E+00  3.905114E-03  3.619297E-04  3.669014E-19  3.728571E-01  0.000000E+00
  7.859770E-01  1.316775E-02  5.000000E-01  7.939149E-01  1.309386E-02  0.000000E+00  4.022593E-03  2.626360E-04  7.796018E-19  3.847637E-01  0.000000E+00
  8.009220E-01  1.394425E-02  5.000000E-01  8.090108E-01  1.387820E-02  0.000000E+00  4.273592E-03  1.616219E-04  1.412173E-19  3.910895E-01  0.000000E+00
  8.152480E-01  1.429738E-02  5.000000E-01  8.234815E-01  1.423490E-02  0.000000E+00  4.626207E-03  5.560331E-05 -3.046610E-19  3.915016E-01  0.000000E+00
  8.289490E-01  1.430181E-02  5.000000E-01  8.373209E-01  1.423937E-02  0.000000E+00  5.044680E-03 -5.165213E-05  9.331042E-20  3.859685E-01  0.000000E+00
  8.420260E-01  1.404133E-02  5.000000E-01  8.505299E-01  1.397627E-02  0.000000E+00  5.495265E-03 -1.563365E-04  2.672681E-19  3.763387E-01  0.000000E+00
  8.544790E-01  1.358977E-02  5.000000E-01  8.631087E-01  1.352014E-02  0.000000E+00  5.949977E-03 -2.554063E-04  2.903643E-19  3.645298E-01  0.000000E+00
  8.663160E-01  1.300870E-02  5.000000E-01  8.750653E-01  1.293320E-02  0.000000E+00  6.385909E-03 -3.458197E-04  4.385171E-19  3.516351E-01  0.000000E+00
  8.775420E-01  1.234757E-02  5.000000E-01  8.864046E-01  1.226540E-02  0.000000E+00  6.784786E-03 -4.245897E-04  4.097493E-19  3.383537E-01  0.000000E+00
  8.881660E-01  1.164561E-02  5.000000E-01  8.971359E-01  1.155635E-02  0.000000E+00  7.133984E-03 -4.893934E-04  2.831603E-19  3.252811E-01  0.000000E+00
  8.981970E-01  1.093319E-02  5.000000E-01  9.072682E-01  1.083673E-02  0.000000E+00  7.428674E-03 -5.412711E-04  3.653892E-19  3.130812E-01  0.000000E+00
  9.076460E-01  1.022819E-02  5.000000E-01  9.168127E-01  1.012462E-02  0.000000E+00  7.674027E-03 -5.862570E-04  3.421203E-19  3.025315E-01  0.000000E+00
  9.165220E-01  9.534964E-03  5.000000E-01  9.257783E-01  9.424387E-03  0.000000E+00  7.882439E-03 -6.304640E-04 -1.953125E-19  2.936470E-01  0.000000E+00
  9.165220E-01  9.534964E-03  5.000000E-01  9.257783E-01  9.424387E-03  0.000000E+00  7.882439E-03 -6.304640E-04 -1.953125E-19  2.936470E-01  0.000000E+00
  9.248360E-01  8.854612E-03  5.000000E-01  9.341763E-01  8.737164E-03  0.000000E+00  8.067196E-03 -6.764919E-04 -2.683306E-19  2.856517E-01  0.000000E+00
  9.325990E-01  8.188140E-03  5.000000E-01  9.420177E-01  8.063961E-03  0.000000E+00  8.239837E-03 -7.256636E-04 -3.296565E-19  2.780273E-01  0.000000E+00
  9.398210E-01  7.536425E-03  5.000000E-01  9.493126E-01  7.405664E-03  0.000000E+00  8.410418E-03 -7.791849E-04 -2.742801E-20  2.705673E-01  0.000000E+00
  9.465130E-01  6.900662E-03  5.000000E-01  9.560722E-01  6.763480E-03  0.000000E+00  8.587444E-03 -8.379699E-04  3.841545E-19  2.630676E-01  0.000000E+00
  9.526870E-01  6.282597E-03  5.000000E-01  9.623085E-01  6.139173E-03  0.000000E+00  8.777545E-03 -9.026444E-04  1.501163E-20  2.553139E-01  0.000000E+00
  9.583540E-01  5.684694E-03  5.000000E-01  9.680328E-01  5.535232E-03  0.000000E+00  8.985564E-03 -9.735731E-04  9.027881E-21  2.471250E-01  0.000000E+00
  9.635240E-01  5.110158E-03  5.000000E-01  9.732550E-01  4.954894E-03  0.000000E+00  9.215082E-03 -1.050736E-03 -1.048214E-19  2.383398E-01  0.000000E+00
  9.682080E-01  4.562839E-03  5.000000E-01  9.779863E-01  4.402047E-03  0.000000E+00  9.470078E-03 -1.134221E-03 -1.636405E-19  2.288742E-01  0.000000E+00
  9.724140E-01  4.047141E-03  5.000000E-01  9.822348E-01  3.881141E-03  0.000000E+00  9.757380E-03 -1.224310E-03 -1.586765E-19  2.187021E-01  0.000000E+00
  9.761510E-01  3.567843E-03  5.000000E-01  9.860095E-01  3.397002E-03  0.000000E+00  1.008709E-02 -1.321143E-03 -5.845436E-19  2.077799E-01  0.000000E+00
  9.794290E-01  3.129872E-03  5.000000E-01  9.893206E-01  2.954608E-03  0.000000E+00  1.046620E-02 -1.425016E-03 -8.555089E-19  1.961050E-01  0.000000E+00
  9.822540E-01  2.738202E-03  5.000000E-01  9.921742E-01  2.558982E-03  0.000000E+00  1.088145E-02 -1.534369E-03 -6.005061E-19  1.839095E-01  0.000000E+00
  9.846330E-01  2.397566E-03  5.000000E-01  9.945772E-01  2.214906E-03  0.000000E+00  1.128200E-02 -1.639429E-03  8.086267E-19  1.724257E-01  0.000000E+00
  9.865710E-01  2.112315E-03  5.000000E-01  9.965348E-01  1.926774E-03  0.000000E+00  1.154206E-02 -1.709138E-03  2.346126E-18  1.605281E-01  0.000000E+00
  9.880740E-01  1.886244E-03  5.000000E-01  9.980529E-01  1.698420E-03  0.000000E+00  1.145227E-02 -1.739529E-03 -2.017836E-18  1.418526E-01  0.000000E+00
  9.891450E-01  1.722447E-03  5.000000E-01  9.991348E-01  1.532969E-03  0.000000E+00  1.168625E-02 -1.879250E-03 -2.540776E-17  1.428701E-01  0.000000E+00
  9.897860E-01  1.623229E-03  5.000000E-01  9.997822E-01  1.432748E-03  0.000000E+00  1.512137E-02 -1.869270E-03 -7.366393E-17  1.908527E-01  0.000000E+00
  9.900000E-01  1.590002E-03  5.000000E-01  9.999984E-01  1.399186E-03  0.000000E+00  1.057332E-02 -4.240523E-03 -7.829328E-17 -5.131554E-02  0.000000E+00
  9.900000E-01  1.668713E-03  5.000000E-01  9.999984E-01  1.478691E-03  0.000000E+00  1.059121E-03 -1.465317E-02  6.443456E-18 -1.890142E-01  0.000000E+00
  9.900000E-01  1.747433E-03  5.000000E-01  9.999984E-01  1.558207E-03  0.000000E+00 -5.256451E-04 -1.370298E-02  8.836108E-17 -1.324401E-02  0.000000E+00
  9.900000E-01  1.826153E-03  5.000000E-01  9.999984E-01  1.637722E-03  0.000000E+00 -3.085023E-04  2.831704E-03  1.039305E-16 -1.768139E-02  0.000000E+00
  9.900000E-01  1.904864E-03  5.000000E-01  9.999984E-01  1.717228E-03  0.000000E+00  7.276080E-04  4.142116E-03  1.320799E-16 -1.383305E-01  0.000000E+00
  9.900000E-01  1.983584E-03  5.000000E-01  9.999984E-01  1.796743E-03  0.000000E+00  6.054814E-03 -2.551997E-03  1.718175E-16 -4.254867E-02  0.000000E+00
  9.900000E-01  1.983584E-03  5.000000E-01  9.999984E-01  1.796743E-03  0.000000E+00  6.054814E-03 -2.551997E-03  1.718175E-16 -4.254867E-02  0.000000E+00
  9.897900E-01  2.026409E-03  5.000000E-01  9.997863E-01  1.840000E-03  0.000000E+00  7.911755E-03 -1.951971E-03  1.245207E-16  1.030172E-01  0.000000E+00
  9.891580E-01  2.154824E-03  5.000000E-01  9.991479E-01  1.969712E-03  0.000000E+00  4.969612E-03 -9.473720E-04  4.269419E-17  5.971404E-02  0.000000E+00
  9.881040E-01  2.368679E-03  5.000000E-01  9.980832E-01  2.185727E-03  0.000000E+00  4.243500E-03 -8.582231E-04  4.730003E-18  4.958089E-02  0.000000E+00
  9.866260E-01  2.667697E-03  5.000000E-01  9.965903E-01  2.487765E-03  0.000000E+00  4.095640E-03 -8.327577E-04 -4.086139E-18  5.121539E-02  0.000000E+00
  9.847200E-01  3.051457E-03  5.000000E-01  9.946651E-01  2.875400E-03  0.000000E+00  4.046673E-03 -8.118262E-04 -3.423045E-18  4.565741E-02  0.000000E+00
  9.823820E-01  3.519361E-03  5.000000E-01  9.923034E-01  3.348030E-03  0.000000E+00  4.123664E-03 -8.216851E-04 -1.577507E-18  3.733297E-02  0.000000E+00
  9.796080E-01  4.070585E-03  5.000000E-01  9.895014E-01  3.904821E-03  0.000000E+00  4.306681E-03 -8.518821E-04 -8.219561E-19  2.822473E-02  0.000000E+00
  9.763910E-01  4.704045E-03  5.000000E-01  9.862519E-01  4.544679E-03  0.000000E+00  4.556007E-03 -8.925463E-04 -8.851457E-19  1.779296E-02  0.000000E+00
  9.727270E-01  5.418272E-03  5.000000E-01  9.825509E-01  5.266119E-03  0.000000E+00  4.845813E-03 -9.385653E-04 -5.086177E-19  5.943664E-03  0.000000E+00
  9.686070E-01  6.211480E-03  5.000000E-01  9.783893E-01  6.067338E-03  0.000000E+00  5.160943E-03 -9.863803E-04 -2.947395E-19 -7.079402E-03  0.000000E+00
  9.640240E-01  7.081378E-03  5.000000E-01  9.737600E-01  6.946021E-03  0.000000E+00  5.493251E-03 -1.033789E-03 -3.536166E-19 -2.112330E-02  0.000000E+00
  9.589680E-01  8.025195E-03  5.000000E-01  9.686530E-01  7.899370E-03  0.000000E+00  5.839458E-03 -1.079641E-03  7.438396E-20 -3.605617E-02  0.000000E+00
  9.534310E-01  9.039572E-03  5.000000E-01  9.630601E-01  8.923992E-03  0.000000E+00  6.198247E-03 -1.123155E-03  6.081463E-19 -5.174271E-02  0.000000E+00
  9.474030E-01  1.012055E-02  5.000000E-01  9.569712E-01  1.001589E-02  0.000000E+00  6.567981E-03 -1.163230E-03  5.261109E-19 -6.794843E-02  0.000000E+00
  9.408720E-01  1.126353E-02  5.000000E-01  9.503742E-01  1.117041E-02  0.000000E+00  6.945485E-03 -1.198795E-03  1.687609E-19 -8.448898E-02  0.000000E+00
  9.338280E-01  1.246323E-02  5.000000E-01  9.432591E-01  1.238223E-02  0.000000E+00  7.326546E-03 -1.228747E-03 -3.330200E-19 -1.011850E-01  0.000000E+00
  9.262600E-01  1.371376E-02  5.000000E-01  9.356147E-01  1.364539E-02  0.000000E+00  7.706031E-03 -1.251650E-03 -6.278583E-19 -1.177642E-01  0.000000E+00
  9.181550E-01  1.500843E-02  5.000000E-01  9.274278E-01  1.495313E-02  0.000000E+00  8.077580E-03 -1.266194E-03  5.082149E-19 -1.339874E-01  0.000000E+00
  9.095020E-01  1.634006E-02  5.000000E-01  9.186874E-01  1.629821E-02  0.000000E+00  8.433874E-03 -1.271116E-03  1.196509E-18 -1.494943E-01  0.000000E+00
  9.002880E-01  1.770069E-02  5.000000E-01  9.093804E-01  1.767259E-02  0.000000E+00  8.766121E-03 -1.265370E-03  2.038140E-19 -1.637175E-01  0.000000E+00
  8.905020E-01  1.908202E-02  5.000000E-01  8.994955E-01  1.906786E-02  0.000000E+00  9.064018E-03 -1.249479E-03 -2.318011E-19 -1.762757E-01  0.000000E+00
  8.801320E-01  2.047833E-02  5.000000E-01  8.890208E-01  2.047827E-02  0.000000E+00  9.318323E-03 -1.225682E-03  1.796894E-19 -1.871489E-01  0.000000E+00
  8.691700E-01  2.188684E-02  5.000000E-01  8.779481E-01  2.190101E-02  0.000000E+00  9.523492E-03 -1.196131E-03  6.908521E-19 -1.964174E-01  0.000000E+00
  8.691700E-01  2.188684E-02  5.000000E-01  8.779481E-01  2.190101E-02  0.000000E+00  9.523492E-03 -1.196131E-03  6.908521E-19 -1.964174E-01  0.000000E+00
  8.576080E-01  2.330615E-02  5.000000E-01  8.662693E-01  2.333466E-02  0.000000E+00  9.677631E-03 -1.162446E-03  2.751679E-19 -2.040450E-01  0.000000E+00
  8.454380E-01  2.473629E-02  5.000000E-01  8.539764E-01  2.477923E-02  0.000000E+00  9.780975E-03 -1.126823E-03 -9.950864E-19 -2.099992E-01  0.000000E+00
  8.326580E-01  2.617949E-02  5.000000E-01  8.410673E-01  2.623701E-02  0.000000E+00  9.835643E-03 -1.091972E-03 -7.084720E-19 -2.143857E-01  0.000000E+00
  8.192630E-01  2.764135E-02  5.000000E-01  8.275370E-01  2.771364E-02  0.000000E+00  9.846482E-03 -1.061469E-03 -2.241673E-19 -2.177312E-01  0.000000E+00
  8.052550E-01  2.913263E-02  5.000000E-01  8.133876E-01  2.921997E-02  0.000000E+00  9.822994E-03 -1.039027E-03 -4.860544E-19 -2.210276E-01  0.000000E+00
  7.906370E-01  3.066859E-02  5.000000E-01  7.986219E-01  3.077145E-02  0.000000E+00  9.780635E-03 -1.025981E-03 -4.303077E-19 -2.250394E-01  0.000000E+00
  7.754120E-01  3.226308E-02  5.000000E-01  7.832432E-01  3.238205E-02  0.000000E+00  9.738095E-03 -1.021994E-03 -9.325150E-19 -2.300935E-01  0.000000E+00
  7.595880E-01  3.392744E-02  5.000000E-01  7.672594E-01  3.406321E-02  0.000000E+00  9.713965E-03 -1.027740E-03 -8.738138E-19 -2.367762E-01  0.000000E+00
  7.431760E-01  3.567412E-02  5.000000E-01  7.506816E-01  3.582754E-02  0.000000E+00  9.727148E-03 -1.044427E-03 -8.946914E-19 -2.461522E-01  0.000000E+00
  7.261880E-01  3.751398E-02  5.000000E-01  7.335220E-01  3.768597E-02  0.000000E+00  9.797297E-03 -1.071516E-03 -1.600109E-18 -2.595668E-01  0.000000E+00
  7.086430E-01  3.945060E-02  5.000000E-01  7.157999E-01  3.964215E-02  0.000000E+00  9.942442E-03 -1.105035E-03 -1.174981E-18 -2.780627E-01  0.000000E+00
  6.905640E-01  4.147247E-02  5.000000E-01  6.975383E-01  4.168444E-02  0.000000E+00  1.017339E-02 -1.137006E-03 -2.754571E-19 -3.012058E-01  0.000000E+00
  6.719770E-01  4.354814E-02  5.000000E-01  6.787636E-01  4.378108E-02  0.000000E+00  1.048522E-02 -1.157038E-03  1.025777E-19 -3.265384E-01  0.000000E+00
  6.529150E-01  4.562802E-02  5.000000E-01  6.595090E-01  4.588196E-02  0.000000E+00  1.085110E-02 -1.158260E-03  3.991076E-19 -3.510394E-01  0.000000E+00
  6.334180E-01  4.766501E-02  5.000000E-01  6.398151E-01  4.793952E-02  0.000000E+00  1.122778E-02 -1.143464E-03  7.566367E-19 -3.735991E-01  0.000000E+00
  6.135280E-01  4.963983E-02  5.000000E-01  6.197243E-01  4.993429E-02  0.000000E+00  1.157599E-02 -1.118600E-03  4.654460E-19 -3.942707E-01  0.000000E+00
  5.932910E-01  5.154328E-02  5.000000E-01  5.992829E-01  5.185696E-02  0.000000E+00  1.187376E-02 -1.086810E-03  7.307823E-20 -4.130144E-01  0.000000E+00
  5.727570E-01  5.337214E-02  5.000000E-01  5.785415E-01  5.370430E-02  0.000000E+00  1.211570E-02 -1.051688E-03 -8.222167E-19 -4.303652E-01  0.000000E+00
  5.519810E-01  5.512932E-02  5.000000E-01  5.575557E-01  5.547922E-02  0.000000E+00  1.231013E-02 -1.016986E-03 -6.780200E-19 -4.472802E-01  0.000000E+00
  5.310180E-01  5.682072E-02  5.000000E-01  5.363810E-01  5.718770E-02  0.000000E+00  1.247406E-02 -9.838617E-04 -8.681176E-20 -4.646655E-01  0.000000E+00
  5.099250E-01  5.844595E-02  5.000000E-01  5.150749E-01  5.882934E-02  0.000000E+00  1.262516E-02 -9.543081E-04 -9.983364E-20 -4.839468E-01  0.000000E+00
  4.887640E-01  6.001404E-02  5.000000E-01  4.937002E-01  6.041327E-02  0.000000E+00  1.278191E-02 -9.264570E-04 -1.722767E-19 -5.051913E-01  0.000000E+00
  4.675910E-01  6.151581E-02  5.000000E-01  4.723134E-01  6.193021E-02  0.000000E+00  1.295783E-02 -8.938436E-04 -7.599421E-19 -5.267332E-01  0.000000E+00
  7.860720E-05 -2.170939E-04  5.000000E-01  7.940617E-05 -4.261605E-04  0.000000E+00 -6.793822E-03  1.974270E-02  2.275457E-14  1.024999E+00  0.000000E+00
  3.989240E-04 -6.803926E-04  5.000000E-01  4.029580E-04 -8.941382E-04  0.000000E+00 -1.874164E-03  4.024089E-03  1.896483E-14  1.115270E+00  0.000000E+00
  1.196920E-03 -1.194180E-03  5.000000E-01  1.209013E-03 -1.413114E-03  0.000000E+00  6.010983E-03 -2.558098E-03  1.214043E-14  9.535586E-01  0.000000E+00
  2.563580E-03 -1.680929E-03  5.000000E-01  2.589476E-03 -1.904779E-03  0.000000E+00  1.037461E-02 -2.991929E-03  5.215943E-15  7.797517E-01  0.000000E+00
  4.492740E-03 -2.120009E-03  5.000000E-01  4.538119E-03 -2.348294E-03  0.000000E+00  1.174696E-02 -2.295694E-03  6.247803E-16  6.885564E-01  0.000000E+00
  6.952190E-03 -2.524591E-03  5.000000E-01  7.022408E-03 -2.756962E-03  0.000000E+00  1.210306E-02 -1.816984E-03 -1.150218E-15  6.392276E-01  0.000000E+00
  9.910730E-03 -2.928095E-03  5.000000E-01  1.001083E-02 -3.164541E-03  0.000000E+00  1.230413E-02 -1.619854E-03 -1.145457E-15  5.998297E-01  0.000000E+00
  1.334950E-02 -3.365668E-03  5.000000E-01  1.348433E-02 -3.606534E-03  0.000000E+00  1.253409E-02 -1.526668E-03 -5.872067E-16  5.564088E-01  0.000000E+00
  1.728780E-02 -3.825860E-03  5.000000E-01  1.746240E-02 -4.071373E-03  0.000000E+00  1.272320E-02 -1.370466E-03 -1.474667E-16  5.052179E-01  0.000000E+00
  2.175590E-02 -4.266823E-03  5.000000E-01  2.197563E-02 -4.516790E-03  0.000000E+00  1.279101E-02 -1.127198E-03  3.645609E-17  4.562527E-01  0.000000E+00
  2.676920E-02 -4.654318E-03  5.000000E-01  2.703956E-02 -4.908198E-03  0.000000E+00  1.274286E-02 -8.640835E-04  6.040787E-17  4.198416E-01  0.000000E+00
  3.232800E-02 -4.977114E-03  5.000000E-01  3.265450E-02 -5.234254E-03  0.000000E+00  1.262830E-02 -6.391087E-04  3.415170E-17  3.969753E-01  0.000000E+00
  3.842930E-02 -5.240028E-03  5.000000E-01  3.881742E-02 -5.499823E-03  0.000000E+00  1.248916E-02 -4.724969E-04  1.074819E-17  3.824919E-01  0.000000E+00
  4.507220E-02 -5.456245E-03  5.000000E-01  4.552741E-02 -5.718224E-03  0.000000E+00  1.236330E-02 -3.747691E-04  2.600583E-19  3.727911E-01  0.000000E+00
  5.225680E-02 -5.657222E-03  5.000000E-01  5.278457E-02 -5.921231E-03  0.000000E+00  1.229023E-02 -3.481736E-04 -1.949760E-18  3.659909E-01  0.000000E+00
  5.998640E-02 -5.879277E-03  5.000000E-01  6.059223E-02 -6.145529E-03  0.000000E+00  1.227658E-02 -3.609347E-04 -1.327058E-18  3.571892E-01  0.000000E+00
  6.827110E-02 -6.129563E-03  5.000000E-01  6.896060E-02 -6.398341E-03  0.000000E+00  1.229348E-02 -3.756172E-04 -5.653535E-19  3.434874E-01  0.000000E+00
  7.712280E-02 -6.403021E-03  5.000000E-01  7.790170E-02 -6.674562E-03  0.000000E+00  1.231426E-02 -3.830079E-04 -3.156589E-19  3.276952E-01  0.000000E+00
  8.655260E-02 -6.697620E-03  5.000000E-01  8.742673E-02 -6.972136E-03  0.000000E+00  1.232402E-02 -3.830707E-04 -1.023194E-19  3.123791E-01  0.000000E+00
  9.657140E-02 -7.007610E-03  5.000000E-01  9.754672E-02 -7.285257E-03  0.000000E+00  1.230823E-02 -3.671788E-04  2.096305E-20  2.971006E-01  0.000000E+00
  1.071900E-01 -7.313079E-03  5.000000E-01  1.082726E-01 -7.593810E-03  0.000000E+00  1.226212E-02 -3.339325E-04 -1.260668E-19  2.821455E-01  0.000000E+00
  1.184180E-01 -7.601028E-03  5.000000E-01  1.196140E-01 -7.884668E-03  0.000000E+00  1.220693E-02 -3.006740E-04 -1.161569E-19  2.698169E-01  0.000000E+00
  1.302610E-01 -7.880037E-03  5.000000E-01  1.315766E-01 -8.166495E-03  0.000000E+00  1.217587E-02 -2.841862E-04  4.767750E-20  2.603412E-01  0.000000E+00
  1.427230E-01 -8.168035E-03  5.000000E-01  1.441644E-01 -8.457401E-03  0.000000E+00  1.218933E-02 -2.888278E-04 -2.773205E-20  2.515742E-01  0.000000E+00
  1.427230E-01 -8.168035E-03  5.000000E-01  1.441644E-01 -8.457401E-03  0.000000E+00  1.218933E-02 -2.888278E-04 -2.773205E-20  2.515742E-01  0.000000E+00
  1.558070E-01 -8.486002E-03  5.000000E-01  1.573806E-01 -8.778580E-03  0.000000E+00  1.223980E-02 -3.045224E-04 -1.350499E-19  2.409547E-01  0.000000E+00
  1.695140E-01 -8.835656E-03  5.000000E-01  1.712260E-01 -9.131764E-03  0.000000E+00  1.229241E-02 -3.107710E-04  2.197868E-20  2.270934E-01  0.000000E+00
  1.838420E-01 -9.194965E-03  5.000000E-01  1.856987E-01 -9.494703E-03  0.000000E+00  1.230286E-02 -2.887058E-04  1.162695E-19  2.111927E-01  0.000000E+00
  1.987870E-01 -9.521891E-03  5.000000E-01  2.007946E-01 -9.824931E-03  0.000000E+00  1.223640E-02 -2.271275E-04 -9.695570E-20  1.954811E-01  0.000000E+00
  2.143420E-01 -9.758940E-03  5.000000E-01  2.165067E-01 -1.006437E-02  0.000000E+00  1.208838E-02 -1.383741E-04 -2.359903E-19  1.831787E-01  0.000000E+00
  2.304940E-01 -9.879966E-03  5.000000E-01  2.328219E-01 -1.018662E-02  0.000000E+00  1.189507E-02 -6.291457E-05 -1.852963E-19  1.784136E-01  0.000000E+00
  2.472290E-01 -9.929142E-03  5.000000E-01  2.497259E-01 -1.023629E-02  0.000000E+00  1.170118E-02 -2.677353E-05 -3.716303E-19  1.802023E-01  0.000000E+00
  2.645310E-01 -9.958240E-03  5.000000E-01  2.672026E-01 -1.026569E-02  0.000000E+00  1.152314E-02 -1.830059E-05 -3.339568E-19  1.823556E-01  0.000000E+00
  2.823750E-01 -9.986790E-03  5.000000E-01  2.852268E-01 -1.029452E-02  0.000000E+00  1.135630E-02 -1.658483E-05  2.176797E-21  1.813600E-01  0.000000E+00
  3.007320E-01 -1.001141E-02  5.000000E-01  3.037692E-01 -1.031939E-02  0.000000E+00  1.119977E-02 -1.597037E-05  2.431547E-19  1.787525E-01  0.000000E+00
  3.195690E-01 -1.003895E-02  5.000000E-01  3.227965E-01 -1.034721E-02  0.000000E+00  1.106548E-02 -2.371187E-05  1.414759E-19  1.770033E-01  0.000000E+00
  3.388440E-01 -1.009276E-02  5.000000E-01  3.422661E-01 -1.040157E-02  0.000000E+00  1.097105E-02 -4.647897E-05  1.839522E-19  1.761084E-01  0.000000E+00
  3.585140E-01 -1.020477E-02  5.000000E-01  3.621348E-01 -1.051471E-02  0.000000E+00  1.093285E-02 -8.445903E-05  6.029524E-19  1.741461E-01  0.000000E+00
  3.785290E-01 -1.040055E-02  5.000000E-01  3.823519E-01 -1.071247E-02  0.000000E+00  1.096599E-02 -1.346834E-04  6.046380E-19  1.693313E-01  0.000000E+00
  3.988350E-01 -1.070040E-02  5.000000E-01  4.028630E-01 -1.101535E-02  0.000000E+00  1.108754E-02 -1.953800E-04  1.584268E-19  1.609740E-01  0.000000E+00
  4.193750E-01 -1.112009E-02  5.000000E-01  4.236104E-01 -1.143927E-02  0.000000E+00  1.131470E-02 -2.614070E-04 -7.488879E-20  1.483666E-01  0.000000E+00
  4.400850E-01 -1.165227E-02  5.000000E-01  4.445296E-01 -1.197683E-02  0.000000E+00  1.166192E-02 -3.225153E-04 -2.346176E-19  1.307232E-01  0.000000E+00
  4.609060E-01 -1.226878E-02  5.000000E-01  4.655609E-01 -1.259956E-02  0.000000E+00  1.213155E-02 -3.639234E-04  2.317913E-19  1.066649E-01  0.000000E+00
  4.818030E-01 -1.290338E-02  5.000000E-01  4.866689E-01 -1.324057E-02  0.000000E+00  1.271184E-02 -3.891397E-04  5.119688E-19  7.811550E-02  0.000000E+00
  5.027520E-01 -1.354720E-02  5.000000E-01  5.078295E-01 -1.389090E-02  0.000000E+00  1.334792E-02 -3.926397E-04  2.697864E-19  4.697811E-02  0.000000E+00
  5.237130E-01 -1.413933E-02  5.000000E-01  5.290022E-01 -1.448900E-02  0.000000E+00  1.389699E-02 -3.042015E-04  4.571010E-19  8.830640E-03  0.000000E+00
  5.446170E-01 -1.447359E-02  5.000000E-01  5.501173E-01 -1.482664E-02  0.000000E+00  1.416665E-02 -5.227847E-05  3.708521E-19 -3.556205E-02  0.000000E+00
  5.653940E-01 -1.429579E-02  5.000000E-01  5.711041E-01 -1.464704E-02  0.000000E+00  1.402230E-02  3.272391E-04  5.121849E-19 -7.009372E-02  0.000000E+00
  4.675910E-01  6.151581E-02  5.000000E-01  4.723134E-01  6.193021E-02  0.000000E+00  1.295783E-02 -8.938436E-04 -7.599421E-19 -5.267332E-01  0.000000E+00
  4.464640E-01  6.293312E-02  5.000000E-01  4.509730E-01  6.336183E-02  0.000000E+00  1.315145E-02 -8.601982E-04 -2.982540E-19 -5.494305E-01  0.000000E+00
  4.254410E-01  6.427278E-02  5.000000E-01  4.297377E-01  6.471502E-02  0.000000E+00  1.336220E-02 -8.307826E-04  3.494940E-19 -5.755629E-01  0.000000E+00
  4.045840E-01  6.553718E-02  5.000000E-01  4.086701E-01  6.599219E-02  0.000000E+00  1.360058E-02 -8.012982E-04  2.146560E-19 -6.060827E-01  0.000000E+00
  3.839530E-01  6.671758E-02  5.000000E-01  3.878307E-01  6.718451E-02  0.000000E+00  1.387763E-02 -7.642070E-04 -1.318421E-19 -6.407777E-01  0.000000E+00
  3.636060E-01  6.779504E-02  5.000000E-01  3.672782E-01  6.827285E-02  0.000000E+00  1.419498E-02 -7.129565E-04 -3.619875E-19 -6.782588E-01  0.000000E+00
  3.435960E-01  6.874741E-02  5.000000E-01  3.470661E-01  6.923485E-02  0.000000E+00  1.453899E-02 -6.433399E-04 -1.129867E-19 -7.167582E-01  0.000000E+00
  3.239710E-01  6.955228E-02  5.000000E-01  3.272429E-01  7.004784E-02  0.000000E+00  1.488246E-02 -5.590799E-04  5.389138E-19 -7.565138E-01  0.000000E+00
  3.047740E-01  7.020767E-02  5.000000E-01  3.078520E-01  7.070985E-02  0.000000E+00  1.520576E-02 -4.713214E-04  4.124113E-19 -7.996452E-01  0.000000E+00
  2.860450E-01  7.073030E-02  5.000000E-01  2.889339E-01  7.123775E-02  0.000000E+00  1.552584E-02 -3.806549E-04 -7.368915E-20 -8.456701E-01  0.000000E+00
  2.678190E-01  7.111938E-02  5.000000E-01  2.705238E-01  7.163077E-02  0.000000E+00  1.588831E-02 -2.792017E-04  1.487377E-19 -8.938433E-01  0.000000E+00
  2.501300E-01  7.136834E-02  5.000000E-01  2.526562E-01  7.188224E-02  0.000000E+00  1.635146E-02 -1.635244E-04  3.921188E-19 -9.518493E-01  0.000000E+00
  2.330040E-01  7.147104E-02  5.000000E-01  2.353572E-01  7.198597E-02  0.000000E+00  1.701049E-02 -2.860920E-05  2.736641E-19 -1.038618E+00  0.000000E+00
  2.164660E-01  7.142078E-02  5.000000E-01  2.186522E-01  7.193521E-02  0.000000E+00  1.805021E-02  1.520148E-04  9.935059E-20 -1.171983E+00  0.000000E+00
  2.005340E-01  7.119987E-02  5.000000E-01  2.025593E-01  7.171207E-02  0.000000E+00  1.976436E-02  5.078005E-04  2.282372E-19 -1.338490E+00  0.000000E+00
  1.852230E-01  7.064714E-02  5.000000E-01  1.870936E-01  7.115376E-02  0.000000E+00  2.228637E-02  1.216817E-03  1.057608E-18 -1.498992E+00  0.000000E+00
  1.705440E-01  6.961100E-02  5.000000E-01  1.722664E-01  7.010716E-02  0.000000E+00  2.530959E-02  2.318583E-03  6.475176E-19 -1.625712E+00  0.000000E+00
  1.565000E-01  6.806460E-02  5.000000E-01  1.580806E-01  6.854513E-02  0.000000E+00  2.825603E-02  3.708551E-03 -6.897432E-19 -1.707365E+00  0.000000E+00
  1.430940E-01  6.604795E-02  5.000000E-01  1.445392E-01  6.650812E-02  0.000000E+00  3.062412E-02  5.253787E-03 -2.806048E-18 -1.737362E+00  0.000000E+00
  1.303270E-01  6.360606E-02  5.000000E-01  1.316432E-01  6.404157E-02  0.000000E+00  3.217878E-02  6.877713E-03 -3.809491E-18 -1.708158E+00  0.000000E+00
  1.182110E-01  6.075587E-02  5.000000E-01  1.194049E-01  6.116259E-02  0.000000E+00  3.287482E-02  8.500487E-03 -2.137014E-18 -1.618187E+00  0.000000E+00
  1.067560E-01  5.753134E-02  5.000000E-01  1.078342E-01  5.790550E-02  0.000000E+00  3.274531E-02  9.980571E-03 -9.009706E-19 -1.479011E+00  0.000000E+00
  9.596750E-02  5.398806E-02  5.000000E-01  9.693672E-02  5.432643E-02  0.000000E+00  3.187559E-02  1.110434E-02 -8.425990E-19 -1.318557E+00  0.000000E+00
  8.582800E-02  5.024278E-02  5.000000E-01  8.669481E-02  5.054332E-02  0.000000E+00  3.047404E-02  1.174535E-02  1.680992E-19 -1.167209E+00  0.000000E+00
  8.582800E-02  5.024278E-02  5.000000E-01  8.669481E-02  5.054332E-02  0.000000E+00  3.047404E-02  1.174535E-02  1.680992E-19 -1.167209E+00  0.000000E+00
  7.631050E-02  4.641194E-02  5.000000E-01  7.708119E-02  4.667380E-02  0.000000E+00  2.889031E-02  1.207677E-02  2.090963E-18 -1.031325E+00  0.000000E+00
  6.740780E-02  4.254535E-02  5.000000E-01  6.808858E-02  4.276815E-02  0.000000E+00  2.738737E-02  1.232563E-02  3.868053E-18 -9.029813E-01  0.000000E+00
  5.911740E-02  3.867756E-02  5.000000E-01  5.971445E-02  3.886131E-02  0.000000E+00  2.602972E-02  1.253939E-02  3.040972E-18 -7.792922E-01  0.000000E+00
  5.143150E-02  3.485261E-02  5.000000E-01  5.195093E-02  3.499773E-02  0.000000E+00  2.478249E-02  1.268477E-02 -4.719651E-19 -6.611232E-01  0.000000E+00
  4.433770E-02  3.111628E-02  5.000000E-01  4.478549E-02  3.122366E-02  0.000000E+00  2.359901E-02  1.273977E-02 -8.150712E-19 -5.502671E-01  0.000000E+00
  3.782240E-02  2.750926E-02  5.000000E-01  3.820439E-02  2.758021E-02  0.000000E+00  2.245446E-02  1.271260E-02  2.346127E-18 -4.488713E-01  0.000000E+00
  3.187460E-02  2.406307E-02  5.000000E-01  3.219652E-02  2.409922E-02  0.000000E+00  2.134917E-02  1.263124E-02  8.604585E-18 -3.587546E-01  0.000000E+00
  2.648400E-02  2.080367E-02  5.000000E-01  2.675148E-02  2.080690E-02  0.000000E+00  2.029558E-02  1.255157E-02  1.438168E-17 -2.758036E-01  0.000000E+00
  2.164990E-02  1.774505E-02  5.000000E-01  2.186856E-02  1.771739E-02  0.000000E+00  1.927712E-02  1.251657E-02  1.952978E-19 -1.884943E-01  0.000000E+00
  1.737670E-02  1.489762E-02  5.000000E-01  1.755220E-02  1.484121E-02  0.000000E+00  1.823214E-02  1.243822E-02 -7.557026E-17 -9.346375E-02  0.000000E+00
  1.364080E-02  1.228621E-02  5.000000E-01  1.377857E-02  1.220342E-02  0.000000E+00  1.713418E-02  1.216861E-02 -2.696807E-16 -3.545972E-03  0.000000E+00
  1.039090E-02  9.938035E-03  5.000000E-01  1.049585E-02  9.831529E-03  0.000000E+00  1.607027E-02  1.174686E-02 -6.067398E-16  6.727135E-02  0.000000E+00
  7.586340E-03  7.862279E-03  5.000000E-01  7.662962E-03  7.734809E-03  0.000000E+00  1.520680E-02  1.146888E-02 -9.832124E-16  1.193640E-01  0.000000E+00
  5.226210E-03  6.048013E-03  5.000000E-01  5.278997E-03  5.902220E-03  0.000000E+00  1.471090E-02  1.170747E-02 -1.053989E-15  1.608365E-01  0.000000E+00
  3.324300E-03  4.481469E-03  5.000000E-01  3.357878E-03  4.319854E-03  0.000000E+00  1.471958E-02  1.283293E-02 -2.527936E-16  1.957388E-01  0.000000E+00
  1.883580E-03  3.156558E-03  5.000000E-01  1.902608E-03  2.981563E-03  0.000000E+00  1.520548E-02  1.535903E-02  1.920441E-15  2.356927E-01  0.000000E+00
  8.951490E-04  2.073316E-03  5.000000E-01  9.041945E-04  1.887382E-03  0.000000E+00  1.545866E-02  1.973887E-02  5.471312E-15  3.132686E-01  0.000000E+00
  3.201820E-04  1.237368E-03  5.000000E-01  3.234207E-04  1.042990E-03  0.000000E+00  1.365211E-02  2.508388E-02  9.773819E-15  4.628553E-01  0.000000E+00
  6.852390E-05  6.529748E-04  5.000000E-01  6.922103E-05  4.526953E-04  0.000000E+00  8.733481E-03  2.795694E-02  1.396760E-14  6.412050E-01  0.000000E+00
  4.217600E-06  3.145579E-04  5.000000E-01  4.265278E-06  1.108607E-04  0.000000E+00  3.249534E-03  2.742930E-02  1.743899E-14  6.966428E-01  0.000000E+00
 -5.032520E-09  2.048057E-04  5.000000E-01  0.000000E+00  0.000000E+00  0.000000E+00 -6.819541E-04  3.151788E-02  2.030038E-14  6.444539E-01  0.000000E+00
  5.154440E-06  9.606988E-05  5.000000E-01  5.211580E-06 -1.098340E-04  0.000000E+00 -4.706425E-03  3.301691E-02  2.261165E-14  7.519290E-01  0.000000E+00