 Title = "ADflow Slice Data"
Variables =  "CoordinateX"  "CoordinateY"  "CoordinateZ"  "XoC"  "YoC"  "ZoC" "VelocityX" "VelocityY" "VelocityZ" "CoefPressure" "Mach" 
Zone T= "Slice_0001 None Absolute Regular z = 0.50000000"
 Nodes =          192  Elements=          184  ZONETYPE=FELINESEG
 DATAPACKING=POINT
  5.653940E-01 -2.567625E-03  5.000000E-01  5.711040E-01 -2.666867E-03  0.000000E+00  9.790394E-03  6.062549E-04  8.264822E-19  1.428398E-01  0.000000E+00
  5.859770E-01 -1.211742E-03  5.000000E-01  5.918948E-01 -1.297290E-03  0.000000E+00  9.483471E-03  6.570976E-04  5.281104E-19  1.499507E-01  0.000000E+00
  6.063060E-01  2.697042E-04  5.000000E-01  6.124291E-01  1.991175E-04  0.000000E+00  9.139517E-03  6.876049E-04  1.128496E-19  1.650991E-01  0.000000E+00
  6.263240E-01  1.824240E-03  5.000000E-01  6.326493E-01  1.769353E-03  0.000000E+00  8.805297E-03  6.871072E-04 -4.701727E-19  1.840863E-01  0.000000E+00
  6.459860E-01  3.366218E-03  5.000000E-01  6.525099E-01  3.326903E-03  0.000000E+00  8.512541E-03  6.550642E-04 -6.210613E-19  2.037612E-01  0.000000E+00
  6.652460E-01  4.818593E-03  5.000000E-01  6.719644E-01  4.793946E-03  0.000000E+00  8.259022E-03  6.073041E-04 -5.817041E-19  2.208335E-01  0.000000E+00
  6.840650E-01  6.163285E-03  5.000000E-01  6.909734E-01  6.152218E-03  0.000000E+00  8.008770E-03  5.679280E-04 -1.234028E-20  2.328367E-01  0.000000E+00
  7.024070E-01  7.452382E-03  5.000000E-01  7.095007E-01  7.454334E-03  0.000000E+00  7.723693E-03  5.435733E-04  5.228192E-19  2.423788E-01  0.000000E+00
  7.202400E-01  8.711317E-03  5.000000E-01  7.275138E-01  8.725983E-03  0.000000E+00  7.391333E-03  5.213928E-04  4.125459E-19  2.545651E-01  0.000000E+00
  7.375350E-01  9.931917E-03  5.000000E-01  7.449834E-01  9.958910E-03  0.000000E+00  7.023458E-03  4.905755E-04  1.203506E-19  2.706615E-01  0.000000E+00
  7.542690E-01  1.108824E-02  5.000000E-01  7.618864E-01  1.112691E-02  0.000000E+00  6.648190E-03  4.481493E-04 -8.874473E-19  2.890453E-01  0.000000E+00
  7.704220E-01  1.214700E-02  5.000000E-01  7.782026E-01  1.219636E-02  0.000000E+00  6.303007E-03  3.952549E-04 -1.201241E-18  3.073981E-01  0.000000E+00
  7.859770E-01  1.307571E-02  5.000000E-01  7.939147E-01  1.313445E-02  0.000000E+00  6.033671E-03  3.257607E-04  2.082783E-19  3.253392E-01  0.000000E+00
  8.009220E-01  1.379675E-02  5.000000E-01  8.090106E-01  1.386278E-02  0.000000E+00  5.886210E-03  2.302710E-04  1.097911E-18  3.429462E-01  0.000000E+00
  8.152480E-01  1.422419E-02  5.000000E-01  8.234813E-01  1.429454E-02  0.000000E+00  5.878906E-03  1.163049E-04  9.318722E-19  3.558003E-01  0.000000E+00
  8.289490E-01  1.435569E-02  5.000000E-01  8.373206E-01  1.442736E-02  0.000000E+00  5.993406E-03 -1.640108E-07  3.584210E-19  3.602170E-01  0.000000E+00
  8.420260E-01  1.423233E-02  5.000000E-01  8.505297E-01  1.430276E-02  0.000000E+00  6.195938E-03 -1.116468E-04 -5.445630E-20  3.580810E-01  0.000000E+00
  8.544790E-01  1.390578E-02  5.000000E-01  8.631085E-01  1.397291E-02  0.000000E+00  6.453179E-03 -2.159859E-04 -1.882725E-20  3.524113E-01  0.000000E+00
  8.663160E-01  1.342779E-02  5.000000E-01  8.750650E-01  1.349009E-02  0.000000E+00  6.735275E-03 -3.117573E-04 -4.604549E-19  3.447692E-01  0.000000E+00
  8.775420E-01  1.284467E-02  5.000000E-01  8.864044E-01  1.290108E-02  0.000000E+00  7.016434E-03 -3.969817E-04 -6.261132E-19  3.358996E-01  0.000000E+00
  8.881660E-01  1.219614E-02  5.000000E-01  8.971357E-01  1.224600E-02  0.000000E+00  7.277066E-03 -4.696833E-04 -3.029693E-19  3.264208E-01  0.000000E+00
  8.981970E-01  1.151472E-02  5.000000E-01  9.072680E-01  1.155770E-02  0.000000E+00  7.506837E-03 -5.310205E-04  2.567562E-20  3.171161E-01  0.000000E+00
  9.076460E-01  1.082083E-02  5.000000E-01  9.168124E-01  1.085680E-02  0.000000E+00  7.706969E-03 -5.870476E-04 -1.463168E-19  3.088879E-01  0.000000E+00
  9.165220E-01  1.012128E-02  5.000000E-01  9.257781E-01  1.015018E-02  0.000000E+00  7.886620E-03 -6.434519E-04 -5.941845E-19  3.017661E-01  0.000000E+00
  9.165220E-01  1.012128E-02  5.000000E-01  9.257781E-01  1.015018E-02  0.000000E+00  7.886620E-03 -6.434519E-04 -5.941845E-19  3.017661E-01  0.000000E+00
  9.248360E-01  9.420256E-03  5.000000E-01  9.341760E-01  9.442082E-03  0.000000E+00  8.055797E-03 -7.020801E-04 -9.322514E-19  2.949690E-01  0.000000E+00
  9.325990E-01  8.722025E-03  5.000000E-01  9.420174E-01  8.736799E-03  0.000000E+00  8.222836E-03 -7.636794E-04 -4.586648E-19  2.880600E-01  0.000000E+00
  9.398210E-01  8.030556E-03  5.000000E-01  9.493124E-01  8.038347E-03  0.000000E+00  8.395023E-03 -8.291526E-04  1.307960E-19  2.809500E-01  0.000000E+00
  9.465130E-01  7.349795E-03  5.000000E-01  9.560719E-01  7.350711E-03  0.000000E+00  8.578650E-03 -8.993008E-04  4.398638E-19  2.735307E-01  0.000000E+00
  9.526870E-01  6.683821E-03  5.000000E-01  9.623083E-01  6.678011E-03  0.000000E+00  8.778652E-03 -9.747565E-04  7.101522E-19  2.656565E-01  0.000000E+00
  9.583540E-01  6.037018E-03  5.000000E-01  9.680325E-01  6.024676E-03  0.000000E+00  8.998652E-03 -1.055956E-03 -1.385331E-19  2.571986E-01  0.000000E+00
  9.635240E-01  5.414131E-03  5.000000E-01  9.732547E-01  5.395498E-03  0.000000E+00  9.241472E-03 -1.142992E-03 -6.506393E-19  2.480364E-01  0.000000E+00
  9.682080E-01  4.820209E-03  5.000000E-01  9.779860E-01  4.795578E-03  0.000000E+00  9.510763E-03 -1.236112E-03 -7.130616E-19  2.381170E-01  0.000000E+00
  9.724140E-01  4.260598E-03  5.000000E-01  9.822345E-01  4.230315E-03  0.000000E+00  9.813414E-03 -1.335819E-03 -1.104882E-18  2.274353E-01  0.000000E+00
  9.761510E-01  3.740784E-03  5.000000E-01  9.860093E-01  3.705252E-03  0.000000E+00  1.015978E-02 -1.442523E-03 -1.332904E-18  2.159603E-01  0.000000E+00
  9.794290E-01  3.266203E-03  5.000000E-01  9.893204E-01  3.225878E-03  0.000000E+00  1.055684E-02 -1.556705E-03 -1.520607E-18  2.037030E-01  0.000000E+00
  9.822540E-01  2.842234E-03  5.000000E-01  9.921739E-01  2.797628E-03  0.000000E+00  1.099014E-02 -1.676544E-03 -4.573816E-19  1.909131E-01  0.000000E+00
  9.846330E-01  2.473897E-03  5.000000E-01  9.945769E-01  2.425571E-03  0.000000E+00  1.140514E-02 -1.791057E-03  2.521092E-18  1.788390E-01  0.000000E+00
  9.865710E-01  2.165757E-03  5.000000E-01  9.965345E-01  2.114319E-03  0.000000E+00  1.166881E-02 -1.866511E-03  4.529203E-18  1.663473E-01  0.000000E+00
  9.880740E-01  1.921743E-03  5.000000E-01  9.980527E-01  1.867840E-03  0.000000E+00  1.156424E-02 -1.895432E-03 -2.571746E-18  1.471943E-01  0.000000E+00
  9.891450E-01  1.745062E-03  5.000000E-01  9.991345E-01  1.689375E-03  0.000000E+00  1.176637E-02 -2.033160E-03 -3.111244E-17  1.482086E-01  0.000000E+00
  9.897860E-01  1.638094E-03  5.000000E-01  9.997820E-01  1.581327E-03  0.000000E+00  1.515175E-02 -2.055112E-03 -8.120952E-17  1.957438E-01  0.000000E+00
  9.900000E-01  1.602274E-03  5.000000E-01  9.999981E-01  1.545145E-03  0.000000E+00  1.057518E-02 -4.440115E-03 -7.853539E-17 -4.755177E-02  0.000000E+00
  9.900000E-01  1.680984E-03  5.000000E-01  9.999981E-01  1.624650E-03  0.000000E+00  1.058981E-03 -1.482973E-02  1.325266E-17 -1.852736E-01  0.000000E+00
  9.900000E-01  1.759704E-03  5.000000E-01  9.999981E-01  1.704165E-03  0.000000E+00 -5.266409E-04 -1.392934E-02  1.016732E-16 -9.544722E-03  0.000000E+00
  9.900000E-01  1.838425E-03  5.000000E-01  9.999981E-01  1.783681E-03  0.000000E+00 -2.998258E-04  2.455220E-03  1.280142E-16 -1.422007E-02  0.000000E+00
  9.900000E-01  1.917135E-03  5.000000E-01  9.999981E-01  1.863186E-03  0.000000E+00  7.114761E-04  3.864192E-03  1.589213E-16 -1.321772E-01  0.000000E+00
  9.900000E-01  1.995855E-03  5.000000E-01  9.999981E-01  1.942701E-03  0.000000E+00  5.890669E-03 -2.617281E-03  1.916333E-16 -3.844026E-02  0.000000E+00
  9.900000E-01  1.995855E-03  5.000000E-01  9.999981E-01  1.942701E-03  0.000000E+00  5.890669E-03 -2.617281E-03  1.916333E-16 -3.844026E-02  0.000000E+00
  9.897900E-01  2.041253E-03  5.000000E-01  9.997860E-01  1.988557E-03  0.000000E+00  7.671528E-03 -1.988573E-03  1.330082E-16  1.033428E-01  0.000000E+00
  9.891580E-01  2.177401E-03  5.000000E-01  9.991476E-01  2.126080E-03  0.000000E+00  4.759321E-03 -9.640508E-04  4.086486E-17  6.115434E-02  0.000000E+00
  9.881040E-01  2.404124E-03  5.000000E-01  9.980830E-01  2.355093E-03  0.000000E+00  4.000912E-03 -8.579469E-04 -9.317095E-19  5.150433E-02  0.000000E+00
  9.866260E-01  2.721133E-03  5.000000E-01  9.965900E-01  2.675304E-03  0.000000E+00  3.815923E-03 -8.225431E-04 -7.523529E-18  5.331495E-02  0.000000E+00
  9.847200E-01  3.128006E-03  5.000000E-01  9.946648E-01  3.086286E-03  0.000000E+00  3.739977E-03 -7.955560E-04 -3.644748E-18  4.805714E-02  0.000000E+00
  9.823820E-01  3.624147E-03  5.000000E-01  9.923032E-01  3.587437E-03  0.000000E+00  3.796980E-03 -8.023163E-04 -6.528807E-19  4.004084E-02  0.000000E+00
  9.796080E-01  4.208738E-03  5.000000E-01  9.895012E-01  4.177932E-03  0.000000E+00  3.964270E-03 -8.317509E-04 -1.048471E-19  3.124090E-02  0.000000E+00
  9.763910E-01  4.880762E-03  5.000000E-01  9.862517E-01  4.856742E-03  0.000000E+00  4.199911E-03 -8.730747E-04 -2.761988E-19  2.114496E-02  0.000000E+00
  9.727270E-01  5.638815E-03  5.000000E-01  9.825507E-01  5.622451E-03  0.000000E+00  4.476257E-03 -9.205168E-04 -8.893152E-20  9.659375E-03  0.000000E+00
  9.686070E-01  6.481293E-03  5.000000E-01  9.783891E-01  6.473438E-03  0.000000E+00  4.776947E-03 -9.701870E-04 -6.771827E-19 -2.973738E-03  0.000000E+00
  9.640240E-01  7.406144E-03  5.000000E-01  9.737598E-01  7.407629E-03  0.000000E+00  5.093043E-03 -1.019735E-03 -1.321174E-18 -1.659683E-02  0.000000E+00
  9.589680E-01  8.410973E-03  5.000000E-01  9.686527E-01  8.422606E-03  0.000000E+00  5.420668E-03 -1.067998E-03 -8.250033E-19 -3.107192E-02  0.000000E+00
  9.534310E-01  9.492918E-03  5.000000E-01  9.630598E-01  9.515478E-03  0.000000E+00  5.758012E-03 -1.114258E-03  2.275173E-20 -4.625988E-02  0.000000E+00
  9.474030E-01  1.064871E-02  5.000000E-01  9.569709E-01  1.068294E-02  0.000000E+00  6.103043E-03 -1.157553E-03 -4.212517E-20 -6.193171E-02  0.000000E+00
  9.408720E-01  1.187467E-02  5.000000E-01  9.503740E-01  1.192128E-02  0.000000E+00  6.452323E-03 -1.196967E-03 -2.205568E-19 -7.791285E-02  0.000000E+00
  9.338280E-01  1.316665E-02  5.000000E-01  9.432588E-01  1.322632E-02  0.000000E+00  6.801479E-03 -1.231593E-03 -5.309172E-19 -9.404108E-02  0.000000E+00
  9.262600E-01  1.452023E-02  5.000000E-01  9.356144E-01  1.459356E-02  0.000000E+00  7.145348E-03 -1.260229E-03 -4.766301E-20 -1.100765E-01  0.000000E+00
  9.181550E-01  1.593045E-02  5.000000E-01  9.274275E-01  1.601802E-02  0.000000E+00  7.477727E-03 -1.281795E-03  2.781606E-19 -1.258308E-01  0.000000E+00
  9.095020E-01  1.739223E-02  5.000000E-01  9.186872E-01  1.749457E-02  0.000000E+00  7.791662E-03 -1.295234E-03 -6.060279E-19 -1.410020E-01  0.000000E+00
  9.002880E-01  1.890002E-02  5.000000E-01  9.093801E-01  1.901758E-02  0.000000E+00  8.078883E-03 -1.299651E-03 -3.286538E-19 -1.550759E-01  0.000000E+00
  8.905020E-01  2.044820E-02  5.000000E-01  8.994953E-01  2.058140E-02  0.000000E+00  8.329841E-03 -1.295662E-03  3.676268E-19 -1.677353E-01  0.000000E+00
  8.801320E-01  2.203441E-02  5.000000E-01  8.890205E-01  2.218363E-02  0.000000E+00  8.536597E-03 -1.285714E-03  1.750230E-18 -1.790660E-01  0.000000E+00
  8.691700E-01  2.366015E-02  5.000000E-01  8.779478E-01  2.382579E-02  0.000000E+00  8.696129E-03 -1.272426E-03  2.427789E-18 -1.893012E-01  0.000000E+00
  8.691700E-01  2.366015E-02  5.000000E-01  8.779478E-01  2.382579E-02  0.000000E+00  8.696129E-03 -1.272426E-03  2.427789E-18 -1.893012E-01  0.000000E+00
  8.576080E-01  2.532930E-02  5.000000E-01  8.662691E-01  2.551180E-02  0.000000E+00  8.811080E-03 -1.258149E-03  1.934873E-18 -1.985935E-01  0.000000E+00
  8.454380E-01  2.704824E-02  5.000000E-01  8.539762E-01  2.724809E-02  0.000000E+00  8.888978E-03 -1.246059E-03  9.276753E-19 -2.071658E-01  0.000000E+00
  8.326580E-01  2.882656E-02  5.000000E-01  8.410671E-01  2.904437E-02  0.000000E+00  8.942484E-03 -1.239961E-03  2.181530E-20 -2.155814E-01  0.000000E+00
  8.192630E-01  3.067763E-02  5.000000E-01  8.275368E-01  3.091414E-02  0.000000E+00  8.990300E-03 -1.244182E-03  2.284429E-19 -2.252244E-01  0.000000E+00
  8.052550E-01  3.261856E-02  5.000000E-01  8.133874E-01  3.287467E-02  0.000000E+00  9.058217E-03 -1.261843E-03  2.923946E-19 -2.381009E-01  0.000000E+00
  7.906370E-01  3.466493E-02  5.000000E-01  7.986217E-01  3.494170E-02  0.000000E+00  9.176469E-03 -1.290685E-03  7.768963E-19 -2.552511E-01  0.000000E+00
  7.754120E-01  3.681614E-02  5.000000E-01  7.832430E-01  3.711464E-02  0.000000E+00  9.368821E-03 -1.323655E-03  1.119039E-18 -2.761265E-01  0.000000E+00
  7.595880E-01  3.905160E-02  5.000000E-01  7.672592E-01  3.937267E-02  0.000000E+00  9.641488E-03 -1.354985E-03  1.251247E-18 -3.000242E-01  0.000000E+00
  7.431760E-01  4.134600E-02  5.000000E-01  7.506814E-01  4.169025E-02  0.000000E+00  9.983909E-03 -1.380826E-03  1.146959E-18 -3.263163E-01  0.000000E+00
  7.261880E-01  4.367069E-02  5.000000E-01  7.335218E-01  4.403841E-02  0.000000E+00  1.037477E-02 -1.396533E-03  9.451397E-19 -3.535821E-01  0.000000E+00
  7.086430E-01  4.599494E-02  5.000000E-01  7.157997E-01  4.638613E-02  0.000000E+00  1.078617E-02 -1.398120E-03  1.167672E-19 -3.797701E-01  0.000000E+00
  6.905640E-01  4.828979E-02  5.000000E-01  6.975381E-01  4.870416E-02  0.000000E+00  1.118923E-02 -1.385945E-03 -1.170154E-18 -4.035294E-01  0.000000E+00
  6.719770E-01  5.053744E-02  5.000000E-01  6.787634E-01  5.097452E-02  0.000000E+00  1.156335E-02 -1.367825E-03 -1.777911E-18 -4.260457E-01  0.000000E+00
  6.529150E-01  5.274290E-02  5.000000E-01  6.595089E-01  5.320225E-02  0.000000E+00  1.191001E-02 -1.351532E-03 -1.405491E-18 -4.497794E-01  0.000000E+00
  6.334180E-01  5.491296E-02  5.000000E-01  6.398150E-01  5.539422E-02  0.000000E+00  1.225371E-02 -1.334992E-03  9.844497E-20 -4.758436E-01  0.000000E+00
  6.135280E-01  5.703400E-02  5.000000E-01  6.197241E-01  5.753668E-02  0.000000E+00  1.262249E-02 -1.312570E-03  6.997583E-19 -5.047170E-01  0.000000E+00
  5.932910E-01  5.908534E-02  5.000000E-01  5.992827E-01  5.960874E-02  0.000000E+00  1.303420E-02 -1.279832E-03  8.626061E-19 -5.362416E-01  0.000000E+00
  5.727570E-01  6.103806E-02  5.000000E-01  5.785413E-01  6.158118E-02  0.000000E+00  1.349265E-02 -1.230195E-03  4.521510E-19 -5.680830E-01  0.000000E+00
  5.519810E-01  6.285497E-02  5.000000E-01  5.575555E-01  6.341644E-02  0.000000E+00  1.398297E-02 -1.157709E-03 -4.164381E-19 -5.970116E-01  0.000000E+00
  5.310180E-01  6.449761E-02  5.000000E-01  5.363808E-01  6.507567E-02  0.000000E+00  1.447302E-02 -1.068379E-03 -6.483258E-19 -6.232210E-01  0.000000E+00
  5.099250E-01  6.596090E-02  5.000000E-01  5.150748E-01  6.655374E-02  0.000000E+00  1.493803E-02 -9.758064E-04 -1.209317E-19 -6.503025E-01  0.000000E+00
  4.887640E-01  6.725866E-02  5.000000E-01  4.937001E-01  6.786460E-02  0.000000E+00  1.538674E-02 -8.777239E-04  3.348635E-19 -6.791855E-01  0.000000E+00
  4.675910E-01  6.837877E-02  5.000000E-01  4.723133E-01  6.899602E-02  0.000000E+00  1.584258E-02 -7.595230E-04  9.747909E-19 -7.073146E-01  0.000000E+00
  7.860720E-05 -4.621220E-04  5.000000E-01  7.940615E-05 -5.400994E-04  0.000000E+00 -1.021376E-02  3.407740E-02 -4.406171E-17  8.082970E-01  0.000000E+00
  3.989240E-04 -1.087568E-03  5.000000E-01  4.029579E-04 -1.171862E-03  0.000000E+00 -9.266873E-03  1.506517E-02 -7.516606E-17  1.081203E+00  0.000000E+00
  1.196920E-03 -1.846377E-03  5.000000E-01  1.209013E-03 -1.938334E-03  0.000000E+00 -2.167828E-03  2.474794E-03 -4.661089E-17  1.077965E+00  0.000000E+00
  2.563580E-03 -2.642603E-03  5.000000E-01  2.589475E-03 -2.742601E-03  0.000000E+00  4.866306E-03 -2.202785E-03 -8.867258E-18  9.343815E-01  0.000000E+00
  4.492740E-03 -3.432987E-03  5.000000E-01  4.538118E-03 -3.540967E-03  0.000000E+00  9.099794E-03 -3.251155E-03  1.357101E-17  8.081579E-01  0.000000E+00
  6.952190E-03 -4.213093E-03  5.000000E-01  7.022406E-03 -4.328952E-03  0.000000E+00  1.125741E-02 -3.273631E-03  1.296323E-17  7.199289E-01  0.000000E+00
  9.910730E-03 -5.004314E-03  5.000000E-01  1.001082E-02 -5.128164E-03  0.000000E+00  1.239955E-02 -3.143183E-03  2.987728E-18  6.506892E-01  0.000000E+00
  1.334950E-02 -5.831970E-03  5.000000E-01  1.348432E-02 -5.964178E-03  0.000000E+00  1.309202E-02 -2.967325E-03 -3.303847E-18  5.828086E-01  0.000000E+00
  1.728780E-02 -6.673429E-03  5.000000E-01  1.746240E-02 -6.814135E-03  0.000000E+00  1.351065E-02 -2.655847E-03 -4.814404E-18  5.094083E-01  0.000000E+00
  2.175590E-02 -7.477181E-03  5.000000E-01  2.197562E-02 -7.626005E-03  0.000000E+00  1.370016E-02 -2.226845E-03 -3.541831E-18  4.412055E-01  0.000000E+00
  2.676920E-02 -8.204158E-03  5.000000E-01  2.703955E-02 -8.360323E-03  0.000000E+00  1.372775E-02 -1.785497E-03 -1.545716E-18  3.901152E-01  0.000000E+00
  3.232800E-02 -8.842714E-03  5.000000E-01  3.265449E-02 -9.005328E-03  0.000000E+00  1.367055E-02 -1.409161E-03 -3.651570E-19  3.570570E-01  0.000000E+00
  3.842930E-02 -9.399333E-03  5.000000E-01  3.881741E-02 -9.567568E-03  0.000000E+00  1.357634E-02 -1.119878E-03 -9.005222E-20  3.355532E-01  0.000000E+00
  4.507220E-02 -9.889018E-03  5.000000E-01  4.552739E-02 -1.006220E-02  0.000000E+00  1.348094E-02 -9.240362E-04 -1.283645E-19  3.207229E-01  0.000000E+00
  5.225680E-02 -1.034357E-02  5.000000E-01  5.278455E-02 -1.052134E-02  0.000000E+00  1.342286E-02 -8.183528E-04  1.449285E-19  3.098054E-01  0.000000E+00
  5.998640E-02 -1.079736E-02  5.000000E-01  6.059221E-02 -1.097972E-02  0.000000E+00  1.341016E-02 -7.636048E-04  5.456141E-19  2.974200E-01  0.000000E+00
  6.827110E-02 -1.125556E-02  5.000000E-01  6.896058E-02 -1.144254E-02  0.000000E+00  1.341751E-02 -7.168081E-04  2.517406E-19  2.806383E-01  0.000000E+00
  7.712280E-02 -1.171173E-02  5.000000E-01  7.790168E-02 -1.190332E-02  0.000000E+00  1.342247E-02 -6.669517E-04 -1.391430E-19  2.623477E-01  0.000000E+00
  8.655260E-02 -1.216226E-02  5.000000E-01  8.742671E-02 -1.235840E-02  0.000000E+00  1.341249E-02 -6.133218E-04 -1.047191E-19  2.450697E-01  0.000000E+00
  9.657140E-02 -1.259997E-02  5.000000E-01  9.754669E-02 -1.280053E-02  0.000000E+00  1.337277E-02 -5.466833E-04  3.065520E-19  2.283409E-01  0.000000E+00
  1.071900E-01 -1.300456E-02  5.000000E-01  1.082725E-01 -1.320920E-02  0.000000E+00  1.329638E-02 -4.651594E-04  7.100548E-19  2.124232E-01  0.000000E+00
  1.184180E-01 -1.336165E-02  5.000000E-01  1.196139E-01 -1.356990E-02  0.000000E+00  1.320063E-02 -3.852660E-04  6.115393E-19  1.995277E-01  0.000000E+00
  1.302610E-01 -1.367550E-02  5.000000E-01  1.315765E-01 -1.388692E-02  0.000000E+00  1.311390E-02 -3.225882E-04  5.132476E-19  1.899197E-01  0.000000E+00
  1.427230E-01 -1.395811E-02  5.000000E-01  1.441644E-01 -1.417238E-02  0.000000E+00  1.305334E-02 -2.808127E-04  5.782178E-19  1.816686E-01  0.000000E+00
  1.427230E-01 -1.395811E-02  5.000000E-01  1.441644E-01 -1.417238E-02  0.000000E+00  1.305334E-02 -2.808127E-04  5.782178E-19  1.816686E-01  0.000000E+00
  1.558070E-01 -1.422455E-02  5.000000E-01  1.573805E-01 -1.444152E-02  0.000000E+00  1.301335E-02 -2.508349E-04  5.358895E-19  1.725016E-01  0.000000E+00
  1.695140E-01 -1.447442E-02  5.000000E-01  1.712259E-01 -1.469391E-02  0.000000E+00  1.296825E-02 -2.155641E-04  7.852173E-19  1.612035E-01  0.000000E+00
  1.838420E-01 -1.468975E-02  5.000000E-01  1.856986E-01 -1.491141E-02  0.000000E+00  1.289021E-02 -1.622104E-04  7.122081E-19  1.488203E-01  0.000000E+00
  1.987870E-01 -1.484112E-02  5.000000E-01  2.007946E-01 -1.506431E-02  0.000000E+00  1.276564E-02 -8.726847E-05 -4.596473E-20  1.373114E-01  0.000000E+00
  2.143420E-01 -1.489555E-02  5.000000E-01  2.165067E-01 -1.511929E-02  0.000000E+00  1.260712E-02 -3.945052E-06 -6.265907E-19  1.289496E-01  0.000000E+00
  2.304940E-01 -1.484732E-02  5.000000E-01  2.328218E-01 -1.507058E-02  0.000000E+00  1.245191E-02  6.068580E-05 -4.442788E-19  1.255691E-01  0.000000E+00
  2.472290E-01 -1.473277E-02  5.000000E-01  2.497258E-01 -1.495486E-02  0.000000E+00  1.233365E-02  9.322102E-05 -1.362017E-20  1.254369E-01  0.000000E+00
  2.645310E-01 -1.459030E-02  5.000000E-01  2.672025E-01 -1.481096E-02  0.000000E+00  1.225528E-02  1.090228E-04 -7.960670E-20  1.237421E-01  0.000000E+00
  2.823750E-01 -1.442137E-02  5.000000E-01  2.852267E-01 -1.464032E-02  0.000000E+00  1.219551E-02  1.326875E-04 -2.291891E-20  1.178597E-01  0.000000E+00
  3.007320E-01 -1.419613E-02  5.000000E-01  3.037691E-01 -1.441281E-02  0.000000E+00  1.213378E-02  1.736166E-04  3.570608E-19  1.098609E-01  0.000000E+00
  3.195690E-01 -1.388725E-02  5.000000E-01  3.227964E-01 -1.410081E-02  0.000000E+00  1.206044E-02  2.256857E-04  5.805553E-19  1.031739E-01  0.000000E+00
  3.388440E-01 -1.348084E-02  5.000000E-01  3.422660E-01 -1.369030E-02  0.000000E+00  1.196911E-02  2.804085E-04  2.146970E-19  9.912940E-02  0.000000E+00
  3.585140E-01 -1.297354E-02  5.000000E-01  3.621347E-01 -1.317787E-02  0.000000E+00  1.184701E-02  3.352442E-04  1.239395E-19  9.691612E-02  0.000000E+00
  3.785290E-01 -1.235702E-02  5.000000E-01  3.823518E-01 -1.255512E-02  0.000000E+00  1.167573E-02  3.915630E-04  2.220788E-19  9.565432E-02  0.000000E+00
  3.988350E-01 -1.161961E-02  5.000000E-01  4.028629E-01 -1.181027E-02  0.000000E+00  1.144290E-02  4.495483E-04  5.443416E-19  9.598606E-02  0.000000E+00
  4.193750E-01 -1.075023E-02  5.000000E-01  4.236103E-01 -1.093211E-02  0.000000E+00  1.115127E-02  5.121883E-04  8.313866E-19  9.857907E-02  0.000000E+00
  4.400850E-01 -9.722759E-03  5.000000E-01  4.445295E-01 -9.894261E-03  0.000000E+00  1.082832E-02  5.778169E-04  5.163169E-19  1.040497E-01  0.000000E+00
  4.609060E-01 -8.530751E-03  5.000000E-01  4.655607E-01 -8.690215E-03  0.000000E+00  1.053135E-02  6.248238E-04  1.153127E-18  1.142317E-01  0.000000E+00
  4.818030E-01 -7.243503E-03  5.000000E-01  4.866688E-01 -7.389966E-03  0.000000E+00  1.032309E-02  6.233857E-04  1.636142E-18  1.297465E-01  0.000000E+00
  5.027520E-01 -6.002618E-03  5.000000E-01  5.078293E-01 -6.136550E-03  0.000000E+00  1.021626E-02  5.779241E-04  1.555690E-18  1.449056E-01  0.000000E+00
  5.237130E-01 -4.877092E-03  5.000000E-01  5.290020E-01 -4.999656E-03  0.000000E+00  1.014554E-02  5.401616E-04  1.687562E-18  1.505302E-01  0.000000E+00
  5.446170E-01 -3.779574E-03  5.000000E-01  5.501171E-01 -3.891055E-03  0.000000E+00  1.001755E-02  5.545537E-04  1.336027E-18  1.459439E-01  0.000000E+00
  5.653940E-01 -2.567625E-03  5.000000E-01  5.711040E-01 -2.666867E-03  0.000000E+00  9.790394E-03  6.062549E-04  8.264822E-19  1.428398E-01  0.000000E+00
  4.675910E-01  6.837877E-02  5.000000E-01  4.723133E-01  6.899602E-02  0.000000E+00  1.584258E-02 -7.595230E-04  9.747909E-19 -7.073146E-01  0.000000E+00
  4.464640E-01  6.929042E-02  5.000000E-01  4.509729E-01  6.991688E-02  0.000000E+00  1.630987E-02 -6.192452E-04  8.541094E-19 -7.335157E-01  0.000000E+00
  4.254410E-01  6.998261E-02  5.000000E-01  4.297376E-01  7.061606E-02  0.000000E+00  1.677837E-02 -4.642619E-04 -2.256347E-19 -7.584680E-01  0.000000E+00
  4.045840E-01  7.045282E-02  5.000000E-01  4.086699E-01  7.109102E-02  0.000000E+00  1.724054E-02 -2.974840E-04 -4.039344E-19 -7.827488E-01  0.000000E+00
  3.839530E-01  7.070221E-02  5.000000E-01  3.878306E-01  7.134293E-02  0.000000E+00  1.769547E-02 -1.169540E-04 -2.369403E-19 -8.062947E-01  0.000000E+00
  3.636060E-01  7.072795E-02  5.000000E-01  3.672781E-01  7.136893E-02  0.000000E+00  1.814576E-02  8.068495E-05  3.849166E-19 -8.283131E-01  0.000000E+00
  3.435960E-01  7.052777E-02  5.000000E-01  3.470660E-01  7.116673E-02  0.000000E+00  1.859121E-02  2.966262E-04  6.741986E-19 -8.480708E-01  0.000000E+00
  3.239710E-01  7.010076E-02  5.000000E-01  3.272428E-01  7.073540E-02  0.000000E+00  1.902643E-02  5.270928E-04  9.568692E-20 -8.660681E-01  0.000000E+00
  3.047740E-01  6.945679E-02  5.000000E-01  3.078519E-01  7.008493E-02  0.000000E+00  1.944853E-02  7.668362E-04 -6.905878E-19 -8.836135E-01  0.000000E+00
  2.860450E-01  6.861018E-02  5.000000E-01  2.889338E-01  6.922978E-02  0.000000E+00  1.986680E-02  1.021128E-03 -6.879343E-19 -9.003506E-01  0.000000E+00
  2.678190E-01  6.756310E-02  5.000000E-01  2.705237E-01  6.817212E-02  0.000000E+00  2.028940E-02  1.297397E-03 -6.139754E-19 -9.152064E-01  0.000000E+00
  2.501300E-01  6.631952E-02  5.000000E-01  2.526561E-01  6.691598E-02  0.000000E+00  2.071199E-02  1.594270E-03 -1.857072E-19 -9.283842E-01  0.000000E+00
  2.330040E-01  6.488902E-02  5.000000E-01  2.353571E-01  6.547103E-02  0.000000E+00  2.112687E-02  1.908476E-03  1.453967E-19 -9.405210E-01  0.000000E+00
  2.164660E-01  6.328403E-02  5.000000E-01  2.186521E-01  6.384983E-02  0.000000E+00  2.153182E-02  2.239330E-03 -5.878866E-19 -9.512965E-01  0.000000E+00
  2.005340E-01  6.151851E-02  5.000000E-01  2.025592E-01  6.206648E-02  0.000000E+00  2.193355E-02  2.594831E-03 -2.454648E-19 -9.579721E-01  0.000000E+00
  1.852230E-01  5.959581E-02  5.000000E-01  1.870936E-01  6.012436E-02  0.000000E+00  2.233046E-02  2.977715E-03 -1.516309E-19 -9.586334E-01  0.000000E+00
  1.705440E-01  5.752704E-02  5.000000E-01  1.722663E-01  5.803470E-02  0.000000E+00  2.270632E-02  3.371370E-03 -3.074773E-19 -9.570946E-01  0.000000E+00
  1.565000E-01  5.533657E-02  5.000000E-01  1.580805E-01  5.582211E-02  0.000000E+00  2.306287E-02  3.762947E-03 -5.440719E-19 -9.610037E-01  0.000000E+00
  1.430940E-01  5.305195E-02  5.000000E-01  1.445391E-01  5.351442E-02  0.000000E+00  2.344653E-02  4.177628E-03 -1.131273E-18 -9.735093E-01  0.000000E+00
  1.303270E-01  5.067885E-02  5.000000E-01  1.316432E-01  5.111735E-02  0.000000E+00  2.391997E-02  4.685224E-03 -7.566093E-19 -9.856210E-01  0.000000E+00
  1.182110E-01  4.818833E-02  5.000000E-01  1.194048E-01  4.860168E-02  0.000000E+00  2.446859E-02  5.323779E-03 -4.418083E-19 -9.826670E-01  0.000000E+00
  1.067560E-01  4.556428E-02  5.000000E-01  1.078341E-01  4.595113E-02  0.000000E+00  2.496463E-02  6.050132E-03 -1.544884E-20 -9.556587E-01  0.000000E+00
  9.596750E-02  4.281049E-02  5.000000E-01  9.693669E-02  4.316953E-02  0.000000E+00  2.523014E-02  6.727017E-03 -4.437712E-20 -9.124706E-01  0.000000E+00
  8.582800E-02  3.999002E-02  5.000000E-01  8.669479E-02  4.032057E-02  0.000000E+00  2.519544E-02  7.231453E-03  2.872158E-20 -8.714257E-01  0.000000E+00
  8.582800E-02  3.999002E-02  5.000000E-01  8.669479E-02  4.032057E-02  0.000000E+00  2.519544E-02  7.231453E-03  2.872158E-20 -8.714257E-01  0.000000E+00
  7.631050E-02  3.717209E-02  5.000000E-01  7.708117E-02  3.747418E-02  0.000000E+00  2.498948E-02  7.633279E-03  3.098672E-19 -8.364905E-01  0.000000E+00
  6.740780E-02  3.436899E-02  5.000000E-01  6.808856E-02  3.464277E-02  0.000000E+00  2.477236E-02  8.063920E-03  9.522361E-19 -8.007475E-01  0.000000E+00
  5.911740E-02  3.158173E-02  5.000000E-01  5.971444E-02  3.182737E-02  0.000000E+00  2.459571E-02  8.547092E-03  2.081880E-18 -7.613024E-01  0.000000E+00
  5.143150E-02  2.882374E-02  5.000000E-01  5.195092E-02  2.904152E-02  0.000000E+00  2.443770E-02  9.050993E-03  1.225776E-18 -7.187988E-01  0.000000E+00
  4.433770E-02  2.611427E-02  5.000000E-01  4.478548E-02  2.630469E-02  0.000000E+00  2.426000E-02  9.551257E-03  2.809798E-19 -6.757840E-01  0.000000E+00
  3.782240E-02  2.347192E-02  5.000000E-01  3.820438E-02  2.363565E-02  0.000000E+00  2.404167E-02  1.004978E-02  1.019695E-18 -6.360624E-01  0.000000E+00
  3.187460E-02  2.090994E-02  5.000000E-01  3.219651E-02  2.104780E-02  0.000000E+00  2.379411E-02  1.057238E-02  1.664522E-18 -6.025388E-01  0.000000E+00
  2.648400E-02  1.843981E-02  5.000000E-01  2.675147E-02  1.855272E-02  0.000000E+00  2.355031E-02  1.118706E-02  1.664456E-18 -5.688637E-01  0.000000E+00
  2.164990E-02  1.606273E-02  5.000000E-01  2.186855E-02  1.615164E-02  0.000000E+00  2.327981E-02  1.194852E-02  3.421627E-19 -5.175827E-01  0.000000E+00
  1.737670E-02  1.377856E-02  5.000000E-01  1.755219E-02  1.384441E-02  0.000000E+00  2.282140E-02  1.270965E-02  1.388180E-19 -4.426591E-01  0.000000E+00
  1.364080E-02  1.161249E-02  5.000000E-01  1.377856E-02  1.165646E-02  0.000000E+00  2.203207E-02  1.317990E-02  5.014022E-18 -3.638053E-01  0.000000E+00
  1.039090E-02  9.604278E-03  5.000000E-01  1.049584E-02  9.627962E-03  0.000000E+00  2.098860E-02  1.330839E-02  9.336854E-18 -3.061602E-01  0.000000E+00
  7.586340E-03  7.777253E-03  5.000000E-01  7.662960E-03  7.782486E-03  0.000000E+00  1.996174E-02  1.347046E-02  5.036432E-18 -2.745989E-01  0.000000E+00
  5.226210E-03  6.126951E-03  5.000000E-01  5.278995E-03  6.115517E-03  0.000000E+00  1.925510E-02  1.422546E-02 -4.633862E-18 -2.591936E-01  0.000000E+00
  3.324300E-03  4.644022E-03  5.000000E-01  3.357878E-03  4.617612E-03  0.000000E+00  1.911556E-02  1.616018E-02 -3.536271E-18 -2.503134E-01  0.000000E+00
  1.883580E-03  3.331649E-03  5.000000E-01  1.902608E-03  3.291985E-03  0.000000E+00  1.950430E-02  2.005830E-02  1.653500E-17 -2.239452E-01  0.000000E+00
  8.951490E-04  2.203799E-03  5.000000E-01  9.041943E-04  2.152745E-03  0.000000E+00  1.939161E-02  2.649933E-02  3.079216E-17 -1.318711E-01  0.000000E+00
  3.201820E-04  1.286962E-03  5.000000E-01  3.234206E-04  1.226649E-03  0.000000E+00  1.657192E-02  3.414094E-02  8.686021E-18  6.079075E-02  0.000000E+00
  6.852390E-05  6.134128E-04  5.000000E-01  6.922101E-05  5.462972E-04  0.000000E+00  1.032858E-02  3.889444E-02 -3.504275E-17  2.849085E-01  0.000000E+00
  4.217600E-06  2.073490E-04  5.000000E-01  4.265277E-06  1.361326E-04  0.000000E+00  3.838756E-03  3.987720E-02 -3.887530E-17  3.639796E-01  0.000000E+00
 -5.032520E-09  7.257750E-05  5.000000E-01  0.000000E+00  0.000000E+00  0.000000E+00 -6.207940E-04  4.495397E-02  1.341028E-17  3.233423E-01  0.000000E+00
  5.154440E-06 -6.261894E-05  5.000000E-01  5.211579E-06 -1.365618E-04  0.000000E+00 -5.357445E-03  4.713158E-02  2.174111E-17  4.525941E-01  0.000000E+00