 Title = "ADflow Slice Data"
Variables =  "CoordinateX"  "CoordinateY"  "CoordinateZ"  "XoC"  "YoC"  "ZoC" "VelocityX" "VelocityY" "VelocityZ" "CoefPressure" "Mach" 
Zone T= "Slice_0001 None Absolute Regular z = 0.50000000"
 Nodes =          192  Elements=          184  ZONETYPE=FELINESEG
 DATAPACKING=POINT
  5.653940E-01 -2.324838E-03  5.000000E-01  5.711040E-01 -2.424213E-03  0.000000E+00  9.811592E-03  5.879358E-04 -1.265777E-18  1.459559E-01  0.000000E+00
  5.859770E-01 -1.018401E-03  5.000000E-01  5.918948E-01 -1.104581E-03  0.000000E+00  9.549322E-03  6.396745E-04 -1.351716E-18  1.505786E-01  0.000000E+00
  6.063060E-01  4.179867E-04  5.000000E-01  6.124292E-01  3.463122E-04  0.000000E+00  9.226909E-03  6.782526E-04 -1.511814E-18  1.630466E-01  0.000000E+00
  6.263240E-01  1.948482E-03  5.000000E-01  6.326493E-01  1.892264E-03  0.000000E+00  8.882760E-03  6.899006E-04 -1.099489E-18  1.802970E-01  0.000000E+00
  6.459860E-01  3.500474E-03  5.000000E-01  6.525099E-01  3.459930E-03  0.000000E+00  8.548320E-03  6.716266E-04  1.033431E-19  1.995826E-01  0.000000E+00
  6.652460E-01  5.005805E-03  5.000000E-01  6.719644E-01  4.980463E-03  0.000000E+00  8.230431E-03  6.356870E-04  2.558688E-19  2.177654E-01  0.000000E+00
  6.840650E-01  6.439131E-03  5.000000E-01  6.909734E-01  6.428265E-03  0.000000E+00  7.911290E-03  6.000717E-04 -2.709050E-19  2.326924E-01  0.000000E+00
  7.024070E-01  7.823455E-03  5.000000E-01  7.095007E-01  7.826569E-03  0.000000E+00  7.571580E-03  5.693981E-04 -5.574724E-19  2.461210E-01  0.000000E+00
  7.202400E-01  9.161093E-03  5.000000E-01  7.275138E-01  9.177716E-03  0.000000E+00  7.209687E-03  5.349615E-04 -1.325525E-19  2.614536E-01  0.000000E+00
  7.375350E-01  1.043077E-02  5.000000E-01  7.449834E-01  1.046022E-02  0.000000E+00  6.839723E-03  4.907246E-04  4.871420E-19  2.791812E-01  0.000000E+00
  7.542690E-01  1.160210E-02  5.000000E-01  7.618864E-01  1.164337E-02  0.000000E+00  6.485976E-03  4.367502E-04  8.619006E-19  2.977974E-01  0.000000E+00
  7.704220E-01  1.264340E-02  5.000000E-01  7.782026E-01  1.269519E-02  0.000000E+00  6.178528E-03  3.752783E-04  8.669208E-19  3.154181E-01  0.000000E+00
  7.859770E-01  1.352734E-02  5.000000E-01  7.939147E-01  1.358806E-02  0.000000E+00  5.953970E-03  3.006280E-04  3.445417E-19  3.319430E-01  0.000000E+00
  8.009220E-01  1.418703E-02  5.000000E-01  8.090106E-01  1.425441E-02  0.000000E+00  5.849483E-03  2.033528E-04 -9.956310E-20  3.476477E-01  0.000000E+00
  8.152480E-01  1.454941E-02  5.000000E-01  8.234813E-01  1.462045E-02  0.000000E+00  5.877974E-03  8.952542E-05  1.390474E-19  3.586337E-01  0.000000E+00
  8.289490E-01  1.461939E-02  5.000000E-01  8.373206E-01  1.469113E-02  0.000000E+00  6.019894E-03 -2.638397E-05  2.414378E-19  3.616381E-01  0.000000E+00
  8.420260E-01  1.444130E-02  5.000000E-01  8.505297E-01  1.451125E-02  0.000000E+00  6.242293E-03 -1.373108E-04 -1.992332E-20  3.584957E-01  0.000000E+00
  8.544790E-01  1.406788E-02  5.000000E-01  8.631085E-01  1.413406E-02  0.000000E+00  6.513086E-03 -2.409946E-04 -1.219914E-20  3.520548E-01  0.000000E+00
  8.663160E-01  1.355077E-02  5.000000E-01  8.750650E-01  1.361173E-02  0.000000E+00  6.803624E-03 -3.358343E-04 -4.349451E-19  3.437986E-01  0.000000E+00
  8.775420E-01  1.293566E-02  5.000000E-01  8.864044E-01  1.299040E-02  0.000000E+00  7.089247E-03 -4.197623E-04 -9.554147E-20  3.344548E-01  0.000000E+00
  8.881660E-01  1.226139E-02  5.000000E-01  8.971357E-01  1.230932E-02  0.000000E+00  7.351345E-03 -4.908097E-04  1.047240E-18  3.246288E-01  0.000000E+00
  8.981970E-01  1.155962E-02  5.000000E-01  9.072680E-01  1.160047E-02  0.000000E+00  7.580353E-03 -5.502126E-04  1.044056E-18  3.150832E-01  0.000000E+00
  9.076460E-01  1.084995E-02  5.000000E-01  9.168124E-01  1.088363E-02  0.000000E+00  7.778090E-03 -6.041597E-04 -3.269235E-19  3.067019E-01  0.000000E+00
  9.165220E-01  1.013848E-02  5.000000E-01  9.257781E-01  1.016497E-02  0.000000E+00  7.954195E-03 -6.584787E-04 -1.053485E-18  2.995031E-01  0.000000E+00
  9.165220E-01  1.013848E-02  5.000000E-01  9.257781E-01  1.016497E-02  0.000000E+00  7.954195E-03 -6.584787E-04 -1.053485E-18  2.995031E-01  0.000000E+00
  9.248360E-01  9.428699E-03  5.000000E-01  9.341760E-01  9.448025E-03  0.000000E+00  8.119094E-03 -7.151130E-04 -1.133037E-18  2.926921E-01  0.000000E+00
  9.325990E-01  8.724239E-03  5.000000E-01  9.420174E-01  8.736450E-03  0.000000E+00  8.281464E-03 -7.748622E-04 -8.936591E-19  2.858158E-01  0.000000E+00
  9.398210E-01  8.028527E-03  5.000000E-01  9.493124E-01  8.033712E-03  0.000000E+00  8.448849E-03 -8.386488E-04 -1.996580E-20  2.787699E-01  0.000000E+00
  9.465130E-01  7.345049E-03  5.000000E-01  9.560719E-01  7.343332E-03  0.000000E+00  8.627717E-03 -9.072707E-04  4.134184E-19  2.714353E-01  0.000000E+00
  9.526870E-01  6.677514E-03  5.000000E-01  9.623083E-01  6.669055E-03  0.000000E+00  8.823115E-03 -9.813442E-04  8.952879E-19  2.636587E-01  0.000000E+00
  9.583540E-01  6.030004E-03  5.000000E-01  9.680325E-01  6.015006E-03  0.000000E+00  9.038726E-03 -1.061283E-03  7.737085E-19  2.553058E-01  0.000000E+00
  9.635240E-01  5.407030E-03  5.000000E-01  9.732547E-01  5.385740E-03  0.000000E+00  9.277382E-03 -1.147155E-03  1.398537E-19  2.462522E-01  0.000000E+00
  9.682080E-01  4.813454E-03  5.000000E-01  9.779860E-01  4.786170E-03  0.000000E+00  9.542712E-03 -1.239180E-03  8.689531E-20  2.364425E-01  0.000000E+00
  9.724140E-01  4.254477E-03  5.000000E-01  9.822345E-01  4.221548E-03  0.000000E+00  9.841548E-03 -1.337834E-03 -1.816160E-20  2.258702E-01  0.000000E+00
  9.761510E-01  3.735469E-03  5.000000E-01  9.860093E-01  3.697298E-03  0.000000E+00  1.018418E-02 -1.443498E-03 -6.151588E-19  2.145037E-01  0.000000E+00
  9.794290E-01  3.261776E-03  5.000000E-01  9.893204E-01  3.218821E-03  0.000000E+00  1.057755E-02 -1.556636E-03 -1.305324E-18  2.023536E-01  0.000000E+00
  9.822540E-01  2.838705E-03  5.000000E-01  9.921739E-01  2.791478E-03  0.000000E+00  1.100719E-02 -1.675423E-03 -1.257993E-18  1.896693E-01  0.000000E+00
  9.846330E-01  2.471216E-03  5.000000E-01  9.945769E-01  2.420278E-03  0.000000E+00  1.141861E-02 -1.788911E-03  6.942247E-20  1.776988E-01  0.000000E+00
  9.865710E-01  2.163829E-03  5.000000E-01  9.965345E-01  2.109786E-03  0.000000E+00  1.167893E-02 -1.863445E-03  2.808781E-18  1.653094E-01  0.000000E+00
  9.880740E-01  1.920438E-03  5.000000E-01  9.980527E-01  1.863937E-03  0.000000E+00  1.157145E-02 -1.891697E-03  1.162249E-18  1.462509E-01  0.000000E+00
  9.891450E-01  1.744221E-03  5.000000E-01  9.991345E-01  1.685940E-03  0.000000E+00  1.177198E-02 -2.028982E-03 -2.042745E-17  1.473427E-01  0.000000E+00
  9.897860E-01  1.637538E-03  5.000000E-01  9.997820E-01  1.578180E-03  0.000000E+00  1.516037E-02 -2.049550E-03 -7.013555E-17  1.949882E-01  0.000000E+00
  9.900000E-01  1.601815E-03  5.000000E-01  9.999981E-01  1.542096E-03  0.000000E+00  1.058204E-02 -4.433879E-03 -8.626408E-17 -4.837931E-02  0.000000E+00
  9.900000E-01  1.680525E-03  5.000000E-01  9.999981E-01  1.621601E-03  0.000000E+00  1.059742E-03 -1.482835E-02 -2.657434E-17 -1.861879E-01  0.000000E+00
  9.900000E-01  1.759245E-03  5.000000E-01  9.999981E-01  1.701116E-03  0.000000E+00 -5.269105E-04 -1.391992E-02  3.432055E-17 -1.034638E-02  0.000000E+00
  9.900000E-01  1.837966E-03  5.000000E-01  9.999981E-01  1.780632E-03  0.000000E+00 -3.006527E-04  2.489230E-03  5.558526E-17 -1.502234E-02  0.000000E+00
  9.900000E-01  1.916676E-03  5.000000E-01  9.999981E-01  1.860137E-03  0.000000E+00  7.131410E-04  3.889461E-03  1.112402E-16 -1.332638E-01  0.000000E+00
  9.900000E-01  1.995396E-03  5.000000E-01  9.999981E-01  1.939652E-03  0.000000E+00  5.909437E-03 -2.617294E-03  1.701928E-16 -3.933562E-02  0.000000E+00
  9.900000E-01  1.995396E-03  5.000000E-01  9.999981E-01  1.939652E-03  0.000000E+00  5.909437E-03 -2.617294E-03  1.701928E-16 -3.933562E-02  0.000000E+00
  9.897900E-01  2.040699E-03  5.000000E-01  9.997860E-01  1.985412E-03  0.000000E+00  7.699865E-03 -1.992001E-03  1.251578E-16  1.028277E-01  0.000000E+00
  9.891580E-01  2.176566E-03  5.000000E-01  9.991476E-01  2.122652E-03  0.000000E+00  4.782384E-03 -9.667987E-04  4.260715E-17  6.058837E-02  0.000000E+00
  9.881040E-01  2.402835E-03  5.000000E-01  9.980830E-01  2.351206E-03  0.000000E+00  4.023220E-03 -8.610410E-04  5.080148E-18  5.094753E-02  0.000000E+00
  9.866260E-01  2.719232E-03  5.000000E-01  9.965900E-01  2.670798E-03  0.000000E+00  3.838091E-03 -8.257534E-04 -3.182033E-18  5.277914E-02  0.000000E+00
  9.847200E-01  3.125362E-03  5.000000E-01  9.946648E-01  3.081029E-03  0.000000E+00  3.761691E-03 -7.987600E-04 -2.450543E-18  4.753207E-02  0.000000E+00
  9.823820E-01  3.620657E-03  5.000000E-01  9.923032E-01  3.581326E-03  0.000000E+00  3.818081E-03 -8.054623E-04 -5.408981E-19  3.952991E-02  0.000000E+00
  9.796080E-01  4.204337E-03  5.000000E-01  9.895012E-01  4.170902E-03  0.000000E+00  3.984657E-03 -8.347970E-04  9.281328E-20  3.074597E-02  0.000000E+00
  9.763910E-01  4.875424E-03  5.000000E-01  9.862517E-01  4.848766E-03  0.000000E+00  4.219530E-03 -8.760122E-04 -1.251958E-19  2.066446E-02  0.000000E+00
  9.727270E-01  5.632557E-03  5.000000E-01  9.825507E-01  5.613545E-03  0.000000E+00  4.495113E-03 -9.233640E-04  1.687633E-19  9.190874E-03  0.000000E+00
  9.686070E-01  6.474174E-03  5.000000E-01  9.783891E-01  6.463662E-03  0.000000E+00  4.795105E-03 -9.729786E-04  8.003115E-19 -3.433890E-03  0.000000E+00
  9.640240E-01  7.398261E-03  5.000000E-01  9.737598E-01  7.397081E-03  0.000000E+00  5.110643E-03 -1.022520E-03  3.995323E-19 -1.705446E-02  0.000000E+00
  9.589680E-01  8.402460E-03  5.000000E-01  9.686527E-01  8.411421E-03  0.000000E+00  5.437934E-03 -1.070833E-03 -5.048015E-19 -3.153531E-02  0.000000E+00
  9.534310E-01  9.483932E-03  5.000000E-01  9.630598E-01  9.503816E-03  0.000000E+00  5.775261E-03 -1.117209E-03 -2.490674E-19 -4.673976E-02  0.000000E+00
  9.474030E-01  1.063942E-02  5.000000E-01  9.569709E-01  1.067098E-02  0.000000E+00  6.120678E-03 -1.160682E-03 -6.020514E-20 -6.244073E-02  0.000000E+00
  9.408720E-01  1.186524E-02  5.000000E-01  9.503740E-01  1.190917E-02  0.000000E+00  6.470820E-03 -1.200329E-03 -3.506197E-19 -7.846511E-02  0.000000E+00
  9.338280E-01  1.315722E-02  5.000000E-01  9.432588E-01  1.321420E-02  0.000000E+00  6.821376E-03 -1.235226E-03 -5.883615E-19 -9.465131E-02  0.000000E+00
  9.262600E-01  1.451087E-02  5.000000E-01  9.356144E-01  1.458152E-02  0.000000E+00  7.167222E-03 -1.264146E-03  2.068094E-19 -1.107585E-01  0.000000E+00
  9.181550E-01  1.592115E-02  5.000000E-01  9.274275E-01  1.600604E-02  0.000000E+00  7.502169E-03 -1.285976E-03  7.375120E-19 -1.265954E-01  0.000000E+00
  9.095020E-01  1.738286E-02  5.000000E-01  9.186872E-01  1.748251E-02  0.000000E+00  7.819242E-03 -1.299628E-03  4.737459E-19 -1.418557E-01  0.000000E+00
  9.002880E-01  1.889029E-02  5.000000E-01  9.093801E-01  1.900516E-02  0.000000E+00  8.110127E-03 -1.304172E-03  7.331636E-19 -1.560214E-01  0.000000E+00
  8.905020E-01  2.043764E-02  5.000000E-01  8.994953E-01  2.056815E-02  0.000000E+00  8.365201E-03 -1.300190E-03  1.460520E-18 -1.687702E-01  0.000000E+00
  8.801320E-01  2.202233E-02  5.000000E-01  8.890206E-01  2.216884E-02  0.000000E+00  8.576405E-03 -1.290082E-03  4.626266E-19 -1.801795E-01  0.000000E+00
  8.691700E-01  2.364554E-02  5.000000E-01  8.779478E-01  2.380844E-02  0.000000E+00  8.740483E-03 -1.276404E-03 -1.323498E-18 -1.904700E-01  0.000000E+00
  8.691700E-01  2.364554E-02  5.000000E-01  8.779478E-01  2.380844E-02  0.000000E+00  8.740483E-03 -1.276404E-03 -1.323498E-18 -1.904700E-01  0.000000E+00
  8.576080E-01  2.531073E-02  5.000000E-01  8.662691E-01  2.549045E-02  0.000000E+00  8.859674E-03 -1.261425E-03 -1.357358E-18 -1.997802E-01  0.000000E+00
  8.454380E-01  2.702378E-02  5.000000E-01  8.539762E-01  2.722080E-02  0.000000E+00  8.940858E-03 -1.248219E-03 -4.268949E-19 -2.083134E-01  0.000000E+00
  8.326580E-01  2.879366E-02  5.000000E-01  8.410671E-01  2.900855E-02  0.000000E+00  8.995760E-03 -1.240460E-03 -5.353420E-19 -2.165954E-01  0.000000E+00
  8.192630E-01  3.063306E-02  5.000000E-01  8.275368E-01  3.086653E-02  0.000000E+00  9.041846E-03 -1.242364E-03 -1.254662E-18 -2.259302E-01  0.000000E+00
  8.052550E-01  3.255850E-02  5.000000E-01  8.133874E-01  3.281142E-02  0.000000E+00  9.103433E-03 -1.257063E-03 -8.590899E-20 -2.382209E-01  0.000000E+00
  7.906370E-01  3.458554E-02  5.000000E-01  7.986217E-01  3.485892E-02  0.000000E+00  9.209430E-03 -1.282641E-03 -1.808449E-19 -2.544785E-01  0.000000E+00
  7.754120E-01  3.671501E-02  5.000000E-01  7.832430E-01  3.700990E-02  0.000000E+00  9.383297E-03 -1.312794E-03 -1.470678E-18 -2.742505E-01  0.000000E+00
  7.595880E-01  3.892954E-02  5.000000E-01  7.672592E-01  3.924680E-02  0.000000E+00  9.632865E-03 -1.342560E-03  1.868463E-19 -2.969845E-01  0.000000E+00
  7.431760E-01  4.120740E-02  5.000000E-01  7.506814E-01  4.154767E-02  0.000000E+00  9.951176E-03 -1.368788E-03  1.367870E-18 -3.222646E-01  0.000000E+00
  7.261880E-01  4.352338E-02  5.000000E-01  7.335219E-01  4.388703E-02  0.000000E+00  1.032193E-02 -1.387364E-03 -1.538628E-18 -3.490115E-01  0.000000E+00
  7.086430E-01  4.584924E-02  5.000000E-01  7.157997E-01  4.623638E-02  0.000000E+00  1.072271E-02 -1.394136E-03 -2.298916E-18 -3.755266E-01  0.000000E+00
  6.905640E-01  4.815627E-02  5.000000E-01  6.975381E-01  4.856670E-02  0.000000E+00  1.112886E-02 -1.388028E-03 -4.137791E-19 -4.004959E-01  0.000000E+00
  6.719770E-01  5.042318E-02  5.000000E-01  6.787634E-01  5.085652E-02  0.000000E+00  1.152047E-02 -1.374136E-03  4.914328E-19 -4.245504E-01  0.000000E+00
  6.529150E-01  5.264687E-02  5.000000E-01  6.595089E-01  5.310267E-02  0.000000E+00  1.189363E-02 -1.358218E-03  4.829136E-19 -4.493946E-01  0.000000E+00
  6.334180E-01  5.482664E-02  5.000000E-01  6.398150E-01  5.530445E-02  0.000000E+00  1.226256E-02 -1.338945E-03  4.915702E-19 -4.758175E-01  0.000000E+00
  6.135280E-01  5.694775E-02  5.000000E-01  6.197241E-01  5.744697E-02  0.000000E+00  1.264575E-02 -1.312380E-03  2.223017E-19 -5.041986E-01  0.000000E+00
  5.932910E-01  5.899101E-02  5.000000E-01  5.992827E-01  5.951088E-02  0.000000E+00  1.305593E-02 -1.275412E-03  3.551321E-19 -5.343846E-01  0.000000E+00
  5.727570E-01  6.093145E-02  5.000000E-01  5.785413E-01  6.147091E-02  0.000000E+00  1.349669E-02 -1.223358E-03  7.812672E-19 -5.644989E-01  0.000000E+00
  5.519810E-01  6.273826E-02  5.000000E-01  5.575555E-01  6.329596E-02  0.000000E+00  1.395841E-02 -1.152275E-03  2.494440E-19 -5.920922E-01  0.000000E+00
  5.310180E-01  6.438033E-02  5.000000E-01  5.363808E-01  6.495462E-02  0.000000E+00  1.441913E-02 -1.067744E-03  6.371157E-19 -6.177450E-01  0.000000E+00
  5.099250E-01  6.585363E-02  5.000000E-01  5.150748E-01  6.644280E-02  0.000000E+00  1.486407E-02 -9.810738E-04  5.465610E-19 -6.449851E-01  0.000000E+00
  4.887640E-01  6.716983E-02  5.000000E-01  4.937001E-01  6.777229E-02  0.000000E+00  1.530674E-02 -8.885188E-04  2.568925E-19 -6.746413E-01  0.000000E+00
  4.675910E-01  6.831384E-02  5.000000E-01  4.723133E-01  6.892785E-02  0.000000E+00  1.577015E-02 -7.743805E-04  4.926033E-20 -7.038578E-01  0.000000E+00
  7.860720E-05 -4.737443E-04  5.000000E-01  7.940615E-05 -5.544245E-04  0.000000E+00 -9.122232E-03  3.129618E-02 -1.293546E-16  8.349761E-01  0.000000E+00
  3.989240E-04 -1.115493E-03  5.000000E-01  4.029579E-04 -1.202655E-03  0.000000E+00 -8.073959E-03  1.359570E-02 -1.308457E-16  1.085592E+00  0.000000E+00
  1.196920E-03 -1.893308E-03  5.000000E-01  1.209013E-03 -1.988324E-03  0.000000E+00 -1.330776E-03  1.837307E-03 -6.550925E-17  1.073360E+00  0.000000E+00
  2.563580E-03 -2.708048E-03  5.000000E-01  2.589475E-03 -2.811292E-03  0.000000E+00  5.339542E-03 -2.501325E-03 -7.356585E-18  9.271924E-01  0.000000E+00
  4.492740E-03 -3.514773E-03  5.000000E-01  4.538118E-03 -3.626165E-03  0.000000E+00  9.353702E-03 -3.410539E-03  1.909337E-17  7.994190E-01  0.000000E+00
  6.952190E-03 -4.308521E-03  5.000000E-01  7.022406E-03 -4.427929E-03  0.000000E+00  1.140546E-02 -3.370343E-03  1.671400E-17  7.104840E-01  0.000000E+00
  9.910730E-03 -5.110902E-03  5.000000E-01  1.001082E-02 -5.238413E-03  0.000000E+00  1.251067E-02 -3.211161E-03  5.336911E-18  6.412304E-01  0.000000E+00
  1.334950E-02 -5.947560E-03  5.000000E-01  1.348432E-02 -6.083521E-03  0.000000E+00  1.320029E-02 -3.018983E-03 -1.260829E-18  5.733560E-01  0.000000E+00
  1.728780E-02 -6.795058E-03  5.000000E-01  1.746240E-02 -6.939577E-03  0.000000E+00  1.362301E-02 -2.691091E-03 -3.528248E-18  4.997135E-01  0.000000E+00
  2.175590E-02 -7.600644E-03  5.000000E-01  2.197562E-02 -7.753299E-03  0.000000E+00  1.380825E-02 -2.243290E-03 -3.429544E-18  4.314737E-01  0.000000E+00
  2.676920E-02 -8.324639E-03  5.000000E-01  2.703955E-02 -8.484606E-03  0.000000E+00  1.382028E-02 -1.784255E-03 -2.070108E-18  3.809808E-01  0.000000E+00
  3.232800E-02 -8.955657E-03  5.000000E-01  3.265449E-02 -9.121997E-03  0.000000E+00  1.373986E-02 -1.394384E-03 -1.359282E-18  3.491064E-01  0.000000E+00
  3.842930E-02 -9.500946E-03  5.000000E-01  3.881741E-02 -9.672793E-03  0.000000E+00  1.361952E-02 -1.096414E-03 -9.068871E-19  3.290601E-01  0.000000E+00
  4.507220E-02 -9.976500E-03  5.000000E-01  4.552739E-02 -1.015315E-02  0.000000E+00  1.349892E-02 -8.962686E-04 -4.274507E-19  3.157276E-01  0.000000E+00
  5.225680E-02 -1.041540E-02  5.000000E-01  5.278455E-02 -1.059648E-02  0.000000E+00  1.341893E-02 -7.897229E-04 -6.086166E-20  3.062332E-01  0.000000E+00
  5.998640E-02 -1.085332E-02  5.000000E-01  6.059221E-02 -1.103882E-02  0.000000E+00  1.338809E-02 -7.362854E-04 -1.734595E-19  2.950981E-01  0.000000E+00
  6.827110E-02 -1.129628E-02  5.000000E-01  6.896058E-02 -1.148626E-02  0.000000E+00  1.338043E-02 -6.921570E-04  6.313727E-21  2.793759E-01  0.000000E+00
  7.712280E-02 -1.173871E-02  5.000000E-01  7.790168E-02 -1.193315E-02  0.000000E+00  1.337311E-02 -6.461982E-04  8.501442E-20  2.620208E-01  0.000000E+00
  8.655260E-02 -1.217805E-02  5.000000E-01  8.742671E-02 -1.237693E-02  0.000000E+00  1.335380E-02 -5.977296E-04 -3.461053E-19  2.455802E-01  0.000000E+00
  9.657140E-02 -1.260827E-02  5.000000E-01  9.754669E-02 -1.281150E-02  0.000000E+00  1.330855E-02 -5.374796E-04  6.878907E-20  2.295521E-01  0.000000E+00
  1.071900E-01 -1.301030E-02  5.000000E-01  1.082725E-01 -1.321759E-02  0.000000E+00  1.323192E-02 -4.635212E-04  1.242646E-19  2.141521E-01  0.000000E+00
  1.184180E-01 -1.337117E-02  5.000000E-01  1.196139E-01 -1.358210E-02  0.000000E+00  1.314343E-02 -3.923046E-04 -2.238267E-19  2.015485E-01  0.000000E+00
  1.302610E-01 -1.369677E-02  5.000000E-01  1.315765E-01 -1.391099E-02  0.000000E+00  1.307371E-02 -3.392301E-04 -6.745547E-20  1.919318E-01  0.000000E+00
  1.427230E-01 -1.400068E-02  5.000000E-01  1.441644E-01 -1.421797E-02  0.000000E+00  1.304132E-02 -3.076035E-04  2.668520E-19  1.832689E-01  0.000000E+00
  1.427230E-01 -1.400068E-02  5.000000E-01  1.441644E-01 -1.421797E-02  0.000000E+00  1.304132E-02 -3.076035E-04  2.668520E-19  1.832689E-01  0.000000E+00
  1.558070E-01 -1.429909E-02  5.000000E-01  1.573805E-01 -1.451939E-02  0.000000E+00  1.303975E-02 -2.875068E-04  1.325210E-19  1.731808E-01  0.000000E+00
  1.695140E-01 -1.459157E-02  5.000000E-01  1.712259E-01 -1.481482E-02  0.000000E+00  1.303915E-02 -2.602114E-04  1.423967E-19  1.603882E-01  0.000000E+00
  1.838420E-01 -1.485799E-02  5.000000E-01  1.856986E-01 -1.508394E-02  0.000000E+00  1.300409E-02 -2.101890E-04  6.875003E-19  1.459776E-01  0.000000E+00
  1.987870E-01 -1.506326E-02  5.000000E-01  2.007946E-01 -1.529128E-02  0.000000E+00  1.291110E-02 -1.304797E-04  4.806781E-19  1.320267E-01  0.000000E+00
  2.143420E-01 -1.516352E-02  5.000000E-01  2.165067E-01 -1.539256E-02  0.000000E+00  1.276470E-02 -3.349018E-05  6.604993E-19  1.212352E-01  0.000000E+00
  2.304940E-01 -1.514207E-02  5.000000E-01  2.328218E-01 -1.537088E-02  0.000000E+00  1.260110E-02  4.882392E-05  6.302499E-19  1.163841E-01  0.000000E+00
  2.472290E-01 -1.503276E-02  5.000000E-01  2.497258E-01 -1.526047E-02  0.000000E+00  1.245813E-02  9.809260E-05  7.189372E-20  1.161494E-01  0.000000E+00
  2.645310E-01 -1.487383E-02  5.000000E-01  2.672025E-01 -1.509994E-02  0.000000E+00  1.234406E-02  1.283310E-04  1.141038E-19  1.152794E-01  0.000000E+00
  2.823750E-01 -1.466829E-02  5.000000E-01  2.852267E-01 -1.489232E-02  0.000000E+00  1.224410E-02  1.632090E-04  9.837549E-20  1.107861E-01  0.000000E+00
  3.007320E-01 -1.439063E-02  5.000000E-01  3.037691E-01 -1.461186E-02  0.000000E+00  1.214525E-02  2.105190E-04 -1.918827E-19  1.045936E-01  0.000000E+00
  3.195690E-01 -1.402132E-02  5.000000E-01  3.227964E-01 -1.423882E-02  0.000000E+00  1.204461E-02  2.627008E-04 -4.205892E-19  9.998630E-02  0.000000E+00
  3.388440E-01 -1.355722E-02  5.000000E-01  3.422660E-01 -1.377004E-02  0.000000E+00  1.193795E-02  3.126668E-04 -2.961104E-19  9.780893E-02  0.000000E+00
  3.585140E-01 -1.300035E-02  5.000000E-01  3.621347E-01 -1.320754E-02  0.000000E+00  1.180861E-02  3.619726E-04 -4.523588E-19  9.665271E-02  0.000000E+00
  3.785290E-01 -1.234017E-02  5.000000E-01  3.823518E-01 -1.254070E-02  0.000000E+00  1.163214E-02  4.144120E-04 -2.469454E-19  9.573806E-02  0.000000E+00
  3.988350E-01 -1.156209E-02  5.000000E-01  4.028629E-01 -1.175475E-02  0.000000E+00  1.139151E-02  4.702120E-04 -1.872289E-19  9.625261E-02  0.000000E+00
  4.193750E-01 -1.065192E-02  5.000000E-01  4.236103E-01 -1.083539E-02  0.000000E+00  1.108695E-02  5.319475E-04 -9.832401E-19  9.916034E-02  0.000000E+00
  4.400850E-01 -9.580597E-03  5.000000E-01  4.445295E-01 -9.753248E-03  0.000000E+00  1.074666E-02  5.970098E-04 -6.543777E-19  1.051695E-01  0.000000E+00
  4.609060E-01 -8.341070E-03  5.000000E-01  4.655607E-01 -8.501203E-03  0.000000E+00  1.043311E-02  6.418856E-04  6.656648E-19  1.162890E-01  0.000000E+00
  4.818030E-01 -7.009581E-03  5.000000E-01  4.866688E-01 -7.156268E-03  0.000000E+00  1.021650E-02  6.359938E-04  1.036203E-18  1.330114E-01  0.000000E+00
  5.027520E-01 -5.735126E-03  5.000000E-01  5.078294E-01 -5.868942E-03  0.000000E+00  1.011603E-02  5.843765E-04  4.133965E-19  1.491191E-01  0.000000E+00
  5.237130E-01 -4.593060E-03  5.000000E-01  5.290020E-01 -4.715342E-03  0.000000E+00  1.007056E-02  5.384613E-04 -1.078797E-19  1.551366E-01  0.000000E+00
  5.446170E-01 -3.502373E-03  5.000000E-01  5.501171E-01 -3.613640E-03  0.000000E+00  9.986212E-03  5.430676E-04 -5.907537E-19  1.503363E-01  0.000000E+00
  5.653940E-01 -2.324838E-03  5.000000E-01  5.711040E-01 -2.424213E-03  0.000000E+00  9.811592E-03  5.879358E-04 -1.265777E-18  1.459559E-01  0.000000E+00
  4.675910E-01  6.831384E-02  5.000000E-01  4.723133E-01  6.892785E-02  0.000000E+00  1.577015E-02 -7.743805E-04  4.926033E-20 -7.038578E-01  0.000000E+00
  4.464640E-01  6.925092E-02  5.000000E-01  4.509729E-01  6.987440E-02  0.000000E+00  1.625419E-02 -6.354972E-04 -3.869102E-19 -7.309340E-01  0.000000E+00
  4.254410E-01  6.996563E-02  5.000000E-01  4.297376E-01  7.059632E-02  0.000000E+00  1.674108E-02 -4.795363E-04 -3.611063E-19 -7.562502E-01  0.000000E+00
  4.045840E-01  7.045431E-02  5.000000E-01  4.086699E-01  7.108994E-02  0.000000E+00  1.721565E-02 -3.112513E-04 -8.936051E-20 -7.804554E-01  0.000000E+00
  3.839530E-01  7.071952E-02  5.000000E-01  3.878306E-01  7.135783E-02  0.000000E+00  1.767290E-02 -1.299975E-04  2.418063E-19 -8.035949E-01  0.000000E+00
  3.636060E-01  7.076004E-02  5.000000E-01  3.672781E-01  7.139876E-02  0.000000E+00  1.811496E-02  6.697962E-05  5.404508E-19 -8.249404E-01  0.000000E+00
  3.435960E-01  7.057524E-02  5.000000E-01  3.470660E-01  7.121209E-02  0.000000E+00  1.854334E-02  2.803864E-04  9.994599E-20 -8.438336E-01  0.000000E+00
  3.239710E-01  7.016578E-02  5.000000E-01  3.272428E-01  7.079850E-02  0.000000E+00  1.895516E-02  5.058611E-04 -4.435846E-19 -8.609220E-01  0.000000E+00
  3.047740E-01  6.954344E-02  5.000000E-01  3.078519E-01  7.016988E-02  0.000000E+00  1.935044E-02  7.375218E-04  9.853771E-20 -8.777660E-01  0.000000E+00
  2.860450E-01  6.872476E-02  5.000000E-01  2.889338E-01  6.934292E-02  0.000000E+00  1.974234E-02  9.807207E-04  2.634090E-19 -8.942245E-01  0.000000E+00
  2.678190E-01  6.771311E-02  5.000000E-01  2.705237E-01  6.832106E-02  0.000000E+00  2.014361E-02  1.243870E-03  4.613132E-19 -9.093584E-01  0.000000E+00
  2.501300E-01  6.651263E-02  5.000000E-01  2.526561E-01  6.710845E-02  0.000000E+00  2.055423E-02  1.526920E-03  6.541915E-19 -9.235615E-01  0.000000E+00
  2.330040E-01  6.513226E-02  5.000000E-01  2.353571E-01  6.571414E-02  0.000000E+00  2.097007E-02  1.827970E-03 -6.955788E-19 -9.377793E-01  0.000000E+00
  2.164660E-01  6.358331E-02  5.000000E-01  2.186521E-01  6.414955E-02  0.000000E+00  2.139200E-02  2.148044E-03 -9.767733E-19 -9.519074E-01  0.000000E+00
  2.005340E-01  6.187810E-02  5.000000E-01  2.025592E-01  6.242712E-02  0.000000E+00  2.182985E-02  2.499225E-03  7.012827E-20 -9.627423E-01  0.000000E+00
  1.852230E-01  6.001469E-02  5.000000E-01  1.870936E-01  6.054489E-02  0.000000E+00  2.228085E-02  2.888261E-03  3.864085E-19 -9.674519E-01  0.000000E+00
  1.705440E-01  5.799868E-02  5.000000E-01  1.722663E-01  5.850852E-02  0.000000E+00  2.272000E-02  3.297469E-03  1.344406E-19 -9.693743E-01  0.000000E+00
  1.565000E-01  5.585196E-02  5.000000E-01  1.580805E-01  5.634012E-02  0.000000E+00  2.313806E-02  3.709920E-03 -3.056980E-19 -9.761237E-01  0.000000E+00
  1.430940E-01  5.360152E-02  5.000000E-01  1.445391E-01  5.406695E-02  0.000000E+00  2.357457E-02  4.147656E-03 -4.021029E-19 -9.908539E-01  0.000000E+00
  1.303270E-01  5.125330E-02  5.000000E-01  1.316432E-01  5.169501E-02  0.000000E+00  2.409049E-02  4.679541E-03 -3.079893E-19 -1.004445E+00  0.000000E+00
  1.182110E-01  4.877876E-02  5.000000E-01  1.194048E-01  4.919549E-02  0.000000E+00  2.467150E-02  5.343692E-03 -5.381832E-19 -1.002052E+00  0.000000E+00
  1.067560E-01  4.616236E-02  5.000000E-01  1.078341E-01  4.655267E-02  0.000000E+00  2.518922E-02  6.096290E-03  1.599756E-19 -9.746851E-01  0.000000E+00
  9.596750E-02  4.340860E-02  5.000000E-01  9.693669E-02  4.377109E-02  0.000000E+00  2.546407E-02  6.797317E-03  1.009314E-18 -9.305305E-01  0.000000E+00
  8.582800E-02  4.058178E-02  5.000000E-01  8.669479E-02  4.091572E-02  0.000000E+00  2.542704E-02  7.320987E-03 -3.486594E-20 -8.883525E-01  0.000000E+00
  8.582800E-02  4.058178E-02  5.000000E-01  8.669479E-02  4.091572E-02  0.000000E+00  2.542704E-02  7.320987E-03 -3.486594E-20 -8.883525E-01  0.000000E+00
  7.631050E-02  3.775248E-02  5.000000E-01  7.708117E-02  3.805785E-02  0.000000E+00  2.521229E-02  7.738746E-03 -4.305435E-19 -8.522649E-01  0.000000E+00
  6.740780E-02  3.493355E-02  5.000000E-01  6.808856E-02  3.521045E-02  0.000000E+00  2.498508E-02  8.185457E-03 -6.484815E-19 -8.152498E-01  0.000000E+00
  5.911740E-02  3.212629E-02  5.000000E-01  5.971444E-02  3.237484E-02  0.000000E+00  2.479845E-02  8.685822E-03 -1.349500E-18 -7.743462E-01  0.000000E+00
  5.143150E-02  2.934447E-02  5.000000E-01  5.195092E-02  2.956493E-02  0.000000E+00  2.462938E-02  9.207359E-03  6.944607E-19 -7.302009E-01  0.000000E+00
  4.433770E-02  2.660776E-02  5.000000E-01  4.478548E-02  2.680058E-02  0.000000E+00  2.443779E-02  9.724843E-03 -1.019174E-20 -6.853888E-01  0.000000E+00
  3.782240E-02  2.393513E-02  5.000000E-01  3.820438E-02  2.410095E-02  0.000000E+00  2.420127E-02  1.023969E-02 -3.381322E-18 -6.437172E-01  0.000000E+00
  3.187460E-02  2.134014E-02  5.000000E-01  3.219651E-02  2.147976E-02  0.000000E+00  2.393002E-02  1.077754E-02 -1.798005E-18 -6.080309E-01  0.000000E+00
  2.648400E-02  1.883459E-02  5.000000E-01  2.675147E-02  1.894891E-02  0.000000E+00  2.365604E-02  1.140692E-02  4.804691E-19 -5.717870E-01  0.000000E+00
  2.164990E-02  1.641984E-02  5.000000E-01  2.186855E-02  1.650977E-02  0.000000E+00  2.334777E-02  1.218263E-02 -1.776439E-18 -5.172628E-01  0.000000E+00
  1.737670E-02  1.409587E-02  5.000000E-01  1.755219E-02  1.416233E-02  0.000000E+00  2.284468E-02  1.295371E-02 -7.330559E-18 -4.384289E-01  0.000000E+00
  1.364080E-02  1.188873E-02  5.000000E-01  1.377856E-02  1.193290E-02  0.000000E+00  2.200952E-02  1.342511E-02 -7.265434E-18 -3.553136E-01  0.000000E+00
  1.039090E-02  9.839553E-03  5.000000E-01  1.049584E-02  9.863028E-03  0.000000E+00  2.092800E-02  1.354923E-02  4.436610E-18 -2.931374E-01  0.000000E+00
  7.586340E-03  7.972809E-03  5.000000E-01  7.662960E-03  7.977431E-03  0.000000E+00  1.987473E-02  1.371181E-02  9.957972E-18 -2.561952E-01  0.000000E+00
  5.226210E-03  6.284521E-03  5.000000E-01  5.278995E-03  6.272094E-03  0.000000E+00  1.914233E-02  1.447633E-02 -1.702240E-17 -2.334976E-01  0.000000E+00
  3.324300E-03  4.765707E-03  5.000000E-01  3.357878E-03  4.737941E-03  0.000000E+00  1.893880E-02  1.640498E-02 -6.079880E-17 -2.145400E-01  0.000000E+00
  1.883580E-03  3.420245E-03  5.000000E-01  1.902608E-03  3.378890E-03  0.000000E+00  1.916146E-02  2.019838E-02 -5.193795E-17 -1.758413E-01  0.000000E+00
  8.951490E-04  2.263077E-03  5.000000E-01  9.041943E-04  2.210036E-03  0.000000E+00  1.877529E-02  2.628857E-02  5.528445E-17 -7.274526E-02  0.000000E+00
  3.201820E-04  1.321951E-03  5.000000E-01  3.234206E-04  1.259406E-03  0.000000E+00  1.577044E-02  3.326810E-02  2.031742E-16  1.239015E-01  0.000000E+00
  6.852390E-05  6.304144E-04  5.000000E-01  6.922101E-05  5.608852E-04  0.000000E+00  9.677044E-03  3.729937E-02  2.655092E-16  3.446775E-01  0.000000E+00
  4.217600E-06  2.135021E-04  5.000000E-01  4.265277E-06  1.397625E-04  0.000000E+00  3.550645E-03  3.770099E-02  1.927614E-16  4.223129E-01  0.000000E+00
 -5.032520E-09  7.513700E-05  5.000000E-01  0.000000E+00  0.000000E+00  0.000000E+00 -5.556498E-04  4.186574E-02  7.336974E-17  3.839582E-01  0.000000E+00
  5.154440E-06 -6.365834E-05  5.000000E-01  5.211579E-06 -1.401970E-04  0.000000E+00 -4.813602E-03  4.351071E-02 -3.918447E-17  5.041500E-01  0.000000E+00