 Title = "ADflow Slice Data"
Variables =  "CoordinateX"  "CoordinateY"  "CoordinateZ"  "XoC"  "YoC"  "ZoC" "VelocityX" "VelocityY" "VelocityZ" "CoefPressure" "Mach" 
Zone T= "Slice_0001 None Absolute Regular z = 0.50000000"
 Nodes =          192  Elements=          184  ZONETYPE=FELINESEG
 DATAPACKING=POINT
  5.653940E-01 -7.188684E-04  5.000000E-01  5.711040E-01 -7.798214E-04  0.000000E+00  9.006495E-03  7.592349E-04  7.893711E-19  1.667355E-01  0.000000E+00
  5.859770E-01  1.094641E-03  5.000000E-01  5.918948E-01  1.052003E-03  0.000000E+00  8.549695E-03  7.711956E-04 -4.153479E-19  1.839963E-01  0.000000E+00
  6.063060E-01  2.974244E-03  5.000000E-01  6.124291E-01  2.950588E-03  0.000000E+00  8.112952E-03  7.508802E-04 -1.372918E-18  2.083416E-01  0.000000E+00
  6.263240E-01  4.827504E-03  5.000000E-01  6.326493E-01  4.822564E-03  0.000000E+00  7.754647E-03  6.969400E-04 -1.175977E-18  2.337202E-01  0.000000E+00
  6.459860E-01  6.538846E-03  5.000000E-01  6.525099E-01  6.551190E-03  0.000000E+00  7.509258E-03  6.143120E-04 -4.742009E-19  2.564557E-01  0.000000E+00
  6.652460E-01  8.010808E-03  5.000000E-01  6.719644E-01  8.038017E-03  0.000000E+00  7.372019E-03  5.196910E-04 -3.981282E-19  2.734711E-01  0.000000E+00
  6.840650E-01  9.221380E-03  5.000000E-01  6.909734E-01  9.260814E-03  0.000000E+00  7.298597E-03  4.385432E-04 -4.928217E-19  2.822606E-01  0.000000E+00
  7.024070E-01  1.024325E-02  5.000000E-01  7.095007E-01  1.029300E-02  0.000000E+00  7.235325E-03  3.817094E-04 -3.160545E-19  2.855062E-01  0.000000E+00
  7.202400E-01  1.113287E-02  5.000000E-01  7.275138E-01  1.119160E-02  0.000000E+00  7.149381E-03  3.400893E-04  4.684325E-19  2.890519E-01  0.000000E+00
  7.375350E-01  1.191655E-02  5.000000E-01  7.449834E-01  1.198321E-02  0.000000E+00  7.031617E-03  3.031196E-04 -9.442225E-22  2.952077E-01  0.000000E+00
  7.542690E-01  1.260074E-02  5.000000E-01  7.618864E-01  1.267430E-02  0.000000E+00  6.891694E-03  2.645891E-04 -8.086631E-19  3.033646E-01  0.000000E+00
  7.704220E-01  1.317902E-02  5.000000E-01  7.782026E-01  1.325842E-02  0.000000E+00  6.752955E-03  2.210303E-04  4.465781E-20  3.120809E-01  0.000000E+00
  7.859770E-01  1.363931E-02  5.000000E-01  7.939147E-01  1.372337E-02  0.000000E+00  6.650117E-03  1.638548E-04  2.679823E-19  3.211028E-01  0.000000E+00
  8.009220E-01  1.393454E-02  5.000000E-01  8.090106E-01  1.402157E-02  0.000000E+00  6.621026E-03  8.287907E-05  3.571132E-19  3.304029E-01  0.000000E+00
  8.152480E-01  1.401010E-02  5.000000E-01  8.234813E-01  1.409790E-02  0.000000E+00  6.683386E-03 -1.597544E-05  2.279532E-19  3.365379E-01  0.000000E+00
  8.289490E-01  1.387178E-02  5.000000E-01  8.373206E-01  1.395818E-02  0.000000E+00  6.826231E-03 -1.174822E-04 -2.865221E-19  3.365526E-01  0.000000E+00
  8.420260E-01  1.355561E-02  5.000000E-01  8.505297E-01  1.363882E-02  0.000000E+00  7.025343E-03 -2.134613E-04 -3.687377E-21  3.318399E-01  0.000000E+00
  8.544790E-01  1.310282E-02  5.000000E-01  8.631085E-01  1.318146E-02  0.000000E+00  7.255278E-03 -3.009724E-04  1.449896E-19  3.247582E-01  0.000000E+00
  8.663160E-01  1.255335E-02  5.000000E-01  8.750650E-01  1.262644E-02  0.000000E+00  7.492176E-03 -3.782674E-04 -2.724471E-19  3.165565E-01  0.000000E+00
  8.775420E-01  1.194233E-02  5.000000E-01  8.864044E-01  1.200925E-02  0.000000E+00  7.715193E-03 -4.436353E-04 -5.483547E-19  3.078601E-01  0.000000E+00
  8.881660E-01  1.129959E-02  5.000000E-01  8.971357E-01  1.136002E-02  0.000000E+00  7.909068E-03 -4.958000E-04 -6.816023E-20  2.991688E-01  0.000000E+00
  8.981970E-01  1.064924E-02  5.000000E-01  9.072680E-01  1.070310E-02  0.000000E+00  8.067603E-03 -5.371409E-04  6.771588E-19  2.911556E-01  0.000000E+00
  9.076460E-01  1.000422E-02  5.000000E-01  9.168124E-01  1.005156E-02  0.000000E+00  8.196318E-03 -5.752807E-04  5.741465E-19  2.846401E-01  0.000000E+00
  9.165220E-01  9.364642E-03  5.000000E-01  9.257780E-01  9.405523E-03  0.000000E+00  8.308175E-03 -6.167438E-04 -1.600527E-19  2.794843E-01  0.000000E+00
  9.165220E-01  9.364642E-03  5.000000E-01  9.257780E-01  9.405523E-03  0.000000E+00  8.308175E-03 -6.167438E-04 -1.600527E-19  2.794843E-01  0.000000E+00
  9.248360E-01  8.729449E-03  5.000000E-01  9.341760E-01  8.763916E-03  0.000000E+00  8.415600E-03 -6.631688E-04  1.919322E-19  2.746798E-01  0.000000E+00
  9.325990E-01  8.099157E-03  5.000000E-01  9.420174E-01  8.127258E-03  0.000000E+00  8.527943E-03 -7.147668E-04  3.454661E-19  2.696569E-01  0.000000E+00
  9.398210E-01  7.475144E-03  5.000000E-01  9.493123E-01  7.496943E-03  0.000000E+00  8.652534E-03 -7.718732E-04  6.705414E-20  2.642870E-01  0.000000E+00
  9.465130E-01  6.859683E-03  5.000000E-01  9.560719E-01  6.875266E-03  0.000000E+00  8.795080E-03 -8.347349E-04  2.236439E-20  2.584553E-01  0.000000E+00
  9.526870E-01  6.255855E-03  5.000000E-01  9.623083E-01  6.265340E-03  0.000000E+00  8.959519E-03 -9.034878E-04 -4.661405E-20  2.520204E-01  0.000000E+00
  9.583540E-01  5.667482E-03  5.000000E-01  9.680325E-01  5.671025E-03  0.000000E+00  9.148258E-03 -9.781351E-04 -3.388522E-19  2.448709E-01  0.000000E+00
  9.635240E-01  5.099018E-03  5.000000E-01  9.732547E-01  5.096820E-03  0.000000E+00  9.362807E-03 -1.058396E-03 -1.066152E-18  2.369111E-01  0.000000E+00
  9.682080E-01  4.555388E-03  5.000000E-01  9.779860E-01  4.547700E-03  0.000000E+00  9.605482E-03 -1.144193E-03 -9.185611E-19  2.281176E-01  0.000000E+00
  9.724140E-01  4.041846E-03  5.000000E-01  9.822345E-01  4.028972E-03  0.000000E+00  9.881797E-03 -1.235708E-03 -2.040389E-19  2.185144E-01  0.000000E+00
  9.761510E-01  3.563813E-03  5.000000E-01  9.860092E-01  3.546111E-03  0.000000E+00  1.020071E-02 -1.333013E-03 -9.442662E-20  2.080949E-01  0.000000E+00
  9.794290E-01  3.126661E-03  5.000000E-01  9.893203E-01  3.104545E-03  0.000000E+00  1.056798E-02 -1.436350E-03 -2.443793E-19  1.968936E-01  0.000000E+00
  9.822540E-01  2.735627E-03  5.000000E-01  9.921739E-01  2.709562E-03  0.000000E+00  1.096876E-02 -1.544055E-03  1.248262E-19  1.851726E-01  0.000000E+00
  9.846330E-01  2.395582E-03  5.000000E-01  9.945769E-01  2.366082E-03  0.000000E+00  1.134988E-02 -1.646152E-03  1.339837E-18  1.741812E-01  0.000000E+00
  9.865710E-01  2.110909E-03  5.000000E-01  9.965345E-01  2.078534E-03  0.000000E+00  1.158287E-02 -1.711412E-03  2.759766E-18  1.628182E-01  0.000000E+00
  9.880740E-01  1.885381E-03  5.000000E-01  9.980526E-01  1.850728E-03  0.000000E+00  1.145733E-02 -1.735880E-03 -1.380471E-18  1.447753E-01  0.000000E+00
  9.891450E-01  1.722034E-03  5.000000E-01  9.991345E-01  1.685732E-03  0.000000E+00  1.164636E-02 -1.867446E-03 -2.431065E-17  1.464475E-01  0.000000E+00
  9.897860E-01  1.623115E-03  5.000000E-01  9.997819E-01  1.585814E-03  0.000000E+00  1.501676E-02 -1.848789E-03 -7.219404E-17  1.947398E-01  0.000000E+00
  9.900000E-01  1.589994E-03  5.000000E-01  9.999981E-01  1.552358E-03  0.000000E+00  1.049081E-02 -4.252147E-03 -7.827166E-17 -4.536972E-02  0.000000E+00
  9.900000E-01  1.668704E-03  5.000000E-01  9.999981E-01  1.631863E-03  0.000000E+00  1.050189E-03 -1.466290E-02  1.904083E-18 -1.815459E-01  0.000000E+00
  9.900000E-01  1.747424E-03  5.000000E-01  9.999981E-01  1.711379E-03  0.000000E+00 -5.231397E-04 -1.377487E-02  7.946095E-17 -6.747642E-03  0.000000E+00
  9.900000E-01  1.826144E-03  5.000000E-01  9.999981E-01  1.790894E-03  0.000000E+00 -3.019899E-04  2.559574E-03  9.609837E-17 -1.121907E-02  0.000000E+00
  9.900000E-01  1.904855E-03  5.000000E-01  9.999981E-01  1.870399E-03  0.000000E+00  7.148556E-04  3.935320E-03  1.292241E-16 -1.296139E-01  0.000000E+00
  9.900000E-01  1.983575E-03  5.000000E-01  9.999981E-01  1.949914E-03  0.000000E+00  5.922602E-03 -2.543390E-03  1.723025E-16 -3.512461E-02  0.000000E+00
  9.900000E-01  1.983575E-03  5.000000E-01  9.999981E-01  1.949914E-03  0.000000E+00  5.922602E-03 -2.543390E-03  1.723025E-16 -3.512461E-02  0.000000E+00
  9.897900E-01  2.026424E-03  5.000000E-01  9.997860E-01  1.993196E-03  0.000000E+00  7.717715E-03 -1.908009E-03  1.258399E-16  1.079092E-01  0.000000E+00
  9.891580E-01  2.154966E-03  5.000000E-01  9.991476E-01  2.123036E-03  0.000000E+00  4.806007E-03 -9.164973E-04  4.332887E-17  6.559507E-02  0.000000E+00
  9.881040E-01  2.369220E-03  5.000000E-01  9.980830E-01  2.339454E-03  0.000000E+00  4.058863E-03 -8.228456E-04  4.521745E-18  5.616632E-02  0.000000E+00
  9.866260E-01  2.669194E-03  5.000000E-01  9.965900E-01  2.642458E-03  0.000000E+00  3.873059E-03 -7.909677E-04 -4.114464E-18  5.862368E-02  0.000000E+00
  9.847200E-01  3.054872E-03  5.000000E-01  9.946648E-01  3.032030E-03  0.000000E+00  3.780902E-03 -7.631918E-04 -3.071215E-18  5.412001E-02  0.000000E+00
  9.823820E-01  3.526191E-03  5.000000E-01  9.923032E-01  3.508110E-03  0.000000E+00  3.811328E-03 -7.660561E-04 -1.133298E-18  4.695966E-02  0.000000E+00
  9.796080E-01  4.083003E-03  5.000000E-01  9.895011E-01  4.070545E-03  0.000000E+00  3.945476E-03 -7.897157E-04 -2.641292E-19  3.914301E-02  0.000000E+00
  9.763910E-01  4.725049E-03  5.000000E-01  9.862517E-01  4.719074E-03  0.000000E+00  4.143779E-03 -8.244870E-04 -1.252175E-19  3.013936E-02  0.000000E+00
  9.727270E-01  5.451845E-03  5.000000E-01  9.825507E-01  5.453210E-03  0.000000E+00  4.380120E-03 -8.653617E-04 -1.849716E-19  1.982590E-02  0.000000E+00
  9.686070E-01  6.262763E-03  5.000000E-01  9.783890E-01  6.272318E-03  0.000000E+00  4.639158E-03 -9.089479E-04 -3.968364E-19  8.412058E-03  0.000000E+00
  9.640240E-01  7.156850E-03  5.000000E-01  9.737598E-01  7.175435E-03  0.000000E+00  4.912800E-03 -9.532516E-04 -7.875454E-19 -3.983749E-03  0.000000E+00
  9.589680E-01  8.132862E-03  5.000000E-01  9.686527E-01  8.161304E-03  0.000000E+00  5.198116E-03 -9.973996E-04 -4.141175E-19 -1.727249E-02  0.000000E+00
  9.534310E-01  9.189161E-03  5.000000E-01  9.630598E-01  9.228270E-03  0.000000E+00  5.494480E-03 -1.040952E-03  4.489995E-19 -3.137087E-02  0.000000E+00
  9.474030E-01  1.032369E-02  5.000000E-01  9.569709E-01  1.037426E-02  0.000000E+00  5.801249E-03 -1.083210E-03  4.431648E-19 -4.610664E-02  0.000000E+00
  9.408720E-01  1.153394E-02  5.000000E-01  9.503740E-01  1.159673E-02  0.000000E+00  6.116499E-03 -1.123477E-03 -3.946705E-19 -6.136388E-02  0.000000E+00
  9.338280E-01  1.281685E-02  5.000000E-01  9.432588E-01  1.289260E-02  0.000000E+00  6.437389E-03 -1.160976E-03 -1.244931E-18 -7.703561E-02  0.000000E+00
  9.262600E-01  1.416892E-02  5.000000E-01  9.356144E-01  1.425832E-02  0.000000E+00  6.760184E-03 -1.194513E-03 -2.923599E-19 -9.293268E-02  0.000000E+00
  9.181550E-01  1.558586E-02  5.000000E-01  9.274275E-01  1.568957E-02  0.000000E+00  7.079920E-03 -1.222875E-03  4.414840E-19 -1.089088E-01  0.000000E+00
  9.095020E-01  1.706296E-02  5.000000E-01  9.186871E-01  1.718159E-02  0.000000E+00  7.390551E-03 -1.244710E-03 -8.216383E-20 -1.246783E-01  0.000000E+00
  9.002880E-01  1.859462E-02  5.000000E-01  9.093801E-01  1.872872E-02  0.000000E+00  7.684240E-03 -1.258680E-03 -6.893708E-19 -1.397124E-01  0.000000E+00
  8.905020E-01  2.017477E-02  5.000000E-01  8.994953E-01  2.032482E-02  0.000000E+00  7.951371E-03 -1.264880E-03 -1.058413E-18 -1.536662E-01  0.000000E+00
  8.801320E-01  2.180038E-02  5.000000E-01  8.890205E-01  2.196685E-02  0.000000E+00  8.183535E-03 -1.265230E-03 -2.085602E-20 -1.665982E-01  0.000000E+00
  8.691700E-01  2.347211E-02  5.000000E-01  8.779478E-01  2.365546E-02  0.000000E+00  8.376902E-03 -1.261845E-03  8.552872E-19 -1.786923E-01  0.000000E+00
  8.691700E-01  2.347211E-02  5.000000E-01  8.779478E-01  2.365546E-02  0.000000E+00  8.376902E-03 -1.261845E-03  8.552872E-19 -1.786923E-01  0.000000E+00
  8.576080E-01  2.519257E-02  5.000000E-01  8.662691E-01  2.539330E-02  0.000000E+00  8.532878E-03 -1.256536E-03  3.890604E-20 -1.900497E-01  0.000000E+00
  8.454380E-01  2.696628E-02  5.000000E-01  8.539762E-01  2.718492E-02  0.000000E+00  8.657234E-03 -1.251888E-03 -6.934416E-19 -2.008482E-01  0.000000E+00
  8.326580E-01  2.880024E-02  5.000000E-01  8.410671E-01  2.903740E-02  0.000000E+00  8.760203E-03 -1.251081E-03 -8.125670E-19 -2.115327E-01  0.000000E+00
  8.192630E-01  3.070432E-02  5.000000E-01  8.275368E-01  3.096071E-02  0.000000E+00  8.857068E-03 -1.257817E-03 -6.422641E-19 -2.232196E-01  0.000000E+00
  8.052550E-01  3.269138E-02  5.000000E-01  8.133873E-01  3.296784E-02  0.000000E+00  8.969016E-03 -1.274894E-03 -9.830980E-20 -2.375346E-01  0.000000E+00
  7.906370E-01  3.477286E-02  5.000000E-01  7.986217E-01  3.507034E-02  0.000000E+00  9.120999E-03 -1.300668E-03  9.072833E-19 -2.553190E-01  0.000000E+00
  7.754120E-01  3.694698E-02  5.000000E-01  7.832430E-01  3.726641E-02  0.000000E+00  9.332776E-03 -1.329659E-03  1.344209E-18 -2.762070E-01  0.000000E+00
  7.595880E-01  3.919636E-02  5.000000E-01  7.672591E-01  3.953852E-02  0.000000E+00  9.610167E-03 -1.357116E-03  1.381744E-18 -2.996822E-01  0.000000E+00
  7.431760E-01  4.149883E-02  5.000000E-01  7.506814E-01  4.186424E-02  0.000000E+00  9.945258E-03 -1.379513E-03  7.356320E-19 -3.252459E-01  0.000000E+00
  7.261880E-01  4.382899E-02  5.000000E-01  7.335218E-01  4.421793E-02  0.000000E+00  1.032069E-02 -1.392742E-03 -3.486764E-19 -3.517996E-01  0.000000E+00
  7.086430E-01  4.615922E-02  5.000000E-01  7.157997E-01  4.657169E-02  0.000000E+00  1.071304E-02 -1.393119E-03  1.291486E-19 -3.776357E-01  0.000000E+00
  6.905640E-01  4.846263E-02  5.000000E-01  6.975381E-01  4.889837E-02  0.000000E+00  1.109726E-02 -1.380398E-03  1.221671E-18 -4.013810E-01  0.000000E+00
  6.719770E-01  5.072103E-02  5.000000E-01  6.787634E-01  5.117957E-02  0.000000E+00  1.145413E-02 -1.360736E-03  1.488159E-18 -4.235837E-01  0.000000E+00
  6.529150E-01  5.293526E-02  5.000000E-01  6.595088E-01  5.341617E-02  0.000000E+00  1.178190E-02 -1.341779E-03  1.169229E-19 -4.462298E-01  0.000000E+00
  6.334180E-01  5.511223E-02  5.000000E-01  6.398149E-01  5.561512E-02  0.000000E+00  1.210004E-02 -1.324539E-03 -2.779939E-19 -4.708891E-01  0.000000E+00
  6.135280E-01  5.724661E-02  5.000000E-01  6.197241E-01  5.777105E-02  0.000000E+00  1.243683E-02 -1.305632E-03  1.279717E-18 -4.986808E-01  0.000000E+00
  5.932910E-01  5.932429E-02  5.000000E-01  5.992827E-01  5.986972E-02  0.000000E+00  1.281680E-02 -1.280455E-03  2.536389E-19 -5.298387E-01  0.000000E+00
  5.727570E-01  6.132021E-02  5.000000E-01  5.785413E-01  6.188579E-02  0.000000E+00  1.325318E-02 -1.241798E-03 -1.866411E-18 -5.623895E-01  0.000000E+00
  5.519810E-01  6.319783E-02  5.000000E-01  5.575555E-01  6.378238E-02  0.000000E+00  1.374025E-02 -1.182419E-03 -1.897810E-18 -5.932633E-01  0.000000E+00
  5.310180E-01  6.491578E-02  5.000000E-01  5.363808E-01  6.551767E-02  0.000000E+00  1.425177E-02 -1.105788E-03 -1.484596E-18 -6.225625E-01  0.000000E+00
  5.099250E-01  6.646243E-02  5.000000E-01  5.150748E-01  6.707994E-02  0.000000E+00  1.476321E-02 -1.022705E-03  1.108473E-19 -6.537089E-01  0.000000E+00
  4.887640E-01  6.784383E-02  5.000000E-01  4.937001E-01  6.847530E-02  0.000000E+00  1.527759E-02 -9.287655E-04  1.232650E-18 -6.872728E-01  0.000000E+00
  4.675910E-01  6.903937E-02  5.000000E-01  4.723132E-01  6.968291E-02  0.000000E+00  1.580786E-02 -8.071239E-04  5.088390E-19 -7.196905E-01  0.000000E+00
  7.860720E-05 -5.711676E-04  5.000000E-01  7.940614E-05 -6.306290E-04  0.000000E+00 -7.481365E-03  2.881634E-02  1.563360E-16  8.167956E-01  0.000000E+00
  3.989240E-04 -1.307426E-03  5.000000E-01  4.029579E-04 -1.374323E-03  0.000000E+00 -7.212647E-03  1.359429E-02  8.898467E-17  1.063946E+00  0.000000E+00
  1.196920E-03 -2.209237E-03  5.000000E-01  1.209013E-03 -2.285241E-03  0.000000E+00 -1.831737E-03  2.473833E-03  4.655946E-17  1.084382E+00  0.000000E+00
  2.563580E-03 -3.162957E-03  5.000000E-01  2.589475E-03 -3.248593E-03  0.000000E+00  4.340154E-03 -2.333111E-03  1.713860E-17  9.585337E-01  0.000000E+00
  4.492740E-03 -4.113335E-03  5.000000E-01  4.538118E-03 -4.208569E-03  0.000000E+00  8.531658E-03 -3.652807E-03  4.273269E-18  8.290550E-01  0.000000E+00
  6.952190E-03 -5.050132E-03  5.000000E-01  7.022406E-03 -5.154827E-03  0.000000E+00  1.090234E-02 -3.790910E-03 -3.091492E-19  7.319532E-01  0.000000E+00
  9.910730E-03 -5.993488E-03  5.000000E-01  1.001082E-02 -6.107710E-03  0.000000E+00  1.227424E-02 -3.686304E-03 -2.664309E-18  6.556072E-01  0.000000E+00
  1.334950E-02 -6.968462E-03  5.000000E-01  1.348432E-02 -7.092530E-03  0.000000E+00  1.316059E-02 -3.489946E-03 -3.950977E-18  5.814438E-01  0.000000E+00
  1.728780E-02 -7.946575E-03  5.000000E-01  1.746240E-02 -8.080521E-03  0.000000E+00  1.371629E-02 -3.113692E-03 -4.396981E-18  5.010393E-01  0.000000E+00
  2.175590E-02 -8.868409E-03  5.000000E-01  2.197562E-02 -9.011665E-03  0.000000E+00  1.397363E-02 -2.588356E-03 -3.189757E-18  4.265670E-01  0.000000E+00
  2.676920E-02 -9.690536E-03  5.000000E-01  2.703955E-02 -9.842095E-03  0.000000E+00  1.400879E-02 -2.046902E-03 -1.610438E-18  3.720597E-01  0.000000E+00
  3.232800E-02 -1.040168E-02  5.000000E-01  3.265449E-02 -1.056042E-02  0.000000E+00  1.392172E-02 -1.586961E-03 -5.224358E-19  3.387124E-01  0.000000E+00
  3.842930E-02 -1.101144E-02  5.000000E-01  3.881741E-02 -1.117634E-02  0.000000E+00  1.378061E-02 -1.236273E-03  3.533569E-19  3.188701E-01  0.000000E+00
  4.507220E-02 -1.153897E-02  5.000000E-01  4.552739E-02 -1.170920E-02  0.000000E+00  1.363478E-02 -1.000096E-03  2.764992E-19  3.065582E-01  0.000000E+00
  5.225680E-02 -1.202145E-02  5.000000E-01  5.278455E-02 -1.219655E-02  0.000000E+00  1.353094E-02 -8.713417E-04 -8.587800E-19  2.983615E-01  0.000000E+00
  5.998640E-02 -1.249821E-02  5.000000E-01  6.059221E-02 -1.267812E-02  0.000000E+00  1.347960E-02 -8.043150E-04 -1.084261E-18  2.883077E-01  0.000000E+00
  6.827110E-02 -1.297701E-02  5.000000E-01  6.896058E-02 -1.316176E-02  0.000000E+00  1.345447E-02 -7.511201E-04  8.332953E-21  2.732945E-01  0.000000E+00
  7.712280E-02 -1.345365E-02  5.000000E-01  7.790167E-02 -1.364321E-02  0.000000E+00  1.343312E-02 -6.996168E-04  1.916657E-19  2.564843E-01  0.000000E+00
  8.655260E-02 -1.392741E-02  5.000000E-01  8.742671E-02 -1.412176E-02  0.000000E+00  1.340474E-02 -6.489781E-04 -1.425906E-19  2.405095E-01  0.000000E+00
  9.657140E-02 -1.439425E-02  5.000000E-01  9.754669E-02 -1.459331E-02  0.000000E+00  1.335746E-02 -5.893406E-04 -1.669538E-19  2.247383E-01  0.000000E+00
  1.071900E-01 -1.483681E-02  5.000000E-01  1.082725E-01 -1.504034E-02  0.000000E+00  1.328913E-02 -5.183832E-04  5.376643E-20  2.092694E-01  0.000000E+00
  1.184180E-01 -1.524417E-02  5.000000E-01  1.196139E-01 -1.545182E-02  0.000000E+00  1.322413E-02 -4.526590E-04  8.327538E-19  1.962146E-01  0.000000E+00
  1.302610E-01 -1.562458E-02  5.000000E-01  1.315765E-01 -1.583607E-02  0.000000E+00  1.319801E-02 -4.073256E-04  1.029585E-18  1.856160E-01  0.000000E+00
  1.427230E-01 -1.599340E-02  5.000000E-01  1.441644E-01 -1.620861E-02  0.000000E+00  1.323145E-02 -3.846544E-04  6.580085E-19  1.752124E-01  0.000000E+00
  1.427230E-01 -1.599340E-02  5.000000E-01  1.441644E-01 -1.620861E-02  0.000000E+00  1.323145E-02 -3.846544E-04  6.580085E-19  1.752124E-01  0.000000E+00
  1.558070E-01 -1.636725E-02  5.000000E-01  1.573805E-01 -1.658623E-02  0.000000E+00  1.331405E-02 -3.723644E-04  1.992020E-19  1.624020E-01  0.000000E+00
  1.695140E-01 -1.674309E-02  5.000000E-01  1.712259E-01 -1.696587E-02  0.000000E+00  1.340357E-02 -3.472786E-04 -1.721052E-19  1.458124E-01  0.000000E+00
  1.838420E-01 -1.709316E-02  5.000000E-01  1.856986E-01 -1.731948E-02  0.000000E+00  1.344384E-02 -2.872231E-04 -2.156417E-19  1.267347E-01  0.000000E+00
  1.987870E-01 -1.736702E-02  5.000000E-01  2.007946E-01 -1.759610E-02  0.000000E+00  1.338610E-02 -1.778877E-04 -4.094834E-19  1.076867E-01  0.000000E+00
  2.143420E-01 -1.749511E-02  5.000000E-01  2.165067E-01 -1.772549E-02  0.000000E+00  1.321570E-02 -3.185190E-05  1.766543E-19  9.253474E-02  0.000000E+00
  2.304940E-01 -1.743669E-02  5.000000E-01  2.328218E-01 -1.766648E-02  0.000000E+00  1.296911E-02  1.051236E-04  2.332258E-19  8.629265E-02  0.000000E+00
  2.472290E-01 -1.722238E-02  5.000000E-01  2.497258E-01 -1.745001E-02  0.000000E+00  1.270029E-02  2.013102E-04 -2.366185E-19  8.849836E-02  0.000000E+00
  2.645310E-01 -1.689508E-02  5.000000E-01  2.672025E-01 -1.711940E-02  0.000000E+00  1.243972E-02  2.663725E-04 -4.326012E-19  9.270320E-02  0.000000E+00
  2.823750E-01 -1.646942E-02  5.000000E-01  2.852267E-01 -1.668944E-02  0.000000E+00  1.220052E-02  3.208221E-04 -5.835850E-19  9.474608E-02  0.000000E+00
  3.007320E-01 -1.594158E-02  5.000000E-01  3.037691E-01 -1.615627E-02  0.000000E+00  1.200064E-02  3.679220E-04  5.429363E-20  9.575996E-02  0.000000E+00
  3.195690E-01 -1.532630E-02  5.000000E-01  3.227964E-01 -1.553478E-02  0.000000E+00  1.186238E-02  3.971531E-04 -5.310179E-20  9.818623E-02  0.000000E+00
  3.388440E-01 -1.466415E-02  5.000000E-01  3.422660E-01 -1.486593E-02  0.000000E+00  1.178567E-02  4.101006E-04 -4.882819E-19  1.007510E-01  0.000000E+00
  3.585140E-01 -1.397246E-02  5.000000E-01  3.621347E-01 -1.416726E-02  0.000000E+00  1.173192E-02  4.276260E-04  3.728182E-19  9.969679E-02  0.000000E+00
  3.785290E-01 -1.321867E-02  5.000000E-01  3.823518E-01 -1.340586E-02  0.000000E+00  1.164602E-02  4.649727E-04  8.246719E-19  9.510819E-02  0.000000E+00
  3.988350E-01 -1.236102E-02  5.000000E-01  4.028629E-01 -1.253955E-02  0.000000E+00  1.148464E-02  5.230138E-04  5.899950E-19  9.097111E-02  0.000000E+00
  4.193750E-01 -1.135611E-02  5.000000E-01  4.236103E-01 -1.152449E-02  0.000000E+00  1.122702E-02  6.023237E-04  4.270509E-19  8.993384E-02  0.000000E+00
  4.400850E-01 -1.014516E-02  5.000000E-01  4.445295E-01 -1.030131E-02  0.000000E+00  1.088789E-02  6.952363E-04 -3.227223E-20  9.352765E-02  0.000000E+00
  4.609060E-01 -8.698725E-03  5.000000E-01  4.655607E-01 -8.840267E-03  0.000000E+00  1.052673E-02  7.684590E-04  6.449732E-19  1.048025E-01  0.000000E+00
  4.818030E-01 -7.093308E-03  5.000000E-01  4.866688E-01 -7.218637E-03  0.000000E+00  1.021522E-02  7.846371E-04  1.174211E-18  1.245232E-01  0.000000E+00
  5.027520E-01 -5.483191E-03  5.000000E-01  5.078293E-01 -5.592259E-03  0.000000E+00  9.970868E-03  7.500816E-04  3.175711E-19  1.455248E-01  0.000000E+00
  5.237130E-01 -3.945955E-03  5.000000E-01  5.290020E-01 -4.039499E-03  0.000000E+00  9.732271E-03  7.178434E-04 -2.440739E-19  1.577715E-01  0.000000E+00
  5.446170E-01 -2.401408E-03  5.000000E-01  5.501171E-01 -2.479353E-03  0.000000E+00  9.417064E-03  7.281029E-04  4.777467E-19  1.607560E-01  0.000000E+00
  5.653940E-01 -7.188684E-04  5.000000E-01  5.711040E-01 -7.798214E-04  0.000000E+00  9.006495E-03  7.592349E-04  7.893711E-19  1.667355E-01  0.000000E+00
  4.675910E-01  6.903937E-02  5.000000E-01  4.723132E-01  6.968291E-02  0.000000E+00  1.580786E-02 -8.071239E-04  5.088390E-19 -7.196905E-01  0.000000E+00
  4.464640E-01  7.000852E-02  5.000000E-01  4.509729E-01  7.066185E-02  0.000000E+00  1.634330E-02 -6.542300E-04 -4.026848E-21 -7.482566E-01  0.000000E+00
  4.254410E-01  7.073147E-02  5.000000E-01  4.297376E-01  7.139210E-02  0.000000E+00  1.685424E-02 -4.813717E-04  4.447511E-20 -7.728729E-01  0.000000E+00
  4.045840E-01  7.120898E-02  5.000000E-01  4.086699E-01  7.187443E-02  0.000000E+00  1.731789E-02 -3.000168E-04  2.009309E-19 -7.945323E-01  0.000000E+00
  3.839530E-01  7.145427E-02  5.000000E-01  3.878306E-01  7.212220E-02  0.000000E+00  1.773294E-02 -1.144640E-04  2.496803E-19 -8.141293E-01  0.000000E+00
  3.636060E-01  7.147766E-02  5.000000E-01  3.672781E-01  7.214582E-02  0.000000E+00  1.811667E-02  7.561394E-05  1.617245E-19 -8.326470E-01  0.000000E+00
  3.435960E-01  7.128975E-02  5.000000E-01  3.470660E-01  7.195602E-02  0.000000E+00  1.849472E-02  2.705537E-04 -4.937501E-20 -8.519865E-01  0.000000E+00
  3.239710E-01  7.090127E-02  5.000000E-01  3.272428E-01  7.156362E-02  0.000000E+00  1.889664E-02  4.734948E-04  5.249934E-20 -8.741996E-01  0.000000E+00
  3.047740E-01  7.032063E-02  5.000000E-01  3.078519E-01  7.097711E-02  0.000000E+00  1.935240E-02  6.967461E-04  6.919829E-20 -8.993373E-01  0.000000E+00
  2.860450E-01  6.954106E-02  5.000000E-01  2.889338E-01  7.018967E-02  0.000000E+00  1.987772E-02  9.584953E-04  4.080752E-19 -9.248462E-01  0.000000E+00
  2.678190E-01  6.854547E-02  5.000000E-01  2.705237E-01  6.918402E-02  0.000000E+00  2.045533E-02  1.266837E-03  4.647881E-19 -9.478814E-01  0.000000E+00
  2.501300E-01  6.732429E-02  5.000000E-01  2.526561E-01  6.795051E-02  0.000000E+00  2.103976E-02  1.615936E-03 -5.643998E-19 -9.663644E-01  0.000000E+00
  2.330040E-01  6.587941E-02  5.000000E-01  2.353571E-01  6.649103E-02  0.000000E+00  2.157919E-02  1.994847E-03 -1.228172E-18 -9.780488E-01  0.000000E+00
  2.164660E-01  6.422055E-02  5.000000E-01  2.186521E-01  6.481543E-02  0.000000E+00  2.203084E-02  2.390233E-03 -9.077983E-19 -9.805792E-01  0.000000E+00
  2.005340E-01  6.236472E-02  5.000000E-01  2.025592E-01  6.294085E-02  0.000000E+00  2.236706E-02  2.780969E-03 -3.455683E-19 -9.736654E-01  0.000000E+00
  1.852230E-01  6.034307E-02  5.000000E-01  1.870936E-01  6.089878E-02  0.000000E+00  2.258599E-02  3.142905E-03 -8.007699E-19 -9.609470E-01  0.000000E+00
  1.705440E-01  5.819703E-02  5.000000E-01  1.722663E-01  5.873108E-02  0.000000E+00  2.272350E-02  3.466761E-03 -2.217076E-18 -9.496544E-01  0.000000E+00
  1.565000E-01  5.596431E-02  5.000000E-01  1.580805E-01  5.647581E-02  0.000000E+00  2.285076E-02  3.765571E-03 -1.162558E-18 -9.486022E-01  0.000000E+00
  1.430940E-01  5.367516E-02  5.000000E-01  1.445391E-01  5.416354E-02  0.000000E+00  2.306600E-02  4.085995E-03  1.225372E-18 -9.612062E-01  0.000000E+00
  1.303270E-01  5.133189E-02  5.000000E-01  1.316432E-01  5.179660E-02  0.000000E+00  2.345733E-02  4.511696E-03  3.424003E-19 -9.777909E-01  0.000000E+00
  1.182110E-01  4.889828E-02  5.000000E-01  1.194048E-01  4.933841E-02  0.000000E+00  2.401076E-02  5.088452E-03 -1.427087E-18 -9.823396E-01  0.000000E+00
  1.067560E-01  4.635013E-02  5.000000E-01  1.078341E-01  4.676453E-02  0.000000E+00  2.458059E-02  5.777341E-03 -2.051715E-18 -9.644280E-01  0.000000E+00
  9.596750E-02  4.368323E-02  5.000000E-01  9.693669E-02  4.407070E-02  0.000000E+00  2.496163E-02  6.440997E-03 -2.072174E-18 -9.313090E-01  0.000000E+00
  8.582800E-02  4.095573E-02  5.000000E-01  8.669479E-02  4.131566E-02  0.000000E+00  2.506198E-02  6.952572E-03 -1.266515E-18 -9.015972E-01  0.000000E+00
  8.582800E-02  4.095573E-02  5.000000E-01  8.669479E-02  4.131566E-02  0.000000E+00  2.506198E-02  6.952572E-03 -1.266515E-18 -9.015972E-01  0.000000E+00
  7.631050E-02  3.823359E-02  5.000000E-01  7.708117E-02  3.856602E-02  0.000000E+00  2.500549E-02  7.382788E-03  6.308526E-19 -8.790832E-01  0.000000E+00
  6.740780E-02  3.552327E-02  5.000000E-01  6.808856E-02  3.582833E-02  0.000000E+00  2.495598E-02  7.869119E-03  1.072195E-18 -8.558934E-01  0.000000E+00
  5.911740E-02  3.281944E-02  5.000000E-01  5.971444E-02  3.309719E-02  0.000000E+00  2.496274E-02  8.438295E-03  9.237389E-19 -8.282554E-01  0.000000E+00
  5.143150E-02  3.013036E-02  5.000000E-01  5.195092E-02  3.038096E-02  0.000000E+00  2.499367E-02  9.056993E-03  1.156728E-18 -7.964049E-01  0.000000E+00
  4.433770E-02  2.747140E-02  5.000000E-01  4.478548E-02  2.769514E-02  0.000000E+00  2.499715E-02  9.697632E-03 -3.415154E-20 -7.629909E-01  0.000000E+00
  3.782240E-02  2.485810E-02  5.000000E-01  3.820438E-02  2.505545E-02  0.000000E+00  2.494193E-02  1.036062E-02 -9.846684E-19 -7.320577E-01  0.000000E+00
  3.187460E-02  2.230110E-02  5.000000E-01  3.219651E-02  2.247263E-02  0.000000E+00  2.483534E-02  1.107353E-02  8.195649E-19 -7.061045E-01  0.000000E+00
  2.648400E-02  1.981002E-02  5.000000E-01  2.675147E-02  1.995639E-02  0.000000E+00  2.470935E-02  1.191296E-02  4.021817E-18 -6.766300E-01  0.000000E+00
  2.164990E-02  1.738369E-02  5.000000E-01  2.186855E-02  1.750555E-02  0.000000E+00  2.451927E-02  1.293886E-02  8.165966E-18 -6.228094E-01  0.000000E+00
  1.737670E-02  1.502003E-02  5.000000E-01  1.755219E-02  1.511802E-02  0.000000E+00  2.406775E-02  1.396771E-02  1.303487E-17 -5.379006E-01  0.000000E+00
  1.364080E-02  1.274787E-02  5.000000E-01  1.377856E-02  1.282292E-02  0.000000E+00  2.319068E-02  1.464033E-02  1.747730E-17 -4.454135E-01  0.000000E+00
  1.039090E-02  1.061561E-02  5.000000E-01  1.049584E-02  1.066913E-02  0.000000E+00  2.199183E-02  1.488593E-02  2.200165E-17 -3.745481E-01  0.000000E+00
  7.586340E-03  8.654235E-03  5.000000E-01  7.662960E-03  8.687942E-03  0.000000E+00  2.078362E-02  1.514242E-02  2.477838E-17 -3.295425E-01  0.000000E+00
  5.226210E-03  6.862119E-03  5.000000E-01  5.278995E-03  6.877727E-03  0.000000E+00  1.985984E-02  1.603286E-02  2.712854E-17 -2.956685E-01  0.000000E+00
  3.324300E-03  5.231734E-03  5.000000E-01  3.357877E-03  5.230877E-03  0.000000E+00  1.935069E-02  1.809373E-02  3.734859E-17 -2.583807E-01  0.000000E+00
  1.883580E-03  3.770677E-03  5.000000E-01  1.902608E-03  3.755064E-03  0.000000E+00  1.900929E-02  2.185195E-02  6.981436E-17 -1.930341E-01  0.000000E+00
  8.951490E-04  2.499665E-03  5.000000E-01  9.041943E-04  2.471216E-03  0.000000E+00  1.779638E-02  2.739814E-02  1.306079E-16 -6.171112E-02  0.000000E+00
  3.201820E-04  1.454857E-03  5.000000E-01  3.234206E-04  1.415857E-03  0.000000E+00  1.419532E-02  3.315753E-02  1.998373E-16  1.500182E-01  0.000000E+00
  6.852390E-05  6.800735E-04  5.000000E-01  6.922101E-05  6.332485E-04  0.000000E+00  8.344862E-03  3.591556E-02  2.470833E-16  3.684683E-01  0.000000E+00
  4.217600E-06  2.098011E-04  5.000000E-01  4.265277E-06  1.582268E-04  0.000000E+00  2.976805E-03  3.552805E-02  2.668739E-16  4.461668E-01  0.000000E+00
 -5.032520E-09  5.315627E-05  5.000000E-01  0.000000E+00  0.000000E+00  0.000000E+00 -4.143808E-04  3.818219E-02  2.697827E-16  4.165724E-01  0.000000E+00
  5.154440E-06 -1.042735E-04  5.000000E-01  5.211578E-06 -1.590196E-04  0.000000E+00 -3.791209E-03  3.899120E-02  2.343256E-16  5.226057E-01  0.000000E+00