 Title = "ADflow Slice Data"
Variables =  "CoordinateX"  "CoordinateY"  "CoordinateZ"  "XoC"  "YoC"  "ZoC" "VelocityX" "VelocityY" "VelocityZ" "CoefPressure" "Mach" 
Zone T= "Slice_0001 None Absolute Regular z = 0.50000000"
 Nodes =          192  Elements=          184  ZONETYPE=FELINESEG
 DATAPACKING=POINT
  5.653940E-01 -2.669543E-03  5.000000E-01  5.711040E-01 -2.771937E-03  0.000000E+00  9.768893E-03  6.152895E-04 -6.610214E-19  1.433882E-01  0.000000E+00
  5.859770E-01 -1.293993E-03  5.000000E-01  5.918948E-01 -1.382496E-03  0.000000E+00  9.468764E-03  6.652891E-04 -1.730760E-20  1.502271E-01  0.000000E+00
  6.063060E-01  2.075533E-04  5.000000E-01  6.124291E-01  1.342149E-04  0.000000E+00  9.126369E-03  6.966366E-04 -2.259250E-19  1.650423E-01  0.000000E+00
  6.263240E-01  1.786453E-03  5.000000E-01  6.326493E-01  1.729060E-03  0.000000E+00  8.786683E-03  6.979500E-04  4.064872E-20  1.839152E-01  0.000000E+00
  6.459860E-01  3.359708E-03  5.000000E-01  6.525099E-01  3.318204E-03  0.000000E+00  8.481567E-03  6.681356E-04  5.339510E-19  2.037870E-01  0.000000E+00
  6.652460E-01  4.851709E-03  5.000000E-01  6.719644E-01  4.825272E-03  0.000000E+00  8.210987E-03  6.221849E-04  8.258492E-20  2.213876E-01  0.000000E+00
  6.840650E-01  6.242219E-03  5.000000E-01  6.909734E-01  6.229826E-03  0.000000E+00  7.943062E-03  5.827525E-04 -1.207525E-19  2.342997E-01  0.000000E+00
  7.024070E-01  7.576708E-03  5.000000E-01  7.095007E-01  7.577791E-03  0.000000E+00  7.643775E-03  5.559846E-04  6.020227E-19  2.449304E-01  0.000000E+00
  7.202400E-01  8.875481E-03  5.000000E-01  7.275138E-01  8.889681E-03  0.000000E+00  7.302889E-03  5.300178E-04  1.000220E-18  2.580073E-01  0.000000E+00
  7.375350E-01  1.012757E-02  5.000000E-01  7.449834E-01  1.015442E-02  0.000000E+00  6.932490E-03  4.952232E-04  3.151187E-19  2.746308E-01  0.000000E+00
  7.542690E-01  1.130628E-02  5.000000E-01  7.618864E-01  1.134503E-02  0.000000E+00  6.559697E-03  4.494387E-04 -6.825552E-20  2.932138E-01  0.000000E+00
  7.704220E-01  1.237894E-02  5.000000E-01  7.782026E-01  1.242852E-02  0.000000E+00  6.220308E-03  3.941388E-04 -6.156032E-20  3.115391E-01  0.000000E+00
  7.859770E-01  1.331448E-02  5.000000E-01  7.939147E-01  1.337351E-02  0.000000E+00  5.958248E-03  3.232301E-04  8.278762E-20  3.293188E-01  0.000000E+00
  8.009220E-01  1.403671E-02  5.000000E-01  8.090106E-01  1.410304E-02  0.000000E+00  5.818060E-03  2.271439E-04  1.373500E-19  3.467055E-01  0.000000E+00
  8.152480E-01  1.446088E-02  5.000000E-01  8.234813E-01  1.453148E-02  0.000000E+00  5.817279E-03  1.129607E-04  2.298207E-19  3.593487E-01  0.000000E+00
  8.289490E-01  1.458567E-02  5.000000E-01  8.373206E-01  1.465754E-02  0.000000E+00  5.937451E-03 -3.759577E-06  3.303449E-19  3.635986E-01  0.000000E+00
  8.420260E-01  1.445305E-02  5.000000E-01  8.505297E-01  1.452358E-02  0.000000E+00  6.144957E-03 -1.156857E-04  2.429712E-19  3.613282E-01  0.000000E+00
  8.544790E-01  1.411539E-02  5.000000E-01  8.631085E-01  1.418250E-02  0.000000E+00  6.406697E-03 -2.206747E-04 -1.236031E-19  3.555342E-01  0.000000E+00
  8.663160E-01  1.362500E-02  5.000000E-01  8.750650E-01  1.368717E-02  0.000000E+00  6.693027E-03 -3.172698E-04 -3.085191E-19  3.477662E-01  0.000000E+00
  8.775420E-01  1.302867E-02  5.000000E-01  8.864044E-01  1.308481E-02  0.000000E+00  6.978318E-03 -4.034425E-04 -5.726455E-19  3.387660E-01  0.000000E+00
  8.881660E-01  1.236646E-02  5.000000E-01  8.971357E-01  1.241592E-02  0.000000E+00  7.243075E-03 -4.771645E-04 -7.725752E-19  3.291511E-01  0.000000E+00
  8.981970E-01  1.167120E-02  5.000000E-01  9.072680E-01  1.171363E-02  0.000000E+00  7.476967E-03 -5.395294E-04 -4.297059E-19  3.197024E-01  0.000000E+00
  9.076460E-01  1.096353E-02  5.000000E-01  9.168124E-01  1.099882E-02  0.000000E+00  7.681137E-03 -5.965253E-04 -2.153547E-19  3.113207E-01  0.000000E+00
  9.165220E-01  1.025049E-02  5.000000E-01  9.257781E-01  1.027858E-02  0.000000E+00  7.864640E-03 -6.538174E-04  4.888252E-20  3.040409E-01  0.000000E+00
  9.165220E-01  1.025049E-02  5.000000E-01  9.257781E-01  1.027858E-02  0.000000E+00  7.864640E-03 -6.538174E-04  4.888252E-20  3.040409E-01  0.000000E+00
  9.248360E-01  9.536417E-03  5.000000E-01  9.341760E-01  9.557291E-03  0.000000E+00  8.037434E-03 -7.132752E-04  3.063235E-19  2.970894E-01  0.000000E+00
  9.325990E-01  8.825671E-03  5.000000E-01  9.420174E-01  8.839368E-03  0.000000E+00  8.207852E-03 -7.756757E-04  2.700267E-19  2.900330E-01  0.000000E+00
  9.398210E-01  8.122297E-03  5.000000E-01  9.493124E-01  8.128890E-03  0.000000E+00  8.383204E-03 -8.419479E-04  1.360738E-19  2.827817E-01  0.000000E+00
  9.465130E-01  7.430286E-03  5.000000E-01  9.560719E-01  7.429891E-03  0.000000E+00  8.569818E-03 -9.129160E-04 -8.864447E-20  2.752260E-01  0.000000E+00
  9.526870E-01  6.753749E-03  5.000000E-01  9.623083E-01  6.746521E-03  0.000000E+00  8.772674E-03 -9.892315E-04 -4.745924E-19  2.672193E-01  0.000000E+00
  9.583540E-01  6.097091E-03  5.000000E-01  9.680325E-01  6.083231E-03  0.000000E+00  8.995445E-03 -1.071346E-03 -4.714014E-19  2.586320E-01  0.000000E+00
  9.635240E-01  5.465077E-03  5.000000E-01  9.732547E-01  5.444835E-03  0.000000E+00  9.241005E-03 -1.159368E-03  9.601243E-19  2.493421E-01  0.000000E+00
  9.682080E-01  4.862770E-03  5.000000E-01  9.779860E-01  4.836445E-03  0.000000E+00  9.513076E-03 -1.253560E-03  2.557308E-18  2.392957E-01  0.000000E+00
  9.724140E-01  4.295532E-03  5.000000E-01  9.822345E-01  4.263478E-03  0.000000E+00  9.818634E-03 -1.354450E-03 -1.417318E-18  2.284867E-01  0.000000E+00
  9.761510E-01  3.768859E-03  5.000000E-01  9.860093E-01  3.731486E-03  0.000000E+00  1.016815E-02 -1.462482E-03 -1.229420E-17  2.168832E-01  0.000000E+00
  9.794290E-01  3.288196E-03  5.000000E-01  9.893204E-01  3.245969E-03  0.000000E+00  1.056869E-02 -1.578165E-03 -1.072152E-17  2.044954E-01  0.000000E+00
  9.822540E-01  2.858934E-03  5.000000E-01  9.921739E-01  2.812372E-03  0.000000E+00  1.100575E-02 -1.699641E-03  2.851045E-17  1.915735E-01  0.000000E+00
  9.846330E-01  2.486101E-03  5.000000E-01  9.945769E-01  2.435774E-03  0.000000E+00  1.142439E-02 -1.815747E-03  6.889097E-17  1.793668E-01  0.000000E+00
  9.865710E-01  2.174272E-03  5.000000E-01  9.965345E-01  2.120796E-03  0.000000E+00  1.169063E-02 -1.892325E-03 -6.110236E-18  1.667390E-01  0.000000E+00
  9.880740E-01  1.927380E-03  5.000000E-01  9.980527E-01  1.871410E-03  0.000000E+00  1.158636E-02 -1.921334E-03 -2.323002E-16  1.474594E-01  0.000000E+00
  9.891450E-01  1.748639E-03  5.000000E-01  9.991345E-01  1.690865E-03  0.000000E+00  1.178686E-02 -2.059265E-03 -3.711951E-16  1.484185E-01  0.000000E+00
  9.897860E-01  1.640435E-03  5.000000E-01  9.997820E-01  1.581567E-03  0.000000E+00  1.516996E-02 -2.086760E-03 -1.075231E-17  1.958593E-01  0.000000E+00
  9.900000E-01  1.604201E-03  5.000000E-01  9.999981E-01  1.544967E-03  0.000000E+00  1.058516E-02 -4.472023E-03  1.229765E-15 -4.782319E-02  0.000000E+00
  9.900000E-01  1.682911E-03  5.000000E-01  9.999981E-01  1.624473E-03  0.000000E+00  1.059894E-03 -1.486150E-02  2.343633E-15 -1.856890E-01  0.000000E+00
  9.900000E-01  1.761632E-03  5.000000E-01  9.999981E-01  1.703988E-03  0.000000E+00 -5.271060E-04 -1.396565E-02  2.296162E-15 -9.860599E-03  0.000000E+00
  9.900000E-01  1.840352E-03  5.000000E-01  9.999981E-01  1.783503E-03  0.000000E+00 -2.989371E-04  2.412703E-03  1.428450E-15 -1.457116E-02  0.000000E+00
  9.900000E-01  1.919062E-03  5.000000E-01  9.999981E-01  1.863009E-03  0.000000E+00  7.099346E-04  3.833780E-03  2.384143E-16 -1.322664E-01  0.000000E+00
  9.900000E-01  1.997783E-03  5.000000E-01  9.999981E-01  1.942524E-03  0.000000E+00  5.874483E-03 -2.628819E-03 -1.076816E-16 -3.874861E-02  0.000000E+00
  9.900000E-01  1.997783E-03  5.000000E-01  9.999981E-01  1.942524E-03  0.000000E+00  5.874483E-03 -2.628819E-03 -1.076816E-16 -3.874861E-02  0.000000E+00
  9.897900E-01  2.043583E-03  5.000000E-01  9.997860E-01  1.988787E-03  0.000000E+00  7.647257E-03 -1.997126E-03  1.319924E-16  1.026265E-01  0.000000E+00
  9.891580E-01  2.180943E-03  5.000000E-01  9.991476E-01  2.127534E-03  0.000000E+00  4.736812E-03 -9.683859E-04  3.217681E-17  6.053305E-02  0.000000E+00
  9.881040E-01  2.409680E-03  5.000000E-01  9.980830E-01  2.358581E-03  0.000000E+00  3.974647E-03 -8.598871E-04 -5.634205E-17  5.088901E-02  0.000000E+00
  9.866260E-01  2.729493E-03  5.000000E-01  9.965900E-01  2.681624E-03  0.000000E+00  3.786742E-03 -8.234379E-04 -2.626395E-17  5.264526E-02  0.000000E+00
  9.847200E-01  3.139952E-03  5.000000E-01  9.946648E-01  3.096228E-03  0.000000E+00  3.710081E-03 -7.961343E-04  1.798511E-17  4.733063E-02  0.000000E+00
  9.823820E-01  3.640441E-03  5.000000E-01  9.923032E-01  3.601772E-03  0.000000E+00  3.767901E-03 -8.031271E-04  1.958734E-17  3.924184E-02  0.000000E+00
  9.796080E-01  4.230122E-03  5.000000E-01  9.895012E-01  4.197408E-03  0.000000E+00  3.937065E-03 -8.332021E-04  2.885151E-18  3.034871E-02  0.000000E+00
  9.763910E-01  4.907948E-03  5.000000E-01  9.862517E-01  4.882080E-03  0.000000E+00  4.175345E-03 -8.754205E-04 -5.821651E-18  2.013987E-02  0.000000E+00
  9.727270E-01  5.672479E-03  5.000000E-01  9.825507E-01  5.654332E-03  0.000000E+00  4.454922E-03 -9.239062E-04 -5.203986E-18  8.520762E-03  0.000000E+00
  9.686070E-01  6.522070E-03  5.000000E-01  9.783891E-01  6.512502E-03  0.000000E+00  4.759368E-03 -9.747108E-04 -2.482518E-18 -4.267473E-03  0.000000E+00
  9.640240E-01  7.454611E-03  5.000000E-01  9.737598E-01  7.454462E-03  0.000000E+00  5.079740E-03 -1.025449E-03 -8.220175E-19 -1.806722E-02  0.000000E+00
  9.589680E-01  8.467648E-03  5.000000E-01  9.686527E-01  8.477729E-03  0.000000E+00  5.412162E-03 -1.074930E-03 -8.518652E-20 -3.273938E-02  0.000000E+00
  9.534310E-01  9.558238E-03  5.000000E-01  9.630598E-01  9.579333E-03  0.000000E+00  5.754818E-03 -1.122412E-03 -2.255807E-20 -4.814292E-02  0.000000E+00
  9.474030E-01  1.072302E-02  5.000000E-01  9.569709E-01  1.075588E-02  0.000000E+00  6.105651E-03 -1.166900E-03  1.264874E-19 -6.404663E-02  0.000000E+00
  9.408720E-01  1.195820E-02  5.000000E-01  9.503740E-01  1.200354E-02  0.000000E+00  6.461179E-03 -1.207441E-03  3.222456E-19 -8.027268E-02  0.000000E+00
  9.338280E-01  1.325952E-02  5.000000E-01  9.432588E-01  1.331800E-02  0.000000E+00  6.816972E-03 -1.243083E-03  7.634918E-19 -9.665468E-02  0.000000E+00
  9.262600E-01  1.462239E-02  5.000000E-01  9.356144E-01  1.469463E-02  0.000000E+00  7.167785E-03 -1.272581E-03  3.471677E-19 -1.129477E-01  0.000000E+00
  9.181550E-01  1.604168E-02  5.000000E-01  9.274275E-01  1.612825E-02  0.000000E+00  7.507316E-03 -1.294805E-03 -1.025335E-18 -1.289568E-01  0.000000E+00
  9.095020E-01  1.751212E-02  5.000000E-01  9.186872E-01  1.761354E-02  0.000000E+00  7.828480E-03 -1.308655E-03 -1.211771E-18 -1.443722E-01  0.000000E+00
  9.002880E-01  1.902792E-02  5.000000E-01  9.093801E-01  1.914465E-02  0.000000E+00  8.122842E-03 -1.313189E-03 -9.574240E-19 -1.586709E-01  0.000000E+00
  8.905020E-01  2.058321E-02  5.000000E-01  8.994953E-01  2.071565E-02  0.000000E+00  8.380633E-03 -1.308986E-03 -9.484715E-19 -1.715249E-01  0.000000E+00
  8.801320E-01  2.217534E-02  5.000000E-01  8.890205E-01  2.232386E-02  0.000000E+00  8.593628E-03 -1.298464E-03  6.716854E-20 -1.830078E-01  0.000000E+00
  8.691700E-01  2.380547E-02  5.000000E-01  8.779478E-01  2.397045E-02  0.000000E+00  8.758427E-03 -1.284225E-03  1.143094E-18 -1.933400E-01  0.000000E+00
  8.691700E-01  2.380547E-02  5.000000E-01  8.779478E-01  2.397045E-02  0.000000E+00  8.758427E-03 -1.284225E-03  1.143094E-18 -1.933400E-01  0.000000E+00
  8.576080E-01  2.547710E-02  5.000000E-01  8.662691E-01  2.565897E-02  0.000000E+00  8.877210E-03 -1.268609E-03  6.956195E-19 -2.026609E-01  0.000000E+00
  8.454380E-01  2.719623E-02  5.000000E-01  8.539762E-01  2.739545E-02  0.000000E+00  8.956967E-03 -1.254802E-03  2.169440E-19 -2.111760E-01  0.000000E+00
  8.326580E-01  2.897211E-02  5.000000E-01  8.410671E-01  2.918926E-02  0.000000E+00  9.009797E-03 -1.246654E-03  6.413725E-19 -2.194171E-01  0.000000E+00
  8.192630E-01  3.081790E-02  5.000000E-01  8.275368E-01  3.105370E-02  0.000000E+00  9.053906E-03 -1.248618E-03  4.043158E-19 -2.287235E-01  0.000000E+00
  8.052550E-01  3.275090E-02  5.000000E-01  8.133874E-01  3.300622E-02  0.000000E+00  9.114832E-03 -1.264093E-03 -5.713488E-19 -2.410955E-01  0.000000E+00
  7.906370E-01  3.478752E-02  5.000000E-01  7.986217E-01  3.506341E-02  0.000000E+00  9.223213E-03 -1.291312E-03 -1.107048E-18 -2.576868E-01  0.000000E+00
  7.754120E-01  3.692921E-02  5.000000E-01  7.832430E-01  3.722672E-02  0.000000E+00  9.404424E-03 -1.323693E-03  1.324762E-18 -2.781239E-01  0.000000E+00
  7.595880E-01  3.915771E-02  5.000000E-01  7.672592E-01  3.947774E-02  0.000000E+00  9.667448E-03 -1.355479E-03  2.578555E-18 -3.017763E-01  0.000000E+00
  7.431760E-01  4.144859E-02  5.000000E-01  7.506814E-01  4.179174E-02  0.000000E+00  1.000458E-02 -1.382671E-03  1.426416E-18 -3.280630E-01  0.000000E+00
  7.261880E-01  4.377339E-02  5.000000E-01  7.335218E-01  4.414003E-02  0.000000E+00  1.039668E-02 -1.400513E-03  1.015165E-18 -3.556761E-01  0.000000E+00
  7.086430E-01  4.610085E-02  5.000000E-01  7.157997E-01  4.649099E-02  0.000000E+00  1.081711E-02 -1.404494E-03  7.058660E-20 -3.826227E-01  0.000000E+00
  6.905640E-01  4.840020E-02  5.000000E-01  6.975381E-01  4.881356E-02  0.000000E+00  1.123667E-02 -1.393872E-03 -2.192334E-19 -4.074079E-01  0.000000E+00
  6.719770E-01  5.065015E-02  5.000000E-01  6.787634E-01  5.108624E-02  0.000000E+00  1.163215E-02 -1.375048E-03  5.507883E-19 -4.307962E-01  0.000000E+00
  6.529150E-01  5.285061E-02  5.000000E-01  6.595089E-01  5.330891E-02  0.000000E+00  1.199964E-02 -1.355239E-03  1.262359E-18 -4.548407E-01  0.000000E+00
  6.334180E-01  5.500505E-02  5.000000E-01  6.398150E-01  5.548511E-02  0.000000E+00  1.235694E-02 -1.333419E-03  9.414712E-19 -4.805778E-01  0.000000E+00
  6.135280E-01  5.710092E-02  5.000000E-01  6.197241E-01  5.760215E-02  0.000000E+00  1.272744E-02 -1.305212E-03  1.265946E-18 -5.085253E-01  0.000000E+00
  5.932910E-01  5.911993E-02  5.000000E-01  5.992827E-01  5.964155E-02  0.000000E+00  1.312765E-02 -1.267013E-03  1.011683E-18 -5.385910E-01  0.000000E+00
  5.727570E-01  6.103665E-02  5.000000E-01  5.785413E-01  6.157763E-02  0.000000E+00  1.356281E-02 -1.213344E-03  6.781443E-20 -5.687288E-01  0.000000E+00
  5.519810E-01  6.281846E-02  5.000000E-01  5.575555E-01  6.337743E-02  0.000000E+00  1.402213E-02 -1.139425E-03  9.797689E-19 -5.961365E-01  0.000000E+00
  5.310180E-01  6.443172E-02  5.000000E-01  5.363808E-01  6.500699E-02  0.000000E+00  1.447970E-02 -1.051238E-03  8.156110E-19 -6.212123E-01  0.000000E+00
  5.099250E-01  6.587289E-02  5.000000E-01  5.150748E-01  6.646271E-02  0.000000E+00  1.491663E-02 -9.614460E-04 -5.715813E-19 -6.475284E-01  0.000000E+00
  4.887640E-01  6.715582E-02  5.000000E-01  4.937001E-01  6.775860E-02  0.000000E+00  1.534496E-02 -8.671910E-04 -7.338031E-19 -6.760206E-01  0.000000E+00
  4.675910E-01  6.826809E-02  5.000000E-01  4.723133E-01  6.888210E-02  0.000000E+00  1.578917E-02 -7.534655E-04 -5.800301E-19 -7.041420E-01  0.000000E+00
  7.860720E-05 -4.428954E-04  5.000000E-01  7.940615E-05 -5.228027E-04  0.000000E+00 -1.121074E-02  3.622385E-02 -7.184481E-15  7.932239E-01  0.000000E+00
  3.989240E-04 -1.047553E-03  5.000000E-01  4.029579E-04 -1.133567E-03  0.000000E+00 -1.020950E-02  1.600572E-02 -3.901604E-15  1.080947E+00  0.000000E+00
  1.196920E-03 -1.780233E-03  5.000000E-01  1.209013E-03 -1.873646E-03  0.000000E+00 -2.680525E-03  2.806669E-03 -2.192452E-15  1.079432E+00  0.000000E+00
  2.563580E-03 -2.548623E-03  5.000000E-01  2.589475E-03 -2.649796E-03  0.000000E+00  4.651071E-03 -2.018510E-03 -5.670351E-16  9.356329E-01  0.000000E+00
  4.492740E-03 -3.311844E-03  5.000000E-01  4.538118E-03 -3.420725E-03  0.000000E+00  8.998649E-03 -3.105918E-03  6.007589E-16  8.112560E-01  0.000000E+00
  6.952190E-03 -4.066596E-03  5.000000E-01  7.022406E-03 -4.183099E-03  0.000000E+00  1.118179E-02 -3.150505E-03  9.090263E-16  7.248737E-01  0.000000E+00
  9.910730E-03 -4.834536E-03  5.000000E-01  1.001082E-02 -4.958795E-03  0.000000E+00  1.231260E-02 -3.035395E-03  6.804300E-16  6.567941E-01  0.000000E+00
  1.334950E-02 -5.641086E-03  5.000000E-01  1.348432E-02 -5.773491E-03  0.000000E+00  1.298096E-02 -2.873624E-03  3.878461E-16  5.899403E-01  0.000000E+00
  1.728780E-02 -6.464847E-03  5.000000E-01  1.746240E-02 -6.605570E-03  0.000000E+00  1.337942E-02 -2.581229E-03  2.094527E-16  5.177537E-01  0.000000E+00
  2.175590E-02 -7.255921E-03  5.000000E-01  2.197562E-02 -7.404634E-03  0.000000E+00  1.356190E-02 -2.175910E-03  1.113729E-16  4.505199E-01  0.000000E+00
  2.676920E-02 -7.976116E-03  5.000000E-01  2.703955E-02 -8.132102E-03  0.000000E+00  1.359584E-02 -1.757841E-03  4.075825E-17  3.996853E-01  0.000000E+00
  3.232800E-02 -8.613721E-03  5.000000E-01  3.265449E-02 -8.776147E-03  0.000000E+00  1.355374E-02 -1.400613E-03 -1.067357E-17  3.661799E-01  0.000000E+00
  3.842930E-02 -9.174629E-03  5.000000E-01  3.881741E-02 -9.342719E-03  0.000000E+00  1.347863E-02 -1.125358E-03 -3.427571E-17  3.438354E-01  0.000000E+00
  4.507220E-02 -9.673070E-03  5.000000E-01  4.552739E-02 -9.846194E-03  0.000000E+00  1.340278E-02 -9.388990E-04 -3.310195E-17  3.280224E-01  0.000000E+00
  5.225680E-02 -1.013988E-02  5.000000E-01  5.278455E-02 -1.031772E-02  0.000000E+00  1.336244E-02 -8.389644E-04 -2.053221E-17  3.161182E-01  0.000000E+00
  5.998640E-02 -1.060860E-02  5.000000E-01  6.059221E-02 -1.079117E-02  0.000000E+00  1.336522E-02 -7.878074E-04 -8.117444E-18  3.028544E-01  0.000000E+00
  6.827110E-02 -1.108398E-02  5.000000E-01  6.896058E-02 -1.127135E-02  0.000000E+00  1.338635E-02 -7.434403E-04 -3.943044E-19  2.853200E-01  0.000000E+00
  7.712280E-02 -1.155923E-02  5.000000E-01  7.790168E-02 -1.175140E-02  0.000000E+00  1.340374E-02 -6.950330E-04  2.459660E-18  2.663297E-01  0.000000E+00
  8.655260E-02 -1.203028E-02  5.000000E-01  8.742671E-02 -1.222721E-02  0.000000E+00  1.340476E-02 -6.418520E-04  2.933498E-18  2.483689E-01  0.000000E+00
  9.657140E-02 -1.248938E-02  5.000000E-01  9.754669E-02 -1.269095E-02  0.000000E+00  1.337428E-02 -5.746920E-04  2.571044E-18  2.309953E-01  0.000000E+00
  1.071900E-01 -1.291569E-02  5.000000E-01  1.082725E-01 -1.312156E-02  0.000000E+00  1.330464E-02 -4.916862E-04  1.320688E-18  2.144949E-01  0.000000E+00
  1.184180E-01 -1.329412E-02  5.000000E-01  1.196139E-01 -1.350381E-02  0.000000E+00  1.321203E-02 -4.094149E-04  5.558741E-19  2.010984E-01  0.000000E+00
  1.302610E-01 -1.362815E-02  5.000000E-01  1.315765E-01 -1.384122E-02  0.000000E+00  1.312374E-02 -3.436970E-04  3.091622E-19  1.911114E-01  0.000000E+00
  1.427230E-01 -1.392913E-02  5.000000E-01  1.441644E-01 -1.414523E-02  0.000000E+00  1.305655E-02 -2.985797E-04 -8.336010E-20  1.826550E-01  0.000000E+00
  1.427230E-01 -1.392913E-02  5.000000E-01  1.441644E-01 -1.414523E-02  0.000000E+00  1.305655E-02 -2.985797E-04 -8.336010E-20  1.826550E-01  0.000000E+00
  1.558070E-01 -1.421173E-02  5.000000E-01  1.573805E-01 -1.443069E-02  0.000000E+00  1.300573E-02 -2.654349E-04 -1.368958E-19  1.734965E-01  0.000000E+00
  1.695140E-01 -1.447572E-02  5.000000E-01  1.712259E-01 -1.469735E-02  0.000000E+00  1.294825E-02 -2.278898E-04  3.350077E-19  1.624290E-01  0.000000E+00
  1.838420E-01 -1.470427E-02  5.000000E-01  1.856986E-01 -1.492820E-02  0.000000E+00  1.286050E-02 -1.742711E-04  4.389721E-19  1.504525E-01  0.000000E+00
  1.987870E-01 -1.487070E-02  5.000000E-01  2.007946E-01 -1.509631E-02  0.000000E+00  1.273405E-02 -1.024649E-04  1.866996E-19  1.394476E-01  0.000000E+00
  2.143420E-01 -1.494707E-02  5.000000E-01  2.165067E-01 -1.517346E-02  0.000000E+00  1.258544E-02 -2.585704E-05 -1.005724E-19  1.314679E-01  0.000000E+00
  2.304940E-01 -1.493253E-02  5.000000E-01  2.328218E-01 -1.515877E-02  0.000000E+00  1.245212E-02  3.085660E-05 -2.628661E-19  1.278888E-01  0.000000E+00
  2.472290E-01 -1.486352E-02  5.000000E-01  2.497258E-01 -1.508906E-02  0.000000E+00  1.236466E-02  5.671551E-05 -1.951366E-19  1.267895E-01  0.000000E+00
  2.645310E-01 -1.477684E-02  5.000000E-01  2.672025E-01 -1.500151E-02  0.000000E+00  1.232151E-02  6.816379E-05 -4.324017E-19  1.235848E-01  0.000000E+00
  2.823750E-01 -1.467044E-02  5.000000E-01  2.852267E-01 -1.489403E-02  0.000000E+00  1.229551E-02  9.102356E-05 -4.941418E-19  1.158653E-01  0.000000E+00
  3.007320E-01 -1.450860E-02  5.000000E-01  3.037691E-01 -1.473056E-02  0.000000E+00  1.225943E-02  1.361091E-04 -5.033156E-19  1.058826E-01  0.000000E+00
  3.195690E-01 -1.425560E-02  5.000000E-01  3.227964E-01 -1.447500E-02  0.000000E+00  1.219796E-02  1.980180E-04 -4.915066E-19  9.729519E-02  0.000000E+00
  3.388440E-01 -1.388756E-02  5.000000E-01  3.422660E-01 -1.410325E-02  0.000000E+00  1.210283E-02  2.663554E-04 -2.020275E-19  9.190197E-02  0.000000E+00
  3.585140E-01 -1.339658E-02  5.000000E-01  3.621347E-01 -1.360731E-02  0.000000E+00  1.196416E-02  3.345230E-04 -1.433919E-19  8.937195E-02  0.000000E+00
  3.785290E-01 -1.277659E-02  5.000000E-01  3.823518E-01 -1.298106E-02  0.000000E+00  1.176800E-02  4.014017E-04 -2.821546E-19  8.869678E-02  0.000000E+00
  3.988350E-01 -1.201922E-02  5.000000E-01  4.028629E-01 -1.221604E-02  0.000000E+00  1.150610E-02  4.667183E-04 -5.703370E-19  9.005149E-02  0.000000E+00
  4.193750E-01 -1.111735E-02  5.000000E-01  4.236103E-01 -1.130506E-02  0.000000E+00  1.118496E-02  5.334703E-04 -7.862218E-19  9.383867E-02  0.000000E+00
  4.400850E-01 -1.004925E-02  5.000000E-01  4.445295E-01 -1.022617E-02  0.000000E+00  1.083542E-02  6.003028E-04 -1.292918E-18  1.005674E-01  0.000000E+00
  4.609060E-01 -8.812893E-03  5.000000E-01  4.655607E-01 -8.977329E-03  0.000000E+00  1.051727E-02  6.464221E-04 -1.284010E-18  1.119597E-01  0.000000E+00
  4.818030E-01 -7.480945E-03  5.000000E-01  4.866688E-01 -7.631930E-03  0.000000E+00  1.029463E-02  6.430926E-04 -9.379371E-19  1.285182E-01  0.000000E+00
  5.027520E-01 -6.197740E-03  5.000000E-01  5.078293E-01 -6.335766E-03  0.000000E+00  1.018073E-02  5.953871E-04 -7.461404E-19  1.444886E-01  0.000000E+00
  5.237130E-01 -5.034442E-03  5.000000E-01  5.290020E-01 -5.160720E-03  0.000000E+00  1.010996E-02  5.549746E-04 -3.867389E-19  1.506804E-01  0.000000E+00
  5.446170E-01 -3.905491E-03  5.000000E-01  5.501171E-01 -4.020367E-03  0.000000E+00  9.987640E-03  5.662072E-04 -7.073018E-19  1.464433E-01  0.000000E+00
  5.653940E-01 -2.669543E-03  5.000000E-01  5.711040E-01 -2.771937E-03  0.000000E+00  9.768893E-03  6.152895E-04 -6.610214E-19  1.433882E-01  0.000000E+00
  4.675910E-01  6.826809E-02  5.000000E-01  4.723133E-01  6.888210E-02  0.000000E+00  1.578917E-02 -7.534655E-04 -5.800301E-19 -7.041420E-01  0.000000E+00
  4.464640E-01  6.917807E-02  5.000000E-01  4.509729E-01  6.980127E-02  0.000000E+00  1.625334E-02 -6.177877E-04 -1.929527E-19 -7.307052E-01  0.000000E+00
  4.254410E-01  6.987363E-02  5.000000E-01  4.297376E-01  7.050386E-02  0.000000E+00  1.672641E-02 -4.668207E-04 -3.227291E-20 -7.563405E-01  0.000000E+00
  4.045840E-01  7.035047E-02  5.000000E-01  4.086699E-01  7.098551E-02  0.000000E+00  1.719949E-02 -3.027701E-04 -4.004256E-19 -7.815381E-01  0.000000E+00
  3.839530E-01  7.060773E-02  5.000000E-01  3.878306E-01  7.124537E-02  0.000000E+00  1.766978E-02 -1.232137E-04 -2.224221E-19 -8.061112E-01  0.000000E+00
  3.636060E-01  7.064061E-02  5.000000E-01  3.672781E-01  7.127858E-02  0.000000E+00  1.813750E-02  7.544582E-05 -5.191718E-21 -8.290683E-01  0.000000E+00
  3.435960E-01  7.044507E-02  5.000000E-01  3.470660E-01  7.108106E-02  0.000000E+00  1.859959E-02  2.944230E-04 -1.048460E-19 -8.494087E-01  0.000000E+00
  3.239710E-01  7.001866E-02  5.000000E-01  3.272428E-01  7.065035E-02  0.000000E+00  1.904723E-02  5.291869E-04  8.744133E-20 -8.674783E-01  0.000000E+00
  3.047740E-01  6.937116E-02  5.000000E-01  3.078519E-01  6.999631E-02  0.000000E+00  1.947443E-02  7.727045E-04 -3.807503E-20 -8.846981E-01  0.000000E+00
  2.860450E-01  6.851869E-02  5.000000E-01  2.889338E-01  6.913524E-02  0.000000E+00  1.988991E-02  1.028960E-03 -8.430911E-19 -9.008994E-01  0.000000E+00
  2.678190E-01  6.746512E-02  5.000000E-01  2.705237E-01  6.807103E-02  0.000000E+00  2.030408E-02  1.305264E-03 -1.523433E-18 -9.151518E-01  0.000000E+00
  2.501300E-01  6.621572E-02  5.000000E-01  2.526561E-01  6.680900E-02  0.000000E+00  2.071618E-02  1.600532E-03 -1.395523E-18 -9.278613E-01  0.000000E+00
  2.330040E-01  6.478094E-02  5.000000E-01  2.353571E-01  6.535974E-02  0.000000E+00  2.112239E-02  1.912017E-03 -1.185874E-18 -9.399411E-01  0.000000E+00
  2.164660E-01  6.317375E-02  5.000000E-01  2.186521E-01  6.373631E-02  0.000000E+00  2.152418E-02  2.240008E-03 -1.148392E-18 -9.512866E-01  0.000000E+00
  2.005340E-01  6.140809E-02  5.000000E-01  2.025592E-01  6.195282E-02  0.000000E+00  2.193170E-02  2.595089E-03 -5.463704E-19 -9.589611E-01  0.000000E+00
  1.852230E-01  5.948496E-02  5.000000E-01  1.870936E-01  6.001027E-02  0.000000E+00  2.234377E-02  2.982516E-03 -3.775128E-19 -9.605503E-01  0.000000E+00
  1.705440E-01  5.741279E-02  5.000000E-01  1.722663E-01  5.791717E-02  0.000000E+00  2.273965E-02  3.385084E-03 -5.180561E-19 -9.595545E-01  0.000000E+00
  1.565000E-01  5.521489E-02  5.000000E-01  1.580805E-01  5.569707E-02  0.000000E+00  2.311456E-02  3.787588E-03  3.766963E-20 -9.634932E-01  0.000000E+00
  1.430940E-01  5.291869E-02  5.000000E-01  1.445391E-01  5.337768E-02  0.000000E+00  2.350968E-02  4.213191E-03 -4.388803E-19 -9.754450E-01  0.000000E+00
  1.303270E-01  5.053030E-02  5.000000E-01  1.316432E-01  5.096517E-02  0.000000E+00  2.398476E-02  4.730252E-03 -2.502810E-18 -9.864517E-01  0.000000E+00
  1.182110E-01  4.802164E-02  5.000000E-01  1.194048E-01  4.843118E-02  0.000000E+00  2.452453E-02  5.375539E-03 -2.746769E-18 -9.819953E-01  0.000000E+00
  1.067560E-01  4.537768E-02  5.000000E-01  1.078341E-01  4.576052E-02  0.000000E+00  2.500279E-02  6.104671E-03 -1.379681E-18 -9.533013E-01  0.000000E+00
  9.596750E-02  4.260343E-02  5.000000E-01  9.693669E-02  4.295825E-02  0.000000E+00  2.524492E-02  6.779924E-03 -2.722280E-18 -9.083611E-01  0.000000E+00
  8.582800E-02  3.976276E-02  5.000000E-01  8.669479E-02  4.008889E-02  0.000000E+00  2.518450E-02  7.278926E-03 -5.029669E-18 -8.654632E-01  0.000000E+00
  8.582800E-02  3.976276E-02  5.000000E-01  8.669479E-02  4.008889E-02  0.000000E+00  2.518450E-02  7.278926E-03 -5.029669E-18 -8.654632E-01  0.000000E+00
  7.631050E-02  3.692546E-02  5.000000E-01  7.708117E-02  3.722294E-02  0.000000E+00  2.495131E-02  7.671665E-03 -6.641360E-18 -8.285844E-01  0.000000E+00
  6.740780E-02  3.410467E-02  5.000000E-01  6.808856E-02  3.437366E-02  0.000000E+00  2.470483E-02  8.088711E-03 -6.391105E-18 -7.909448E-01  0.000000E+00
  5.911740E-02  3.130238E-02  5.000000E-01  5.971444E-02  3.154307E-02  0.000000E+00  2.449716E-02  8.553292E-03  2.764800E-18 -7.497906E-01  0.000000E+00
  5.143150E-02  2.853283E-02  5.000000E-01  5.195092E-02  2.874555E-02  0.000000E+00  2.430818E-02  9.033916E-03  2.633121E-17 -7.058366E-01  0.000000E+00
  4.433770E-02  2.581591E-02  5.000000E-01  4.478548E-02  2.600119E-02  0.000000E+00  2.410182E-02  9.506876E-03  6.844931E-17 -6.616225E-01  0.000000E+00
  3.782240E-02  2.317067E-02  5.000000E-01  3.820438E-02  2.332924E-02  0.000000E+00  2.385902E-02  9.974495E-03  1.135713E-16 -6.209189E-01  0.000000E+00
  3.187460E-02  2.061076E-02  5.000000E-01  3.219651E-02  2.074348E-02  0.000000E+00  2.359218E-02  1.046254E-02  1.232540E-16 -5.866854E-01  0.000000E+00
  2.648400E-02  1.814793E-02  5.000000E-01  2.675147E-02  1.825577E-02  0.000000E+00  2.333467E-02  1.103768E-02  4.598189E-17 -5.529101E-01  0.000000E+00
  2.164990E-02  1.578372E-02  5.000000E-01  2.186855E-02  1.586768E-02  0.000000E+00  2.305813E-02  1.175363E-02 -1.912061E-16 -5.027108E-01  0.000000E+00
  1.737670E-02  1.351822E-02  5.000000E-01  1.755219E-02  1.357931E-02  0.000000E+00  2.260620E-02  1.246900E-02 -6.591030E-16 -4.302137E-01  0.000000E+00
  1.364080E-02  1.137588E-02  5.000000E-01  1.377856E-02  1.141533E-02  0.000000E+00  2.183737E-02  1.290384E-02 -1.296611E-15 -3.545482E-01  0.000000E+00
  1.039090E-02  9.394762E-03  5.000000E-01  1.049584E-02  9.414206E-03  0.000000E+00  2.082126E-02  1.300888E-02 -1.727924E-15 -3.002385E-01  0.000000E+00
  7.586340E-03  7.596684E-03  5.000000E-01  7.662960E-03  7.597969E-03  0.000000E+00  1.981868E-02  1.314580E-02 -1.446113E-15 -2.724232E-01  0.000000E+00
  5.226210E-03  5.976516E-03  5.000000E-01  5.278995E-03  5.961439E-03  0.000000E+00  1.913490E-02  1.385969E-02 -2.937077E-16 -2.623253E-01  0.000000E+00
  3.324300E-03  4.524434E-03  5.000000E-01  3.357878E-03  4.494693E-03  0.000000E+00  1.904869E-02  1.574799E-02  1.584305E-15 -2.616358E-01  0.000000E+00
  1.883580E-03  3.242671E-03  5.000000E-01  1.902608E-03  3.199984E-03  0.000000E+00  1.958972E-02  1.966057E-02  3.826524E-15 -2.466769E-01  0.000000E+00
  8.951490E-04  2.143820E-03  5.000000E-01  9.041943E-04  2.090037E-03  0.000000E+00  1.976257E-02  2.632216E-02  4.340880E-15 -1.666082E-01  0.000000E+00
  3.201820E-04  1.252496E-03  5.000000E-01  3.234206E-04  1.189711E-03  0.000000E+00  1.719413E-02  3.449762E-02 -1.298601E-15  1.926473E-02  0.000000E+00
  6.852390E-05  5.988324E-04  5.000000E-01  6.922101E-05  5.294456E-04  0.000000E+00  1.089079E-02  3.989730E-02 -1.402269E-14  2.438261E-01  0.000000E+00
  4.217600E-06  2.052338E-04  5.000000E-01  4.265277E-06  1.318720E-04  0.000000E+00  4.099358E-03  4.142498E-02 -2.536327E-14  3.229374E-01  0.000000E+00
 -5.032520E-09  7.468029E-05  5.000000E-01  0.000000E+00  0.000000E+00  0.000000E+00 -6.895770E-04  4.740357E-02 -2.465408E-14  2.794062E-01  0.000000E+00
  5.154440E-06 -5.624425E-05  5.000000E-01  5.211579E-06 -1.322468E-04  0.000000E+00 -5.889518E-03  5.011627E-02 -1.494785E-14  4.163763E-01  0.000000E+00