 Title = "ADflow Slice Data"
Variables =  "CoordinateX"  "CoordinateY"  "CoordinateZ"  "XoC"  "YoC"  "ZoC" "VelocityX" "VelocityY" "VelocityZ" "CoefPressure" "Mach" 
Zone T= "Slice_0001 None Absolute Regular z = 0.50000000"
 Nodes =          192  Elements=          184  ZONETYPE=FELINESEG
 DATAPACKING=POINT
  5.653940E-01  6.598476E-04  5.000000E-01  5.711039E-01  6.132881E-04  0.000000E+00  9.112375E-03  6.966222E-04 -5.697414E-19  1.778788E-01  0.000000E+00
  5.859770E-01  2.362142E-03  5.000000E-01  5.918948E-01  2.332774E-03  0.000000E+00  8.682415E-03  7.553212E-04 -9.666422E-19  1.902245E-01  0.000000E+00
  6.063060E-01  4.224178E-03  5.000000E-01  6.124291E-01  4.213615E-03  0.000000E+00  8.194698E-03  7.682702E-04 -1.390082E-18  2.140937E-01  0.000000E+00
  6.263240E-01  6.144708E-03  5.000000E-01  6.326493E-01  6.153540E-03  0.000000E+00  7.727750E-03  7.350299E-04 -1.609505E-18  2.414027E-01  0.000000E+00
  6.459860E-01  7.996777E-03  5.000000E-01  6.525099E-01  8.024314E-03  0.000000E+00  7.337264E-03  6.650543E-04  9.815638E-19  2.675271E-01  0.000000E+00
  6.652460E-01  9.670117E-03  5.000000E-01  6.719644E-01  9.714552E-03  0.000000E+00  7.042828E-03  5.770014E-04  5.549520E-19  2.893082E-01  0.000000E+00
  6.840650E-01  1.111307E-02  5.000000E-01  6.909734E-01  1.117208E-02  0.000000E+00  6.829099E-03  4.918874E-04 -1.106936E-18  3.045901E-01  0.000000E+00
  7.024070E-01  1.234537E-02  5.000000E-01  7.095007E-01  1.241683E-02  0.000000E+00  6.668111E-03  4.184742E-04 -2.936130E-19  3.148392E-01  0.000000E+00
  7.202400E-01  1.338527E-02  5.000000E-01  7.275137E-01  1.346723E-02  0.000000E+00  6.540779E-03  3.523774E-04  5.456824E-19  3.235990E-01  0.000000E+00
  7.375350E-01  1.423990E-02  5.000000E-01  7.449834E-01  1.433049E-02  0.000000E+00  6.439642E-03  2.885781E-04 -1.263545E-20  3.321565E-01  0.000000E+00
  7.542690E-01  1.491185E-02  5.000000E-01  7.618864E-01  1.500922E-02  0.000000E+00  6.366280E-03  2.243390E-04  1.349209E-20  3.401128E-01  0.000000E+00
  7.704220E-01  1.540049E-02  5.000000E-01  7.782025E-01  1.550279E-02  0.000000E+00  6.328984E-03  1.576616E-04  2.628181E-19  3.467823E-01  0.000000E+00
  7.859770E-01  1.570458E-02  5.000000E-01  7.939146E-01  1.580996E-02  0.000000E+00  6.341299E-03  8.351251E-05 -1.233495E-19  3.521217E-01  0.000000E+00
  8.009220E-01  1.580772E-02  5.000000E-01  8.090106E-01  1.591414E-02  0.000000E+00  6.417414E-03 -3.893209E-06 -3.146820E-20  3.562418E-01  0.000000E+00
  8.152480E-01  1.569307E-02  5.000000E-01  8.234812E-01  1.579833E-02  0.000000E+00  6.559465E-03 -1.003618E-04 -1.110920E-19  3.573488E-01  0.000000E+00
  8.289490E-01  1.538462E-02  5.000000E-01  8.373206E-01  1.548676E-02  0.000000E+00  6.752928E-03 -1.955020E-04 -3.106515E-19  3.539849E-01  0.000000E+00
  8.420260E-01  1.492425E-02  5.000000E-01  8.505297E-01  1.502174E-02  0.000000E+00  6.976426E-03 -2.837427E-04 -2.956159E-19  3.474502E-01  0.000000E+00
  8.544790E-01  1.435230E-02  5.000000E-01  8.631084E-01  1.444402E-02  0.000000E+00  7.209114E-03 -3.631607E-04 -4.859164E-19  3.395149E-01  0.000000E+00
  8.663160E-01  1.370519E-02  5.000000E-01  8.750650E-01  1.379037E-02  0.000000E+00  7.432077E-03 -4.324264E-04 -7.053618E-19  3.310763E-01  0.000000E+00
  8.775420E-01  1.301370E-02  5.000000E-01  8.864043E-01  1.309191E-02  0.000000E+00  7.629637E-03 -4.901980E-04 -4.174158E-19  3.226399E-01  0.000000E+00
  8.881660E-01  1.230352E-02  5.000000E-01  8.971356E-01  1.237455E-02  0.000000E+00  7.791687E-03 -5.357223E-04  8.704515E-20  3.145917E-01  0.000000E+00
  8.981970E-01  1.159496E-02  5.000000E-01  9.072679E-01  1.165883E-02  0.000000E+00  7.917045E-03 -5.723741E-04  3.049001E-19  3.074877E-01  0.000000E+00
  9.076460E-01  1.089671E-02  5.000000E-01  9.168124E-01  1.095353E-02  0.000000E+00  8.016143E-03 -6.091269E-04 -2.391414E-20  3.020667E-01  0.000000E+00
  9.165220E-01  1.020416E-02  5.000000E-01  9.257780E-01  1.025399E-02  0.000000E+00  8.106038E-03 -6.530736E-04  1.651673E-20  2.979942E-01  0.000000E+00
  9.165220E-01  1.020416E-02  5.000000E-01  9.257780E-01  1.025399E-02  0.000000E+00  8.106038E-03 -6.530736E-04  1.651673E-20  2.979942E-01  0.000000E+00
  9.248360E-01  9.513227E-03  5.000000E-01  9.341760E-01  9.556079E-03  0.000000E+00  8.201383E-03 -7.053208E-04  3.211523E-19  2.940038E-01  0.000000E+00
  9.325990E-01  8.823223E-03  5.000000E-01  9.420174E-01  8.859106E-03  0.000000E+00  8.311902E-03 -7.652755E-04  4.645142E-19  2.894184E-01  0.000000E+00
  9.398210E-01  8.135589E-03  5.000000E-01  9.493123E-01  8.164527E-03  0.000000E+00  8.444126E-03 -8.325520E-04  2.867952E-19  2.841229E-01  0.000000E+00
  9.465130E-01  7.453533E-03  5.000000E-01  9.560719E-01  7.475584E-03  0.000000E+00  8.602282E-03 -9.067814E-04  2.652810E-19  2.780426E-01  0.000000E+00
  9.526870E-01  6.781572E-03  5.000000E-01  9.623082E-01  6.796836E-03  0.000000E+00  8.788458E-03 -9.875798E-04  1.981089E-19  2.710811E-01  0.000000E+00
  9.583540E-01  6.125159E-03  5.000000E-01  9.680325E-01  6.133794E-03  0.000000E+00  9.003139E-03 -1.074510E-03 -1.116026E-19  2.631834E-01  0.000000E+00
  9.635240E-01  5.490369E-03  5.000000E-01  9.732547E-01  5.492593E-03  0.000000E+00  9.246113E-03 -1.166944E-03 -3.607197E-19  2.543112E-01  0.000000E+00
  9.682080E-01  4.883580E-03  5.000000E-01  9.779860E-01  4.879676E-03  0.000000E+00  9.518426E-03 -1.264589E-03 -5.572951E-19  2.445024E-01  0.000000E+00
  9.724140E-01  4.311263E-03  5.000000E-01  9.822345E-01  4.301579E-03  0.000000E+00  9.824867E-03 -1.367590E-03 -7.172794E-19  2.338348E-01  0.000000E+00
  9.761510E-01  3.779766E-03  5.000000E-01  9.860092E-01  3.764715E-03  0.000000E+00  1.017396E-02 -1.476117E-03 -9.459039E-19  2.223412E-01  0.000000E+00
  9.794290E-01  3.295083E-03  5.000000E-01  9.893203E-01  3.275137E-03  0.000000E+00  1.057063E-02 -1.590477E-03 -1.010108E-18  2.100971E-01  0.000000E+00
  9.822540E-01  2.862850E-03  5.000000E-01  9.921738E-01  2.838539E-03  0.000000E+00  1.099757E-02 -1.708525E-03 -3.997678E-19  1.974050E-01  0.000000E+00
  9.846330E-01  2.488111E-03  5.000000E-01  9.945769E-01  2.460015E-03  0.000000E+00  1.139603E-02 -1.818683E-03  1.052286E-18  1.855358E-01  0.000000E+00
  9.865710E-01  2.175280E-03  5.000000E-01  9.965344E-01  2.144025E-03  0.000000E+00  1.162829E-02 -1.886629E-03  2.073429E-18  1.733777E-01  0.000000E+00
  9.880740E-01  1.928035E-03  5.000000E-01  9.980526E-01  1.894283E-03  0.000000E+00  1.147515E-02 -1.904396E-03 -2.679370E-18  1.548202E-01  0.000000E+00
  9.891450E-01  1.749305E-03  5.000000E-01  9.991344E-01  1.713748E-03  0.000000E+00  1.160187E-02 -2.025440E-03 -2.578426E-17  1.565188E-01  0.000000E+00
  9.897860E-01  1.641220E-03  5.000000E-01  9.997819E-01  1.604572E-03  0.000000E+00  1.483114E-02 -2.035029E-03 -7.270468E-17  2.036907E-01  0.000000E+00
  9.900000E-01  1.605047E-03  5.000000E-01  9.999981E-01  1.568033E-03  0.000000E+00  1.032926E-02 -4.482489E-03 -7.707504E-17 -3.406591E-02  0.000000E+00
  9.900000E-01  1.683757E-03  5.000000E-01  9.999981E-01  1.647538E-03  0.000000E+00  1.032795E-03 -1.480737E-02  5.327260E-18 -1.676156E-01  0.000000E+00
  9.900000E-01  1.762477E-03  5.000000E-01  9.999981E-01  1.727053E-03  0.000000E+00 -5.184249E-04 -1.409634E-02  8.587034E-17  4.710537E-03  0.000000E+00
  9.900000E-01  1.841197E-03  5.000000E-01  9.999981E-01  1.806568E-03  0.000000E+00 -2.800000E-04  1.655973E-03  1.035218E-16 -1.589890E-05  0.000000E+00
  9.900000E-01  1.919907E-03  5.000000E-01  9.999981E-01  1.886073E-03  0.000000E+00  6.727730E-04  3.247070E-03  1.297960E-16 -1.109889E-01  0.000000E+00
  9.900000E-01  1.998627E-03  5.000000E-01  9.999981E-01  1.965588E-03  0.000000E+00  5.474477E-03 -2.594288E-03  1.637537E-16 -2.136430E-02  0.000000E+00
  9.900000E-01  1.998627E-03  5.000000E-01  9.999981E-01  1.965588E-03  0.000000E+00  5.474477E-03 -2.594288E-03  1.637537E-16 -2.136430E-02  0.000000E+00
  9.897900E-01  2.044677E-03  5.000000E-01  9.997859E-01  2.012103E-03  0.000000E+00  7.049952E-03 -1.859721E-03  1.171291E-16  1.121655E-01  0.000000E+00
  9.891580E-01  2.182940E-03  5.000000E-01  9.991476E-01  2.151762E-03  0.000000E+00  4.240862E-03 -8.704969E-04  3.978250E-17  7.211000E-02  0.000000E+00
  9.881040E-01  2.413694E-03  5.000000E-01  9.980829E-01  2.384846E-03  0.000000E+00  3.456416E-03 -7.552330E-04  4.006944E-18  6.335836E-02  0.000000E+00
  9.866260E-01  2.737408E-03  5.000000E-01  9.965900E-01  2.711830E-03  0.000000E+00  3.209929E-03 -7.086939E-04 -3.700880E-18  6.617471E-02  0.000000E+00
  9.847200E-01  3.154734E-03  5.000000E-01  9.946647E-01  3.133371E-03  0.000000E+00  3.064294E-03 -6.704659E-04 -2.764201E-18  6.242649E-02  0.000000E+00
  9.823820E-01  3.666447E-03  5.000000E-01  9.923031E-01  3.650252E-03  0.000000E+00  3.045938E-03 -6.659701E-04 -1.658052E-18  5.598783E-02  0.000000E+00
  9.796080E-01  4.273404E-03  5.000000E-01  9.895011E-01  4.263338E-03  0.000000E+00  3.135583E-03 -6.857527E-04 -1.162684E-18  4.883130E-02  0.000000E+00
  9.763910E-01  4.976553E-03  5.000000E-01  9.862516E-01  4.973588E-03  0.000000E+00  3.293293E-03 -7.195706E-04 -7.381307E-19  4.045001E-02  0.000000E+00
  9.727270E-01  5.776723E-03  5.000000E-01  9.825506E-01  5.781839E-03  0.000000E+00  3.492583E-03 -7.619738E-04 -3.366941E-19  3.064398E-02  0.000000E+00
  9.686070E-01  6.674789E-03  5.000000E-01  9.783890E-01  6.688975E-03  0.000000E+00  3.718615E-03 -8.095503E-04 -4.071828E-19  1.952901E-02  0.000000E+00
  9.640240E-01  7.671362E-03  5.000000E-01  9.737597E-01  7.695613E-03  0.000000E+00  3.964542E-03 -8.604807E-04 -4.506955E-19  7.140422E-03  0.000000E+00
  9.589680E-01  8.766834E-03  5.000000E-01  9.686527E-01  8.802147E-03  0.000000E+00  4.229174E-03 -9.142165E-04  1.057208E-19 -6.519620E-03  0.000000E+00
  9.534310E-01  9.961146E-03  5.000000E-01  9.630598E-01  1.000852E-02  0.000000E+00  4.514113E-03 -9.707155E-04  4.569900E-19 -2.146335E-02  0.000000E+00
  9.474030E-01  1.125373E-02  5.000000E-01  9.569709E-01  1.131416E-02  0.000000E+00  4.821369E-03 -1.029704E-03  6.924383E-19 -3.762662E-02  0.000000E+00
  9.408720E-01  1.264331E-02  5.000000E-01  9.503739E-01  1.271777E-02  0.000000E+00  5.151998E-03 -1.090770E-03  1.426175E-18 -5.499618E-02  0.000000E+00
  9.338280E-01  1.412770E-02  5.000000E-01  9.432588E-01  1.421715E-02  0.000000E+00  5.506202E-03 -1.153236E-03  1.221263E-18 -7.355893E-02  0.000000E+00
  9.262600E-01  1.570365E-02  5.000000E-01  9.356144E-01  1.580902E-02  0.000000E+00  5.883159E-03 -1.215749E-03 -1.670196E-20 -9.321978E-02  0.000000E+00
  9.181550E-01  1.736637E-02  5.000000E-01  9.274275E-01  1.748853E-02  0.000000E+00  6.280573E-03 -1.276554E-03 -5.980467E-19 -1.139064E-01  0.000000E+00
  9.095020E-01  1.910960E-02  5.000000E-01  9.186871E-01  1.924937E-02  0.000000E+00  6.694439E-03 -1.333295E-03  4.207654E-19 -1.353411E-01  0.000000E+00
  9.002880E-01  2.092487E-02  5.000000E-01  9.093801E-01  2.108297E-02  0.000000E+00  7.117684E-03 -1.383057E-03  1.826196E-18 -1.569018E-01  0.000000E+00
  8.905020E-01  2.280168E-02  5.000000E-01  8.994952E-01  2.297873E-02  0.000000E+00  7.539671E-03 -1.423938E-03  1.350466E-18 -1.780896E-01  0.000000E+00
  8.801320E-01  2.473145E-02  5.000000E-01  8.890205E-01  2.492799E-02  0.000000E+00  7.949202E-03 -1.455829E-03  1.180791E-20 -1.987990E-01  0.000000E+00
  8.691700E-01  2.670821E-02  5.000000E-01  8.779478E-01  2.692471E-02  0.000000E+00  8.338089E-03 -1.478934E-03 -4.677138E-19 -2.189771E-01  0.000000E+00
  8.691700E-01  2.670821E-02  5.000000E-01  8.779478E-01  2.692471E-02  0.000000E+00  8.338089E-03 -1.478934E-03 -4.677138E-19 -2.189771E-01  0.000000E+00
  8.576080E-01  2.872627E-02  5.000000E-01  8.662690E-01  2.896315E-02  0.000000E+00  8.701585E-03 -1.493084E-03 -6.968207E-19 -2.384342E-01  0.000000E+00
  8.454380E-01  3.077991E-02  5.000000E-01  8.539761E-01  3.103753E-02  0.000000E+00  9.037213E-03 -1.498855E-03 -6.330199E-19 -2.570181E-01  0.000000E+00
  8.326580E-01  3.286393E-02  5.000000E-01  8.410671E-01  3.314261E-02  0.000000E+00  9.344734E-03 -1.497615E-03  8.992839E-19 -2.745636E-01  0.000000E+00
  8.192630E-01  3.497442E-02  5.000000E-01  8.275368E-01  3.527440E-02  0.000000E+00  9.626159E-03 -1.491927E-03  6.586887E-19 -2.912235E-01  0.000000E+00
  8.052550E-01  3.711046E-02  5.000000E-01  8.133873E-01  3.743202E-02  0.000000E+00  9.887054E-03 -1.485040E-03 -4.545684E-19 -3.077066E-01  0.000000E+00
  7.906370E-01  3.927333E-02  5.000000E-01  7.986217E-01  3.961673E-02  0.000000E+00  1.013753E-02 -1.478450E-03 -1.113970E-18 -3.248332E-01  0.000000E+00
  7.754120E-01  4.146181E-02  5.000000E-01  7.832429E-01  4.182731E-02  0.000000E+00  1.038897E-02 -1.471028E-03 -9.427221E-19 -3.431056E-01  0.000000E+00
  7.595880E-01  4.366898E-02  5.000000E-01  7.672591E-01  4.405677E-02  0.000000E+00  1.064835E-02 -1.458587E-03  2.225229E-19 -3.621324E-01  0.000000E+00
  7.431760E-01  4.587686E-02  5.000000E-01  7.506814E-01  4.628695E-02  0.000000E+00  1.091147E-02 -1.436877E-03 -1.611014E-18 -3.810102E-01  0.000000E+00
  7.261880E-01  4.806655E-02  5.000000E-01  7.335218E-01  4.849875E-02  0.000000E+00  1.116226E-02 -1.404360E-03 -2.050038E-18 -3.987540E-01  0.000000E+00
  7.086430E-01  5.022118E-02  5.000000E-01  7.157996E-01  5.067514E-02  0.000000E+00  1.137871E-02 -1.361342E-03 -3.448642E-19 -4.140409E-01  0.000000E+00
  6.905640E-01  5.232861E-02  5.000000E-01  6.975380E-01  5.280385E-02  0.000000E+00  1.153893E-02 -1.311514E-03  5.867622E-19 -4.261262E-01  0.000000E+00
  6.719770E-01  5.438819E-02  5.000000E-01  6.787633E-01  5.488423E-02  0.000000E+00  1.162967E-02 -1.263798E-03  1.761754E-18 -4.361779E-01  0.000000E+00
  6.529150E-01  5.641879E-02  5.000000E-01  6.595088E-01  5.693535E-02  0.000000E+00  1.165794E-02 -1.227183E-03  1.138892E-18 -4.465172E-01  0.000000E+00
  6.334180E-01  5.844635E-02  5.000000E-01  6.398149E-01  5.898338E-02  0.000000E+00  1.165422E-02 -1.204609E-03  5.714787E-19 -4.588907E-01  0.000000E+00
  6.135280E-01  6.048971E-02  5.000000E-01  6.197241E-01  6.104737E-02  0.000000E+00  1.166271E-02 -1.196278E-03 -6.374714E-20 -4.746710E-01  0.000000E+00
  5.932910E-01  6.256243E-02  5.000000E-01  5.992827E-01  6.314103E-02  0.000000E+00  1.173279E-02 -1.202908E-03 -3.196330E-19 -4.954660E-01  0.000000E+00
  5.727570E-01  6.466994E-02  5.000000E-01  5.785413E-01  6.526982E-02  0.000000E+00  1.191561E-02 -1.224909E-03  7.208194E-19 -5.234676E-01  0.000000E+00
  5.519810E-01  6.680848E-02  5.000000E-01  5.575555E-01  6.742996E-02  0.000000E+00  1.226220E-02 -1.259501E-03  5.669143E-19 -5.614309E-01  0.000000E+00
  5.310180E-01  6.895686E-02  5.000000E-01  5.363808E-01  6.960004E-02  0.000000E+00  1.281919E-02 -1.292749E-03  3.691996E-20 -6.111724E-01  0.000000E+00
  5.099250E-01  7.104898E-02  5.000000E-01  5.150748E-01  7.171328E-02  0.000000E+00  1.361038E-02 -1.305067E-03 -3.455936E-19 -6.739097E-01  0.000000E+00
  4.887640E-01  7.300860E-02  5.000000E-01  4.937001E-01  7.369270E-02  0.000000E+00  1.462574E-02 -1.268859E-03 -1.286739E-19 -7.460843E-01  0.000000E+00
  4.675910E-01  7.472941E-02  5.000000E-01  4.723132E-01  7.543089E-02  0.000000E+00  1.580275E-02 -1.141658E-03  5.855242E-19 -8.141318E-01  0.000000E+00
  7.860720E-05 -6.364967E-04  5.000000E-01  7.940614E-05 -6.961481E-04  0.000000E+00 -5.405806E-03  2.287406E-02 -1.755331E-16  8.639242E-01  0.000000E+00
  3.989240E-04 -1.451457E-03  5.000000E-01  4.029578E-04 -1.519338E-03  0.000000E+00 -5.256662E-03  1.097673E-02 -1.403563E-16  1.065222E+00  0.000000E+00
  1.196920E-03 -2.455176E-03  5.000000E-01  1.209013E-03 -2.533194E-03  0.000000E+00 -1.047436E-03  1.783326E-03 -9.033332E-17  1.084153E+00  0.000000E+00
  2.563580E-03 -3.526341E-03  5.000000E-01  2.589475E-03 -3.615177E-03  0.000000E+00  4.116362E-03 -2.525174E-03 -4.496136E-17  9.731917E-01  0.000000E+00
  4.492740E-03 -4.607224E-03  5.000000E-01  4.538118E-03 -4.706975E-03  0.000000E+00  7.862702E-03 -3.856920E-03 -1.134411E-17  8.522184E-01  0.000000E+00
  6.952190E-03 -5.688933E-03  5.000000E-01  7.022406E-03 -5.799610E-03  0.000000E+00  1.014143E-02 -4.102285E-03  4.320969E-18  7.578737E-01  0.000000E+00
  9.910730E-03 -6.795713E-03  5.000000E-01  1.001082E-02 -6.917567E-03  0.000000E+00  1.158020E-02 -4.110003E-03  5.523751E-18  6.821752E-01  0.000000E+00
  1.334950E-02 -7.957148E-03  5.000000E-01  1.348432E-02 -8.090731E-03  0.000000E+00  1.260943E-02 -4.015595E-03  2.394062E-18  6.068629E-01  0.000000E+00
  1.728780E-02 -9.142937E-03  5.000000E-01  1.746240E-02 -9.288495E-03  0.000000E+00  1.334607E-02 -3.710087E-03 -1.329831E-18  5.223678E-01  0.000000E+00
  2.175590E-02 -1.028669E-02  5.000000E-01  2.197562E-02 -1.044380E-02  0.000000E+00  1.378878E-02 -3.209339E-03 -3.639721E-18  4.410675E-01  0.000000E+00
  2.676920E-02 -1.133783E-02  5.000000E-01  2.703955E-02 -1.150556E-02  0.000000E+00  1.398917E-02 -2.653486E-03 -2.255336E-18  3.787235E-01  0.000000E+00
  3.232800E-02 -1.228039E-02  5.000000E-01  3.265449E-02 -1.245764E-02  0.000000E+00  1.404081E-02 -2.157870E-03 -4.554760E-20  3.380729E-01  0.000000E+00
  3.842930E-02 -1.312122E-02  5.000000E-01  3.881740E-02 -1.330695E-02  0.000000E+00  1.401698E-02 -1.763950E-03  1.073819E-18  3.118700E-01  0.000000E+00
  4.507220E-02 -1.387768E-02  5.000000E-01  4.552739E-02 -1.407106E-02  0.000000E+00  1.397582E-02 -1.487139E-03  8.485096E-19  2.940934E-01  0.000000E+00
  5.225680E-02 -1.458777E-02  5.000000E-01  5.278455E-02 -1.478832E-02  0.000000E+00  1.397329E-02 -1.326559E-03  1.222157E-19  2.811037E-01  0.000000E+00
  5.998640E-02 -1.529197E-02  5.000000E-01  6.059221E-02 -1.549963E-02  0.000000E+00  1.402340E-02 -1.231574E-03 -2.588230E-19  2.659802E-01  0.000000E+00
  6.827110E-02 -1.599383E-02  5.000000E-01  6.896058E-02 -1.620857E-02  0.000000E+00  1.409589E-02 -1.144956E-03 -4.261581E-19  2.450273E-01  0.000000E+00
  7.712280E-02 -1.668201E-02  5.000000E-01  7.790167E-02 -1.690371E-02  0.000000E+00  1.416217E-02 -1.051257E-03 -7.973745E-19  2.220024E-01  0.000000E+00
  8.655260E-02 -1.734822E-02  5.000000E-01  8.742670E-02 -1.757664E-02  0.000000E+00  1.420376E-02 -9.488254E-04 -9.068338E-19  2.002403E-01  0.000000E+00
  9.657140E-02 -1.797917E-02  5.000000E-01  9.754668E-02 -1.821396E-02  0.000000E+00  1.419704E-02 -8.250630E-04 -4.064175E-19  1.793217E-01  0.000000E+00
  1.071900E-01 -1.854505E-02  5.000000E-01  1.082725E-01 -1.878556E-02  0.000000E+00  1.412665E-02 -6.776712E-04  2.271334E-19  1.597813E-01  0.000000E+00
  1.184180E-01 -1.902296E-02  5.000000E-01  1.196139E-01 -1.926829E-02  0.000000E+00  1.400717E-02 -5.291524E-04  2.660488E-19  1.446535E-01  0.000000E+00
  1.302610E-01 -1.941244E-02  5.000000E-01  1.315765E-01 -1.966171E-02  0.000000E+00  1.386740E-02 -4.008267E-04  5.963972E-20  1.345213E-01  0.000000E+00
  1.427230E-01 -1.972237E-02  5.000000E-01  1.441644E-01 -1.997477E-02  0.000000E+00  1.372517E-02 -2.985329E-04 -3.418566E-20  1.271816E-01  0.000000E+00
  1.427230E-01 -1.972237E-02  5.000000E-01  1.441644E-01 -1.997477E-02  0.000000E+00  1.372517E-02 -2.985329E-04 -3.418566E-20  1.271816E-01  0.000000E+00
  1.558070E-01 -1.996603E-02  5.000000E-01  1.573805E-01 -2.022089E-02  0.000000E+00  1.357778E-02 -2.127490E-04 -1.295458E-19  1.200213E-01  0.000000E+00
  1.695140E-01 -2.014055E-02  5.000000E-01  1.712259E-01 -2.039717E-02  0.000000E+00  1.341014E-02 -1.265058E-04 -4.989601E-21  1.116999E-01  0.000000E+00
  1.838420E-01 -2.022810E-02  5.000000E-01  1.856986E-01 -2.048561E-02  0.000000E+00  1.321806E-02 -3.233383E-05 -5.774420E-20  1.034229E-01  0.000000E+00
  1.987870E-01 -2.020886E-02  5.000000E-01  2.007946E-01 -2.046617E-02  0.000000E+00  1.302294E-02  6.287257E-05 -2.574068E-20  9.731326E-02  0.000000E+00
  2.143420E-01 -2.007711E-02  5.000000E-01  2.165067E-01 -2.033309E-02  0.000000E+00  1.286887E-02  1.411510E-04  9.068913E-22  9.471710E-02  0.000000E+00
  2.304940E-01 -1.985849E-02  5.000000E-01  2.328218E-01 -2.011226E-02  0.000000E+00  1.279664E-02  1.891205E-04  5.556633E-20  9.435067E-02  0.000000E+00
  2.472290E-01 -1.959025E-02  5.000000E-01  2.497258E-01 -1.984132E-02  0.000000E+00  1.281131E-02  2.117676E-04  4.094443E-19  9.266576E-02  0.000000E+00
  2.645310E-01 -1.929659E-02  5.000000E-01  2.672025E-01 -1.954469E-02  0.000000E+00  1.286456E-02  2.366644E-04  6.092852E-19  8.597419E-02  0.000000E+00
  2.823750E-01 -1.894487E-02  5.000000E-01  2.852267E-01 -1.918942E-02  0.000000E+00  1.286764E-02  2.997366E-04  5.854174E-19  7.354461E-02  0.000000E+00
  3.007320E-01 -1.845185E-02  5.000000E-01  3.037691E-01 -1.869142E-02  0.000000E+00  1.273451E-02  4.161361E-04  6.771692E-20  6.004876E-02  0.000000E+00
  3.195690E-01 -1.772456E-02  5.000000E-01  3.227963E-01 -1.795678E-02  0.000000E+00  1.241658E-02  5.738209E-04 -5.042065E-19  5.169976E-02  0.000000E+00
  3.388440E-01 -1.668115E-02  5.000000E-01  3.422660E-01 -1.690284E-02  0.000000E+00  1.192639E-02  7.330847E-04 -1.020413E-18  5.398646E-02  0.000000E+00
  3.585140E-01 -1.531806E-02  5.000000E-01  3.621347E-01 -1.552598E-02  0.000000E+00  1.133324E-02  8.473714E-04 -1.843039E-18  6.942985E-02  0.000000E+00
  3.785290E-01 -1.370503E-02  5.000000E-01  3.823518E-01 -1.389666E-02  0.000000E+00  1.071986E-02  9.015496E-04 -1.021398E-18  9.355490E-02  0.000000E+00
  3.988350E-01 -1.192318E-02  5.000000E-01  4.028629E-01 -1.209682E-02  0.000000E+00  1.015849E-02  9.052965E-04  2.711413E-19  1.198400E-01  0.000000E+00
  4.193750E-01 -1.006415E-02  5.000000E-01  4.236103E-01 -1.021902E-02  0.000000E+00  9.709251E-03  8.737895E-04  9.152607E-19  1.445579E-01  0.000000E+00
  4.400850E-01 -8.211162E-03  5.000000E-01  4.445294E-01 -8.347310E-03  0.000000E+00  9.415160E-03  8.216436E-04  4.217398E-19  1.659754E-01  0.000000E+00
  4.609060E-01 -6.442318E-03  5.000000E-01  4.655607E-01 -6.560603E-03  0.000000E+00  9.288757E-03  7.609254E-04 -1.932024E-18  1.818498E-01  0.000000E+00
  4.818030E-01 -4.794383E-03  5.000000E-01  4.866688E-01 -4.896025E-03  0.000000E+00  9.310233E-03  6.892735E-04 -1.877015E-18  1.922907E-01  0.000000E+00
  5.027520E-01 -3.341438E-03  5.000000E-01  5.078293E-01 -3.428407E-03  0.000000E+00  9.416868E-03  6.119545E-04 -6.927172E-19  1.976565E-01  0.000000E+00
  5.237130E-01 -2.072451E-03  5.000000E-01  5.290020E-01 -2.146604E-03  0.000000E+00  9.488571E-03  5.748130E-04 -5.600450E-19  1.939367E-01  0.000000E+00
  5.446170E-01 -8.117703E-04  5.000000E-01  5.501171E-01 -8.731917E-04  0.000000E+00  9.399858E-03  6.153573E-04  2.755430E-19  1.825394E-01  0.000000E+00
  5.653940E-01  6.598476E-04  5.000000E-01  5.711039E-01  6.132881E-04  0.000000E+00  9.112375E-03  6.966222E-04 -5.697414E-19  1.778788E-01  0.000000E+00
  4.675910E-01  7.472941E-02  5.000000E-01  4.723132E-01  7.543089E-02  0.000000E+00  1.580275E-02 -1.141658E-03  5.855242E-19 -8.141318E-01  0.000000E+00
  4.464640E-01  7.608316E-02  5.000000E-01  4.509729E-01  7.679830E-02  0.000000E+00  1.699116E-02 -8.960636E-04  1.072733E-18 -8.613726E-01  0.000000E+00
  4.254410E-01  7.697301E-02  5.000000E-01  4.297376E-01  7.769714E-02  0.000000E+00  1.796394E-02 -5.714531E-04  6.453808E-19 -8.822934E-01  0.000000E+00
  4.045840E-01  7.742717E-02  5.000000E-01  4.086699E-01  7.815589E-02  0.000000E+00  1.853762E-02 -2.539983E-04  4.380999E-20 -8.835438E-01  0.000000E+00
  3.839530E-01  7.754670E-02  5.000000E-01  3.878306E-01  7.827663E-02  0.000000E+00  1.869355E-02  2.005592E-06 -7.365092E-20 -8.734210E-01  0.000000E+00
  3.636060E-01  7.742517E-02  5.000000E-01  3.672781E-01  7.815387E-02  0.000000E+00  1.855396E-02  1.820134E-04 -1.911026E-19 -8.616005E-01  0.000000E+00
  3.435960E-01  7.714980E-02  5.000000E-01  3.470660E-01  7.787572E-02  0.000000E+00  1.830406E-02  2.873302E-04 -9.175729E-20 -8.611190E-01  0.000000E+00
  3.239710E-01  7.679955E-02  5.000000E-01  3.272428E-01  7.752193E-02  0.000000E+00  1.814951E-02  3.479595E-04  1.718578E-19 -8.812792E-01  0.000000E+00
  3.047740E-01  7.640407E-02  5.000000E-01  3.078519E-01  7.712246E-02  0.000000E+00  1.827490E-02  4.317777E-04  5.031972E-19 -9.199439E-01  0.000000E+00
  2.860450E-01  7.590622E-02  5.000000E-01  2.889338E-01  7.661958E-02  0.000000E+00  1.876598E-02  5.967714E-04  3.639950E-19 -9.688387E-01  0.000000E+00
  2.678190E-01  7.523519E-02  5.000000E-01  2.705237E-01  7.594177E-02  0.000000E+00  1.957894E-02  8.603877E-04  1.807185E-19 -1.021067E+00  0.000000E+00
  2.501300E-01  7.433778E-02  5.000000E-01  2.526561E-01  7.503530E-02  0.000000E+00  2.058918E-02  1.219865E-03  2.155756E-19 -1.071047E+00  0.000000E+00
  2.330040E-01  7.318455E-02  5.000000E-01  2.353571E-01  7.387042E-02  0.000000E+00  2.165100E-02  1.663503E-03  2.277963E-19 -1.113712E+00  0.000000E+00
  2.164660E-01  7.176454E-02  5.000000E-01  2.186521E-01  7.243607E-02  0.000000E+00  2.264193E-02  2.173453E-03  4.064943E-19 -1.143982E+00  0.000000E+00
  2.005340E-01  7.008151E-02  5.000000E-01  2.025592E-01  7.073604E-02  0.000000E+00  2.348059E-02  2.726502E-03  1.049867E-19 -1.158090E+00  0.000000E+00
  1.852230E-01  6.814979E-02  5.000000E-01  1.870936E-01  6.878481E-02  0.000000E+00  2.412366E-02  3.288390E-03 -7.227085E-20 -1.157840E+00  0.000000E+00
  1.705440E-01  6.600364E-02  5.000000E-01  1.722663E-01  6.661699E-02  0.000000E+00  2.457273E-02  3.822598E-03  2.982691E-20 -1.152645E+00  0.000000E+00
  1.565000E-01  6.368775E-02  5.000000E-01  1.580805E-01  6.427771E-02  0.000000E+00  2.489361E-02  4.319041E-03 -7.854503E-19 -1.154801E+00  0.000000E+00
  1.430940E-01  6.124464E-02  5.000000E-01  1.445391E-01  6.180993E-02  0.000000E+00  2.521580E-02  4.824999E-03 -1.350031E-18 -1.168627E+00  0.000000E+00
  1.303270E-01  5.868589E-02  5.000000E-01  1.316432E-01  5.922534E-02  0.000000E+00  2.567133E-02  5.446936E-03 -5.767497E-19 -1.181588E+00  0.000000E+00
  1.182110E-01  5.597722E-02  5.000000E-01  1.194048E-01  5.648931E-02  0.000000E+00  2.625867E-02  6.244708E-03 -8.591997E-19 -1.174156E+00  0.000000E+00
  1.067560E-01  5.309726E-02  5.000000E-01  1.078341E-01  5.358027E-02  0.000000E+00  2.680075E-02  7.162983E-03 -2.154486E-18 -1.135333E+00  0.000000E+00
  9.596750E-02  5.004757E-02  5.000000E-01  9.693669E-02  5.049978E-02  0.000000E+00  2.704749E-02  8.013891E-03 -4.700618E-19 -1.076183E+00  0.000000E+00
  8.582800E-02  4.690276E-02  5.000000E-01  8.669479E-02  4.732321E-02  0.000000E+00  2.690097E-02  8.628357E-03  1.338415E-18 -1.020443E+00  0.000000E+00
  8.582800E-02  4.690276E-02  5.000000E-01  8.669479E-02  4.732321E-02  0.000000E+00  2.690097E-02  8.628357E-03  1.338415E-18 -1.020443E+00  0.000000E+00
  7.631050E-02  4.374615E-02  5.000000E-01  7.708117E-02  4.413472E-02  0.000000E+00  2.653388E-02  9.101245E-03  5.242700E-19 -9.730150E-01  0.000000E+00
  6.740780E-02  4.059076E-02  5.000000E-01  6.808856E-02  4.094746E-02  0.000000E+00  2.615837E-02  9.612362E-03  6.235406E-20 -9.246990E-01  0.000000E+00
  5.911740E-02  3.743550E-02  5.000000E-01  5.971443E-02  3.776034E-02  0.000000E+00  2.583755E-02  1.019420E-02 -1.125363E-20 -8.714679E-01  0.000000E+00
  5.143150E-02  3.429489E-02  5.000000E-01  5.195091E-02  3.458801E-02  0.000000E+00  2.553502E-02  1.080120E-02 -2.820109E-19 -8.140707E-01  0.000000E+00
  4.433770E-02  3.119124E-02  5.000000E-01  4.478547E-02  3.145302E-02  0.000000E+00  2.519481E-02  1.139578E-02 -2.785438E-19 -7.556352E-01  0.000000E+00
  3.782240E-02  2.814645E-02  5.000000E-01  3.820438E-02  2.837748E-02  0.000000E+00  2.478509E-02  1.197462E-02  4.255085E-19 -7.004260E-01  0.000000E+00
  3.187460E-02  2.517606E-02  5.000000E-01  3.219651E-02  2.537709E-02  0.000000E+00  2.431251E-02  1.256428E-02 -1.176765E-18 -6.511937E-01  0.000000E+00
  2.648400E-02  2.229373E-02  5.000000E-01  2.675147E-02  2.246565E-02  0.000000E+00  2.380625E-02  1.324191E-02 -6.513010E-18 -5.998116E-01  0.000000E+00
  2.164990E-02  1.950010E-02  5.000000E-01  2.186855E-02  1.964381E-02  0.000000E+00  2.322708E-02  1.406407E-02 -1.178932E-17 -5.260862E-01  0.000000E+00
  1.737670E-02  1.679414E-02  5.000000E-01  1.755219E-02  1.691052E-02  0.000000E+00  2.241636E-02  1.484087E-02 -1.806002E-17 -4.244932E-01  0.000000E+00
  1.364080E-02  1.420861E-02  5.000000E-01  1.377856E-02  1.429888E-02  0.000000E+00  2.127232E-02  1.523184E-02 -2.528465E-17 -3.189130E-01  0.000000E+00
  1.039090E-02  1.179669E-02  5.000000E-01  1.049584E-02  1.186260E-02  0.000000E+00  1.992157E-02  1.520745E-02 -3.165009E-17 -2.367459E-01  0.000000E+00
  7.586340E-03  9.590778E-03  5.000000E-01  7.662960E-03  9.634412E-03  0.000000E+00  1.862658E-02  1.521770E-02 -3.738955E-17 -1.796351E-01  0.000000E+00
  5.226210E-03  7.586364E-03  5.000000E-01  5.278995E-03  7.609756E-03  0.000000E+00  1.759096E-02  1.583652E-02 -5.041196E-17 -1.313900E-01  0.000000E+00
  3.324300E-03  5.772119E-03  5.000000E-01  3.357877E-03  5.777189E-03  0.000000E+00  1.685060E-02  1.747885E-02 -8.693081E-17 -7.801525E-02  0.000000E+00
  1.883580E-03  4.153280E-03  5.000000E-01  1.902607E-03  4.142001E-03  0.000000E+00  1.611706E-02  2.045192E-02 -1.534427E-16  8.232456E-04  0.000000E+00
  8.951490E-04  2.749470E-03  5.000000E-01  9.041942E-04  2.724013E-03  0.000000E+00  1.455213E-02  2.462382E-02 -2.388499E-16  1.333008E-01  0.000000E+00
  3.201820E-04  1.597588E-03  5.000000E-01  3.234206E-04  1.560498E-03  0.000000E+00  1.117155E-02  2.860535E-02 -3.152244E-16  3.247412E-01  0.000000E+00
  6.852390E-05  7.438309E-04  5.000000E-01  6.922101E-05  6.981195E-04  0.000000E+00  6.363597E-03  3.001898E-02 -3.520436E-16  5.116717E-01  0.000000E+00
  4.217600E-06  2.254434E-04  5.000000E-01  4.265277E-06  1.744968E-04  0.000000E+00  2.219977E-03  2.899729E-02 -3.282994E-16  5.769759E-01  0.000000E+00
 -5.032520E-09  5.269122E-05  5.000000E-01  0.000000E+00  0.000000E+00  0.000000E+00 -2.864355E-04  3.033663E-02 -2.586642E-16  5.517058E-01  0.000000E+00
  5.154440E-06 -1.209841E-04  5.000000E-01  5.211578E-06 -1.754293E-04  0.000000E+00 -2.700727E-03  3.061710E-02 -2.015212E-16  6.323488E-01  0.000000E+00