 Title = "ADflow Slice Data"
Variables =  "CoordinateX"  "CoordinateY"  "CoordinateZ"  "XoC"  "YoC"  "ZoC" "VelocityX" "VelocityY" "VelocityZ" "CoefPressure" "Mach" 
Zone T= "Slice_0001 None Absolute Regular z = 0.50000000"
 Nodes =          192  Elements=          184  ZONETYPE=FELINESEG
 DATAPACKING=POINT
  5.653940E-01 -2.669652E-03  5.000000E-01  5.711040E-01 -2.772043E-03  0.000000E+00  9.768902E-03  6.152712E-04 -4.799695E-19  1.433907E-01  0.000000E+00
  5.859770E-01 -1.294153E-03  5.000000E-01  5.918948E-01 -1.382652E-03  0.000000E+00  9.468804E-03  6.652661E-04  9.947495E-19  1.502283E-01  0.000000E+00
  6.063060E-01  2.073320E-04  5.000000E-01  6.124291E-01  1.339960E-04  0.000000E+00  9.126443E-03  6.966135E-04  1.820221E-18  1.650416E-01  0.000000E+00
  6.263240E-01  1.786167E-03  5.000000E-01  6.326493E-01  1.728775E-03  0.000000E+00  8.786785E-03  6.979301E-04  1.027624E-18  1.839126E-01  0.000000E+00
  6.459860E-01  3.359361E-03  5.000000E-01  6.525099E-01  3.317858E-03  0.000000E+00  8.481690E-03  6.681207E-04 -3.187850E-19  2.037829E-01  0.000000E+00
  6.652460E-01  4.851310E-03  5.000000E-01  6.719644E-01  4.824874E-03  0.000000E+00  8.211123E-03  6.221759E-04 -2.962461E-19  2.213824E-01  0.000000E+00
  6.840650E-01  6.241783E-03  5.000000E-01  6.909734E-01  6.229389E-03  0.000000E+00  7.943200E-03  5.827499E-04 -4.521947E-20  2.342937E-01  0.000000E+00
  7.024070E-01  7.576249E-03  5.000000E-01  7.095007E-01  7.577333E-03  0.000000E+00  7.643906E-03  5.559885E-04  4.103611E-19  2.449239E-01  0.000000E+00
  7.202400E-01  8.875018E-03  5.000000E-01  7.275138E-01  8.889217E-03  0.000000E+00  7.303004E-03  5.300271E-04  1.326244E-18  2.580009E-01  0.000000E+00
  7.375350E-01  1.012712E-02  5.000000E-01  7.449834E-01  1.015397E-02  0.000000E+00  6.932584E-03  4.952363E-04  9.724808E-19  2.746248E-01  0.000000E+00
  7.542690E-01  1.130585E-02  5.000000E-01  7.618864E-01  1.134460E-02  0.000000E+00  6.559768E-03  4.494541E-04 -8.294161E-19  2.932085E-01  0.000000E+00
  7.704220E-01  1.237854E-02  5.000000E-01  7.782026E-01  1.242812E-02  0.000000E+00  6.220355E-03  3.941550E-04 -1.795169E-18  3.115347E-01  0.000000E+00
  7.859770E-01  1.331412E-02  5.000000E-01  7.939147E-01  1.337315E-02  0.000000E+00  5.958274E-03  3.232462E-04 -1.687068E-18  3.293152E-01  0.000000E+00
  8.009220E-01  1.403639E-02  5.000000E-01  8.090106E-01  1.410271E-02  0.000000E+00  5.818069E-03  2.271593E-04 -1.569917E-18  3.467027E-01  0.000000E+00
  8.152480E-01  1.446059E-02  5.000000E-01  8.234813E-01  1.453120E-02  0.000000E+00  5.817275E-03  1.129755E-04 -1.810736E-18  3.593467E-01  0.000000E+00
  8.289490E-01  1.458542E-02  5.000000E-01  8.373206E-01  1.465729E-02  0.000000E+00  5.937438E-03 -3.745213E-06 -2.337495E-18  3.635971E-01  0.000000E+00
  8.420260E-01  1.445283E-02  5.000000E-01  8.505297E-01  1.452336E-02  0.000000E+00  6.144938E-03 -1.156715E-04 -2.664962E-18  3.613271E-01  0.000000E+00
  8.544790E-01  1.411519E-02  5.000000E-01  8.631085E-01  1.418231E-02  0.000000E+00  6.406674E-03 -2.206605E-04 -2.767428E-18  3.555333E-01  0.000000E+00
  8.663160E-01  1.362483E-02  5.000000E-01  8.750650E-01  1.368700E-02  0.000000E+00  6.693002E-03 -3.172556E-04 -2.460140E-18  3.477656E-01  0.000000E+00
  8.775420E-01  1.302852E-02  5.000000E-01  8.864044E-01  1.308467E-02  0.000000E+00  6.978292E-03 -4.034285E-04 -1.937882E-18  3.387655E-01  0.000000E+00
  8.881660E-01  1.236633E-02  5.000000E-01  8.971357E-01  1.241579E-02  0.000000E+00  7.243049E-03 -4.771506E-04 -1.207740E-18  3.291507E-01  0.000000E+00
  8.981970E-01  1.167108E-02  5.000000E-01  9.072680E-01  1.171352E-02  0.000000E+00  7.476941E-03 -5.395158E-04 -5.592707E-19  3.197022E-01  0.000000E+00
  9.076460E-01  1.096343E-02  5.000000E-01  9.168124E-01  1.099872E-02  0.000000E+00  7.681111E-03 -5.965120E-04 -3.194231E-19  3.113205E-01  0.000000E+00
  9.165220E-01  1.025040E-02  5.000000E-01  9.257781E-01  1.027849E-02  0.000000E+00  7.864615E-03 -6.538043E-04 -5.923152E-19  3.040407E-01  0.000000E+00
  9.165220E-01  1.025040E-02  5.000000E-01  9.257781E-01  1.027849E-02  0.000000E+00  7.864615E-03 -6.538043E-04 -5.923152E-19  3.040407E-01  0.000000E+00
  9.248360E-01  9.536337E-03  5.000000E-01  9.341760E-01  9.557216E-03  0.000000E+00  8.037410E-03 -7.132623E-04 -1.165449E-18  2.970893E-01  0.000000E+00
  9.325990E-01  8.825602E-03  5.000000E-01  9.420174E-01  8.839302E-03  0.000000E+00  8.207829E-03 -7.756630E-04 -1.439948E-18  2.900329E-01  0.000000E+00
  9.398210E-01  8.122237E-03  5.000000E-01  9.493124E-01  8.128834E-03  0.000000E+00  8.383181E-03 -8.419352E-04 -2.394308E-18  2.827816E-01  0.000000E+00
  9.465130E-01  7.430234E-03  5.000000E-01  9.560719E-01  7.429843E-03  0.000000E+00  8.569796E-03 -9.129032E-04 -3.829365E-18  2.752259E-01  0.000000E+00
  9.526870E-01  6.753704E-03  5.000000E-01  9.623083E-01  6.746481E-03  0.000000E+00  8.772652E-03 -9.892185E-04 -4.272431E-18  2.672193E-01  0.000000E+00
  9.583540E-01  6.097053E-03  5.000000E-01  9.680325E-01  6.083198E-03  0.000000E+00  8.995424E-03 -1.071333E-03 -1.117523E-18  2.586319E-01  0.000000E+00
  9.635240E-01  5.465046E-03  5.000000E-01  9.732547E-01  5.444808E-03  0.000000E+00  9.240984E-03 -1.159354E-03  1.229383E-17  2.493421E-01  0.000000E+00
  9.682080E-01  4.862744E-03  5.000000E-01  9.779860E-01  4.836424E-03  0.000000E+00  9.513054E-03 -1.253546E-03  4.320713E-17  2.392957E-01  0.000000E+00
  9.724140E-01  4.295511E-03  5.000000E-01  9.822345E-01  4.263462E-03  0.000000E+00  9.818612E-03 -1.354435E-03  9.373540E-17  2.284867E-01  0.000000E+00
  9.761510E-01  3.768842E-03  5.000000E-01  9.860093E-01  3.731474E-03  0.000000E+00  1.016813E-02 -1.462467E-03  1.577732E-16  2.168832E-01  0.000000E+00
  9.794290E-01  3.288183E-03  5.000000E-01  9.893204E-01  3.245960E-03  0.000000E+00  1.056867E-02 -1.578150E-03  2.370998E-16  2.044954E-01  0.000000E+00
  9.822540E-01  2.858924E-03  5.000000E-01  9.921739E-01  2.812367E-03  0.000000E+00  1.100573E-02 -1.699625E-03  3.802240E-16  1.915736E-01  0.000000E+00
  9.846330E-01  2.486094E-03  5.000000E-01  9.945769E-01  2.435772E-03  0.000000E+00  1.142437E-02 -1.815730E-03  7.786942E-16  1.793670E-01  0.000000E+00
  9.865710E-01  2.174267E-03  5.000000E-01  9.965345E-01  2.120795E-03  0.000000E+00  1.169061E-02 -1.892307E-03  1.801453E-15  1.667393E-01  0.000000E+00
  9.880740E-01  1.927377E-03  5.000000E-01  9.980527E-01  1.871412E-03  0.000000E+00  1.158634E-02 -1.921318E-03  2.489956E-15  1.474597E-01  0.000000E+00
  9.891450E-01  1.748637E-03  5.000000E-01  9.991345E-01  1.690867E-03  0.000000E+00  1.178684E-02 -2.059248E-03 -1.352125E-15  1.484188E-01  0.000000E+00
  9.897860E-01  1.640433E-03  5.000000E-01  9.997820E-01  1.581570E-03  0.000000E+00  1.516995E-02 -2.086740E-03 -7.349128E-15  1.958596E-01  0.000000E+00
  9.900000E-01  1.604200E-03  5.000000E-01  9.999981E-01  1.544971E-03  0.000000E+00  1.058515E-02 -4.472000E-03  9.683817E-17 -4.782266E-02  0.000000E+00
  9.900000E-01  1.682910E-03  5.000000E-01  9.999981E-01  1.624476E-03  0.000000E+00  1.059894E-03 -1.486147E-02  2.177369E-15 -1.856884E-01  0.000000E+00
  9.900000E-01  1.761630E-03  5.000000E-01  9.999981E-01  1.703992E-03  0.000000E+00 -5.271056E-04 -1.396561E-02  4.751854E-15 -9.860120E-03  0.000000E+00
  9.900000E-01  1.840351E-03  5.000000E-01  9.999981E-01  1.783507E-03  0.000000E+00 -2.989375E-04  2.412737E-03  2.145131E-14 -1.457072E-02  0.000000E+00
  9.900000E-01  1.919061E-03  5.000000E-01  9.999981E-01  1.863012E-03  0.000000E+00  7.099359E-04  3.833796E-03  3.211913E-14 -1.322661E-01  0.000000E+00
  9.900000E-01  1.997781E-03  5.000000E-01  9.999981E-01  1.942527E-03  0.000000E+00  5.874494E-03 -2.628815E-03  2.144291E-14 -3.874815E-02  0.000000E+00
  9.900000E-01  1.997781E-03  5.000000E-01  9.999981E-01  1.942527E-03  0.000000E+00  5.874494E-03 -2.628815E-03  2.144291E-14 -3.874815E-02  0.000000E+00
  9.897900E-01  2.043582E-03  5.000000E-01  9.997860E-01  1.988791E-03  0.000000E+00  7.647274E-03 -1.997121E-03  1.521161E-16  1.026271E-01  0.000000E+00
  9.891580E-01  2.180941E-03  5.000000E-01  9.991476E-01  2.127537E-03  0.000000E+00  4.736829E-03 -9.683844E-04 -4.388328E-15  6.053364E-02  0.000000E+00
  9.881040E-01  2.409676E-03  5.000000E-01  9.980830E-01  2.358582E-03  0.000000E+00  3.974669E-03 -8.598873E-04 -1.178333E-15  5.088954E-02  0.000000E+00
  9.866260E-01  2.729488E-03  5.000000E-01  9.965900E-01  2.681624E-03  0.000000E+00  3.786768E-03 -8.234393E-04  1.812668E-16  5.264579E-02  0.000000E+00
  9.847200E-01  3.139944E-03  5.000000E-01  9.946648E-01  3.096225E-03  0.000000E+00  3.710110E-03 -7.961362E-04  2.645881E-16  4.733115E-02  0.000000E+00
  9.823820E-01  3.640431E-03  5.000000E-01  9.923032E-01  3.601767E-03  0.000000E+00  3.767932E-03 -8.031292E-04  1.805348E-16  3.924237E-02  0.000000E+00
  9.796080E-01  4.230109E-03  5.000000E-01  9.895012E-01  4.197399E-03  0.000000E+00  3.937097E-03 -8.332042E-04  1.169594E-16  3.034925E-02  0.000000E+00
  9.763910E-01  4.907931E-03  5.000000E-01  9.862517E-01  4.882067E-03  0.000000E+00  4.175377E-03 -8.754223E-04  8.127909E-17  2.014044E-02  0.000000E+00
  9.727270E-01  5.672458E-03  5.000000E-01  9.825507E-01  5.654315E-03  0.000000E+00  4.454954E-03 -9.239075E-04  5.787659E-17  8.521366E-03  0.000000E+00
  9.686070E-01  6.522044E-03  5.000000E-01  9.783891E-01  6.512481E-03  0.000000E+00  4.759400E-03 -9.747115E-04  3.750998E-17 -4.266818E-03  0.000000E+00
  9.640240E-01  7.454580E-03  5.000000E-01  9.737598E-01  7.454435E-03  0.000000E+00  5.079771E-03 -1.025449E-03  2.125005E-17 -1.806650E-02  0.000000E+00
  9.589680E-01  8.467610E-03  5.000000E-01  9.686527E-01  8.477696E-03  0.000000E+00  5.412191E-03 -1.074929E-03  1.099080E-17 -3.273858E-02  0.000000E+00
  9.534310E-01  9.558193E-03  5.000000E-01  9.630598E-01  9.579293E-03  0.000000E+00  5.754845E-03 -1.122411E-03  5.123182E-18 -4.814203E-02  0.000000E+00
  9.474030E-01  1.072297E-02  5.000000E-01  9.569709E-01  1.075583E-02  0.000000E+00  6.105675E-03 -1.166897E-03  2.028977E-18 -6.404563E-02  0.000000E+00
  9.408720E-01  1.195814E-02  5.000000E-01  9.503740E-01  1.200348E-02  0.000000E+00  6.461201E-03 -1.207437E-03  9.790983E-19 -8.027155E-02  0.000000E+00
  9.338280E-01  1.325946E-02  5.000000E-01  9.432588E-01  1.331793E-02  0.000000E+00  6.816989E-03 -1.243079E-03 -4.552041E-21 -9.665340E-02  0.000000E+00
  9.262600E-01  1.462231E-02  5.000000E-01  9.356144E-01  1.469455E-02  0.000000E+00  7.167798E-03 -1.272575E-03 -7.300603E-19 -1.129462E-01  0.000000E+00
  9.181550E-01  1.604160E-02  5.000000E-01  9.274275E-01  1.612817E-02  0.000000E+00  7.507323E-03 -1.294798E-03 -8.692528E-19 -1.289551E-01  0.000000E+00
  9.095020E-01  1.751202E-02  5.000000E-01  9.186872E-01  1.761345E-02  0.000000E+00  7.828481E-03 -1.308647E-03 -8.346799E-19 -1.443704E-01  0.000000E+00
  9.002880E-01  1.902781E-02  5.000000E-01  9.093801E-01  1.914455E-02  0.000000E+00  8.122837E-03 -1.313181E-03 -1.210635E-18 -1.586689E-01  0.000000E+00
  8.905020E-01  2.058310E-02  5.000000E-01  8.994953E-01  2.071554E-02  0.000000E+00  8.380622E-03 -1.308977E-03 -1.000472E-18 -1.715227E-01  0.000000E+00
  8.801320E-01  2.217522E-02  5.000000E-01  8.890205E-01  2.232374E-02  0.000000E+00  8.593610E-03 -1.298455E-03 -5.724310E-19 -1.830054E-01  0.000000E+00
  8.691700E-01  2.380534E-02  5.000000E-01  8.779478E-01  2.397033E-02  0.000000E+00  8.758402E-03 -1.284216E-03  1.553900E-20 -1.933375E-01  0.000000E+00
  8.691700E-01  2.380534E-02  5.000000E-01  8.779478E-01  2.397033E-02  0.000000E+00  8.758402E-03 -1.284216E-03  1.553900E-20 -1.933375E-01  0.000000E+00
  8.576080E-01  2.547697E-02  5.000000E-01  8.662691E-01  2.565883E-02  0.000000E+00  8.877179E-03 -1.268600E-03  1.012739E-18 -2.026584E-01  0.000000E+00
  8.454380E-01  2.719608E-02  5.000000E-01  8.539762E-01  2.739531E-02  0.000000E+00  8.956931E-03 -1.254794E-03  9.476474E-19 -2.111735E-01  0.000000E+00
  8.326580E-01  2.897196E-02  5.000000E-01  8.410671E-01  2.918912E-02  0.000000E+00  9.009759E-03 -1.246647E-03 -3.493619E-20 -2.194146E-01  0.000000E+00
  8.192630E-01  3.081776E-02  5.000000E-01  8.275368E-01  3.105356E-02  0.000000E+00  9.053867E-03 -1.248613E-03 -1.203654E-18 -2.287212E-01  0.000000E+00
  8.052550E-01  3.275075E-02  5.000000E-01  8.133874E-01  3.300608E-02  0.000000E+00  9.114797E-03 -1.264090E-03 -1.085533E-18 -2.410936E-01  0.000000E+00
  7.906370E-01  3.478738E-02  5.000000E-01  7.986217E-01  3.506327E-02  0.000000E+00  9.223184E-03 -1.291312E-03 -5.098287E-19 -2.576855E-01  0.000000E+00
  7.754120E-01  3.692907E-02  5.000000E-01  7.832430E-01  3.722659E-02  0.000000E+00  9.404408E-03 -1.323695E-03  4.402264E-20 -2.781233E-01  0.000000E+00
  7.595880E-01  3.915759E-02  5.000000E-01  7.672592E-01  3.947762E-02  0.000000E+00  9.667449E-03 -1.355483E-03  4.506149E-20 -3.017764E-01  0.000000E+00
  7.431760E-01  4.144847E-02  5.000000E-01  7.506814E-01  4.179163E-02  0.000000E+00  1.000460E-02 -1.382676E-03  1.016977E-18 -3.280639E-01  0.000000E+00
  7.261880E-01  4.377327E-02  5.000000E-01  7.335218E-01  4.413992E-02  0.000000E+00  1.039672E-02 -1.400518E-03  1.453702E-18 -3.556777E-01  0.000000E+00
  7.086430E-01  4.610073E-02  5.000000E-01  7.157997E-01  4.649088E-02  0.000000E+00  1.081717E-02 -1.404499E-03  1.202649E-18 -3.826249E-01  0.000000E+00
  6.905640E-01  4.840007E-02  5.000000E-01  6.975381E-01  4.881344E-02  0.000000E+00  1.123675E-02 -1.393874E-03  1.117339E-18 -4.074103E-01  0.000000E+00
  6.719770E-01  5.065001E-02  5.000000E-01  6.787634E-01  5.108610E-02  0.000000E+00  1.163224E-02 -1.375045E-03  2.475658E-18 -4.307985E-01  0.000000E+00
  6.529150E-01  5.285043E-02  5.000000E-01  6.595089E-01  5.330875E-02  0.000000E+00  1.199973E-02 -1.355232E-03  3.653613E-18 -4.548425E-01  0.000000E+00
  6.334180E-01  5.500484E-02  5.000000E-01  6.398150E-01  5.548491E-02  0.000000E+00  1.235704E-02 -1.333407E-03  2.082449E-18 -4.805788E-01  0.000000E+00
  6.135280E-01  5.710068E-02  5.000000E-01  6.197241E-01  5.760191E-02  0.000000E+00  1.272752E-02 -1.305194E-03  1.623766E-18 -5.085250E-01  0.000000E+00
  5.932910E-01  5.911964E-02  5.000000E-01  5.992827E-01  5.964126E-02  0.000000E+00  1.312771E-02 -1.266990E-03  1.181366E-18 -5.385891E-01  0.000000E+00
  5.727570E-01  6.103631E-02  5.000000E-01  5.785413E-01  6.157730E-02  0.000000E+00  1.356285E-02 -1.213317E-03  9.368925E-19 -5.687249E-01  0.000000E+00
  5.519810E-01  6.281808E-02  5.000000E-01  5.575555E-01  6.337705E-02  0.000000E+00  1.402213E-02 -1.139397E-03  9.503274E-19 -5.961305E-01  0.000000E+00
  5.310180E-01  6.443130E-02  5.000000E-01  5.363808E-01  6.500657E-02  0.000000E+00  1.447966E-02 -1.051212E-03  9.733412E-19 -6.212044E-01  0.000000E+00
  5.099250E-01  6.587244E-02  5.000000E-01  5.150748E-01  6.646226E-02  0.000000E+00  1.491656E-02 -9.614230E-04  4.319193E-19 -6.475188E-01  0.000000E+00
  4.887640E-01  6.715535E-02  5.000000E-01  4.937001E-01  6.775813E-02  0.000000E+00  1.534485E-02 -8.671739E-04 -1.854023E-18 -6.760099E-01  0.000000E+00
  4.675910E-01  6.826760E-02  5.000000E-01  4.723133E-01  6.888162E-02  0.000000E+00  1.578904E-02 -7.534562E-04 -3.173578E-18 -7.041306E-01  0.000000E+00
  7.860720E-05 -4.429466E-04  5.000000E-01  7.940615E-05 -5.228498E-04  0.000000E+00 -1.120800E-02  3.621816E-02  2.113874E-13  7.932609E-01  0.000000E+00
  3.989240E-04 -1.047661E-03  5.000000E-01  4.029579E-04 -1.133671E-03  0.000000E+00 -1.020698E-02  1.600333E-02  1.319896E-13  1.080946E+00  0.000000E+00
  1.196920E-03 -1.780411E-03  5.000000E-01  1.209013E-03 -1.873821E-03  0.000000E+00 -2.679218E-03  2.805870E-03  6.661888E-14  1.079429E+00  0.000000E+00
  2.563580E-03 -2.548875E-03  5.000000E-01  2.589475E-03 -2.650046E-03  0.000000E+00  4.651592E-03 -2.018964E-03  1.815405E-14  9.356316E-01  0.000000E+00
  4.492740E-03 -3.312168E-03  5.000000E-01  4.538118E-03 -3.421048E-03  0.000000E+00  8.998890E-03 -3.106290E-03 -3.198655E-16  8.112498E-01  0.000000E+00
  6.952190E-03 -4.066987E-03  5.000000E-01  7.022406E-03 -4.183490E-03  0.000000E+00  1.118197E-02 -3.150823E-03 -1.154921E-15  7.248624E-01  0.000000E+00
  9.910730E-03 -4.834989E-03  5.000000E-01  1.001082E-02 -4.959247E-03  0.000000E+00  1.231282E-02 -3.035673E-03  5.940200E-16  6.567795E-01  0.000000E+00
  1.334950E-02 -5.641593E-03  5.000000E-01  1.348432E-02 -5.773998E-03  0.000000E+00  1.298125E-02 -2.873864E-03  6.417726E-16  5.899229E-01  0.000000E+00
  1.728780E-02 -6.465398E-03  5.000000E-01  1.746240E-02 -6.606122E-03  0.000000E+00  1.337977E-02 -2.581416E-03  1.269000E-16  5.177328E-01  0.000000E+00
  2.175590E-02 -7.256502E-03  5.000000E-01  2.197562E-02 -7.405216E-03  0.000000E+00  1.356227E-02 -2.176032E-03 -2.027091E-16  4.504962E-01  0.000000E+00
  2.676920E-02 -7.976710E-03  5.000000E-01  2.703955E-02 -8.132697E-03  0.000000E+00  1.359619E-02 -1.757899E-03 -3.444274E-16  3.996608E-01  0.000000E+00
  3.232800E-02 -8.614311E-03  5.000000E-01  3.265449E-02 -8.776737E-03  0.000000E+00  1.355405E-02 -1.400617E-03 -3.744023E-16  3.661565E-01  0.000000E+00
  3.842930E-02 -9.175198E-03  5.000000E-01  3.881741E-02 -9.343289E-03  0.000000E+00  1.347888E-02 -1.125322E-03 -3.267696E-16  3.438142E-01  0.000000E+00
  4.507220E-02 -9.673605E-03  5.000000E-01  4.552739E-02 -9.846729E-03  0.000000E+00  1.340298E-02 -9.388353E-04 -2.372976E-16  3.280039E-01  0.000000E+00
  5.225680E-02 -1.014037E-02  5.000000E-01  5.278455E-02 -1.031821E-02  0.000000E+00  1.336258E-02 -8.388823E-04 -1.422949E-16  3.161023E-01  0.000000E+00
  5.998640E-02 -1.060903E-02  5.000000E-01  6.059221E-02 -1.079160E-02  0.000000E+00  1.336531E-02 -7.877122E-04 -6.492829E-17  3.028411E-01  0.000000E+00
  6.827110E-02 -1.108434E-02  5.000000E-01  6.896058E-02 -1.127172E-02  0.000000E+00  1.338639E-02 -7.433347E-04 -1.292946E-17  2.853090E-01  0.000000E+00
  7.712280E-02 -1.155953E-02  5.000000E-01  7.790168E-02 -1.175170E-02  0.000000E+00  1.340374E-02 -6.949195E-04  1.660456E-17  2.663209E-01  0.000000E+00
  8.655260E-02 -1.203049E-02  5.000000E-01  8.742671E-02 -1.222742E-02  0.000000E+00  1.340471E-02 -6.417333E-04  2.912414E-17  2.483626E-01  0.000000E+00
  9.657140E-02 -1.248951E-02  5.000000E-01  9.754669E-02 -1.269107E-02  0.000000E+00  1.337419E-02 -5.745711E-04  3.121673E-17  2.309915E-01  0.000000E+00
  1.071900E-01 -1.291572E-02  5.000000E-01  1.082725E-01 -1.312159E-02  0.000000E+00  1.330450E-02 -4.915664E-04  2.828544E-17  2.144937E-01  0.000000E+00
  1.184180E-01 -1.329405E-02  5.000000E-01  1.196139E-01 -1.350374E-02  0.000000E+00  1.321185E-02 -4.092995E-04  2.297896E-17  2.010999E-01  0.000000E+00
  1.302610E-01 -1.362799E-02  5.000000E-01  1.315765E-01 -1.384105E-02  0.000000E+00  1.312353E-02 -3.435892E-04  1.851653E-17  1.911156E-01  0.000000E+00
  1.427230E-01 -1.392888E-02  5.000000E-01  1.441644E-01 -1.414498E-02  0.000000E+00  1.305631E-02 -2.984819E-04  1.643386E-17  1.826617E-01  0.000000E+00
  1.427230E-01 -1.392888E-02  5.000000E-01  1.441644E-01 -1.414498E-02  0.000000E+00  1.305631E-02 -2.984819E-04  1.643386E-17  1.826617E-01  0.000000E+00
  1.558070E-01 -1.421139E-02  5.000000E-01  1.573805E-01 -1.443034E-02  0.000000E+00  1.300548E-02 -2.653499E-04  1.381574E-17  1.735057E-01  0.000000E+00
  1.695140E-01 -1.447531E-02  5.000000E-01  1.712259E-01 -1.469692E-02  0.000000E+00  1.294799E-02 -2.278209E-04  9.905561E-18  1.624403E-01  0.000000E+00
  1.838420E-01 -1.470379E-02  5.000000E-01  1.856986E-01 -1.492772E-02  0.000000E+00  1.286025E-02 -1.742217E-04  7.292541E-18  1.504656E-01  0.000000E+00
  1.987870E-01 -1.487018E-02  5.000000E-01  2.007946E-01 -1.509578E-02  0.000000E+00  1.273381E-02 -1.024375E-04  5.643110E-18  1.394619E-01  0.000000E+00
  2.143420E-01 -1.494654E-02  5.000000E-01  2.165067E-01 -1.517291E-02  0.000000E+00  1.258524E-02 -2.585217E-05  4.148244E-18  1.314825E-01  0.000000E+00
  2.304940E-01 -1.493200E-02  5.000000E-01  2.328218E-01 -1.515823E-02  0.000000E+00  1.245196E-02  3.084014E-05  2.522655E-18  1.279030E-01  0.000000E+00
  2.472290E-01 -1.486302E-02  5.000000E-01  2.497258E-01 -1.508856E-02  0.000000E+00  1.236455E-02  5.667985E-05  5.050442E-19  1.268023E-01  0.000000E+00
  2.645310E-01 -1.477640E-02  5.000000E-01  2.672025E-01 -1.500106E-02  0.000000E+00  1.232146E-02  6.811189E-05 -1.528393E-18  1.235955E-01  0.000000E+00
  2.823750E-01 -1.467009E-02  5.000000E-01  2.852267E-01 -1.489368E-02  0.000000E+00  1.229552E-02  9.096002E-05 -3.214078E-18  1.158732E-01  0.000000E+00
  3.007320E-01 -1.450835E-02  5.000000E-01  3.037691E-01 -1.473030E-02  0.000000E+00  1.225950E-02  1.360410E-04 -4.427036E-18  1.058872E-01  0.000000E+00
  3.195690E-01 -1.425546E-02  5.000000E-01  3.227964E-01 -1.447486E-02  0.000000E+00  1.219806E-02  1.979546E-04 -5.372030E-18  9.729622E-02  0.000000E+00
  3.388440E-01 -1.388752E-02  5.000000E-01  3.422660E-01 -1.410320E-02  0.000000E+00  1.210296E-02  2.663043E-04 -5.938123E-18  9.189984E-02  0.000000E+00
  3.585140E-01 -1.339661E-02  5.000000E-01  3.621347E-01 -1.360734E-02  0.000000E+00  1.196429E-02  3.344866E-04 -6.474868E-18  8.936790E-02  0.000000E+00
  3.785290E-01 -1.277668E-02  5.000000E-01  3.823518E-01 -1.298114E-02  0.000000E+00  1.176813E-02  4.013790E-04 -6.534721E-18  8.869203E-02  0.000000E+00
  3.988350E-01 -1.201935E-02  5.000000E-01  4.028629E-01 -1.221616E-02  0.000000E+00  1.150620E-02  4.667076E-04 -5.551970E-18  9.004673E-02  0.000000E+00
  4.193750E-01 -1.111749E-02  5.000000E-01  4.236103E-01 -1.130520E-02  0.000000E+00  1.118504E-02  5.334696E-04 -4.577131E-18  9.383436E-02  0.000000E+00
  4.400850E-01 -1.004939E-02  5.000000E-01  4.445295E-01 -1.022631E-02  0.000000E+00  1.083547E-02  6.003094E-04 -3.456686E-18  1.005640E-01  0.000000E+00
  4.609060E-01 -8.813020E-03  5.000000E-01  4.655607E-01 -8.977453E-03  0.000000E+00  1.051728E-02  6.464324E-04 -2.086659E-18  1.119576E-01  0.000000E+00
  4.818030E-01 -7.481050E-03  5.000000E-01  4.866688E-01 -7.632031E-03  0.000000E+00  1.029462E-02  6.431025E-04 -8.854714E-19  1.285178E-01  0.000000E+00
  5.027520E-01 -6.197825E-03  5.000000E-01  5.078293E-01 -6.335847E-03  0.000000E+00  1.018071E-02  5.953934E-04 -2.986221E-19  1.444898E-01  0.000000E+00
  5.237130E-01 -5.034515E-03  5.000000E-01  5.290020E-01 -5.160789E-03  0.000000E+00  1.010993E-02  5.549743E-04 -5.560671E-19  1.506827E-01  0.000000E+00
  5.446170E-01 -3.905570E-03  5.000000E-01  5.501171E-01 -4.020442E-03  0.000000E+00  9.987624E-03  5.661977E-04 -1.083038E-18  1.464462E-01  0.000000E+00
  5.653940E-01 -2.669652E-03  5.000000E-01  5.711040E-01 -2.772043E-03  0.000000E+00  9.768902E-03  6.152712E-04 -4.799695E-19  1.433907E-01  0.000000E+00
  4.675910E-01  6.826760E-02  5.000000E-01  4.723133E-01  6.888162E-02  0.000000E+00  1.578904E-02 -7.534562E-04 -3.173578E-18 -7.041306E-01  0.000000E+00
  4.464640E-01  6.917759E-02  5.000000E-01  4.509729E-01  6.980079E-02  0.000000E+00  1.625319E-02 -6.177875E-04 -3.981030E-18 -7.306937E-01  0.000000E+00
  4.254410E-01  6.987316E-02  5.000000E-01  4.297376E-01  7.050339E-02  0.000000E+00  1.672625E-02 -4.668300E-04 -5.985622E-18 -7.563295E-01  0.000000E+00
  4.045840E-01  7.035002E-02  5.000000E-01  4.086699E-01  7.098506E-02  0.000000E+00  1.719933E-02 -3.027880E-04 -8.613092E-18 -7.815279E-01  0.000000E+00
  3.839530E-01  7.060731E-02  5.000000E-01  3.878306E-01  7.124495E-02  0.000000E+00  1.766963E-02 -1.232389E-04 -1.200945E-17 -8.061020E-01  0.000000E+00
  3.636060E-01  7.064023E-02  5.000000E-01  3.672781E-01  7.127820E-02  0.000000E+00  1.813736E-02  7.541499E-05 -1.612943E-17 -8.290601E-01  0.000000E+00
  3.435960E-01  7.044472E-02  5.000000E-01  3.470660E-01  7.108071E-02  0.000000E+00  1.859946E-02  2.943883E-04 -2.082089E-17 -8.494011E-01  0.000000E+00
  3.239710E-01  7.001835E-02  5.000000E-01  3.272428E-01  7.065004E-02  0.000000E+00  1.904711E-02  5.291493E-04 -2.683822E-17 -8.674709E-01  0.000000E+00
  3.047740E-01  6.937088E-02  5.000000E-01  3.078519E-01  6.999603E-02  0.000000E+00  1.947431E-02  7.726628E-04 -3.427835E-17 -8.846907E-01  0.000000E+00
  2.860450E-01  6.851845E-02  5.000000E-01  2.889338E-01  6.913500E-02  0.000000E+00  1.988979E-02  1.028911E-03 -4.346705E-17 -9.008920E-01  0.000000E+00
  2.678190E-01  6.746492E-02  5.000000E-01  2.705237E-01  6.807083E-02  0.000000E+00  2.030394E-02  1.305207E-03 -5.428627E-17 -9.151447E-01  0.000000E+00
  2.501300E-01  6.621556E-02  5.000000E-01  2.526561E-01  6.680885E-02  0.000000E+00  2.071603E-02  1.600462E-03 -6.907701E-17 -9.278547E-01  0.000000E+00
  2.330040E-01  6.478084E-02  5.000000E-01  2.353571E-01  6.535964E-02  0.000000E+00  2.112223E-02  1.911935E-03 -8.839282E-17 -9.399353E-01  0.000000E+00
  2.164660E-01  6.317370E-02  5.000000E-01  2.186521E-01  6.373627E-02  0.000000E+00  2.152402E-02  2.239914E-03 -1.100818E-16 -9.512818E-01  0.000000E+00
  2.005340E-01  6.140810E-02  5.000000E-01  2.025592E-01  6.195284E-02  0.000000E+00  2.193153E-02  2.594982E-03 -1.335220E-16 -9.589576E-01  0.000000E+00
  1.852230E-01  5.948504E-02  5.000000E-01  1.870936E-01  6.001035E-02  0.000000E+00  2.234361E-02  2.982395E-03 -1.569689E-16 -9.605486E-01  0.000000E+00
  1.705440E-01  5.741294E-02  5.000000E-01  1.722663E-01  5.791733E-02  0.000000E+00  2.273951E-02  3.384951E-03 -1.776751E-16 -9.595551E-01  0.000000E+00
  1.565000E-01  5.521511E-02  5.000000E-01  1.580805E-01  5.569730E-02  0.000000E+00  2.311444E-02  3.787444E-03 -1.928752E-16 -9.634967E-01  0.000000E+00
  1.430940E-01  5.291898E-02  5.000000E-01  1.445391E-01  5.337799E-02  0.000000E+00  2.350959E-02  4.213038E-03 -2.000458E-16 -9.754523E-01  0.000000E+00
  1.303270E-01  5.053067E-02  5.000000E-01  1.316432E-01  5.096555E-02  0.000000E+00  2.398470E-02  4.730094E-03 -1.911879E-16 -9.864637E-01  0.000000E+00
  1.182110E-01  4.802209E-02  5.000000E-01  1.194048E-01  4.843164E-02  0.000000E+00  2.452453E-02  5.375381E-03 -1.652054E-16 -9.820123E-01  0.000000E+00
  1.067560E-01  4.537821E-02  5.000000E-01  1.078341E-01  4.576106E-02  0.000000E+00  2.500286E-02  6.104523E-03 -1.689643E-16 -9.533231E-01  0.000000E+00
  9.596750E-02  4.260402E-02  5.000000E-01  9.693669E-02  4.295885E-02  0.000000E+00  2.524506E-02  6.779797E-03 -1.924670E-16 -9.083874E-01  0.000000E+00
  8.582800E-02  3.976342E-02  5.000000E-01  8.669479E-02  4.008956E-02  0.000000E+00  2.518471E-02  7.278828E-03 -1.286230E-16 -8.654938E-01  0.000000E+00
  8.582800E-02  3.976342E-02  5.000000E-01  8.669479E-02  4.008956E-02  0.000000E+00  2.518471E-02  7.278828E-03 -1.286230E-16 -8.654938E-01  0.000000E+00
  7.631050E-02  3.692618E-02  5.000000E-01  7.708117E-02  3.722367E-02  0.000000E+00  2.495160E-02  7.671603E-03  1.882913E-17 -8.286196E-01  0.000000E+00
  6.740780E-02  3.410544E-02  5.000000E-01  6.808856E-02  3.437444E-02  0.000000E+00  2.470520E-02  8.088696E-03  1.741820E-16 -7.909845E-01  0.000000E+00
  5.911740E-02  3.130320E-02  5.000000E-01  5.971444E-02  3.154390E-02  0.000000E+00  2.449760E-02  8.553336E-03  3.787370E-16 -7.498341E-01  0.000000E+00
  5.143150E-02  2.853368E-02  5.000000E-01  5.195092E-02  2.874641E-02  0.000000E+00  2.430869E-02  9.034031E-03  7.101750E-16 -7.058832E-01  0.000000E+00
  4.433770E-02  2.581677E-02  5.000000E-01  4.478548E-02  2.600207E-02  0.000000E+00  2.410240E-02  9.507070E-03  1.218572E-15 -6.616715E-01  0.000000E+00
  3.782240E-02  2.317153E-02  5.000000E-01  3.820438E-02  2.333011E-02  0.000000E+00  2.385966E-02  9.974776E-03  1.966942E-15 -6.209697E-01  0.000000E+00
  3.187460E-02  2.061162E-02  5.000000E-01  3.219651E-02  2.074435E-02  0.000000E+00  2.359286E-02  1.046291E-02  3.043796E-15 -5.867374E-01  0.000000E+00
  2.648400E-02  1.814876E-02  5.000000E-01  2.675147E-02  1.825661E-02  0.000000E+00  2.333537E-02  1.103816E-02  4.575965E-15 -5.529615E-01  0.000000E+00
  2.164990E-02  1.578450E-02  5.000000E-01  2.186855E-02  1.586848E-02  0.000000E+00  2.305884E-02  1.175424E-02  6.711839E-15 -5.027586E-01  0.000000E+00
  1.737670E-02  1.351895E-02  5.000000E-01  1.755219E-02  1.358005E-02  0.000000E+00  2.260689E-02  1.246973E-02  9.389786E-15 -4.302544E-01  0.000000E+00
  1.364080E-02  1.137654E-02  5.000000E-01  1.377856E-02  1.141600E-02  0.000000E+00  2.183799E-02  1.290467E-02  1.182045E-14 -3.545799E-01  0.000000E+00
  1.039090E-02  9.395347E-03  5.000000E-01  1.049584E-02  9.414802E-03  0.000000E+00  2.082180E-02  1.300978E-02  1.278488E-14 -3.002610E-01  0.000000E+00
  7.586340E-03  7.597187E-03  5.000000E-01  7.662960E-03  7.598482E-03  0.000000E+00  1.981916E-02  1.314676E-02  1.362571E-14 -2.724357E-01  0.000000E+00
  5.226210E-03  5.976934E-03  5.000000E-01  5.278995E-03  5.961866E-03  0.000000E+00  1.913532E-02  1.386077E-02  2.161716E-14 -2.623236E-01  0.000000E+00
  3.324300E-03  4.524765E-03  5.000000E-01  3.357878E-03  4.495032E-03  0.000000E+00  1.904896E-02  1.574921E-02  4.140947E-14 -2.616121E-01  0.000000E+00
  1.883580E-03  3.242917E-03  5.000000E-01  1.902608E-03  3.200237E-03  0.000000E+00  1.958957E-02  1.966177E-02  5.089960E-14 -2.466222E-01  0.000000E+00
  8.951490E-04  2.143986E-03  5.000000E-01  9.041943E-04  2.090209E-03  0.000000E+00  1.976162E-02  2.632278E-02  1.484951E-14 -1.665205E-01  0.000000E+00
  3.201820E-04  1.252591E-03  5.000000E-01  3.234206E-04  1.189812E-03  0.000000E+00  1.719246E-02  3.449682E-02 -2.000257E-14  1.937164E-02  0.000000E+00
  6.852390E-05  5.988733E-04  5.000000E-01  6.922101E-05  5.294916E-04  0.000000E+00  1.088926E-02  3.989477E-02  9.999541E-14  2.439328E-01  0.000000E+00
  4.217600E-06  2.052407E-04  5.000000E-01  4.265277E-06  1.318836E-04  0.000000E+00  4.098650E-03  4.142099E-02  4.491486E-13  3.230448E-01  0.000000E+00
 -5.032520E-09  7.467564E-05  5.000000E-01  0.000000E+00  0.000000E+00  0.000000E+00 -6.893771E-04  4.739706E-02  6.444134E-13  2.795218E-01  0.000000E+00
  5.154440E-06 -5.626053E-05  5.000000E-01  5.211579E-06 -1.322585E-04  0.000000E+00 -5.888033E-03  5.010824E-02  4.350780E-13  4.164705E-01  0.000000E+00