 Title = "ADflow Slice Data"
Variables =  "CoordinateX"  "CoordinateY"  "CoordinateZ"  "XoC"  "YoC"  "ZoC" "VelocityX" "VelocityY" "VelocityZ" "CoefPressure" "Mach" 
Zone T= "Slice_0001 None Absolute Regular z = 0.50000000"
 Nodes =          192  Elements=          184  ZONETYPE=FELINESEG
 DATAPACKING=POINT
  5.653940E-01 -2.669642E-03  5.000000E-01  5.711040E-01 -2.772033E-03  0.000000E+00  9.768901E-03  6.152729E-04 -8.525150E-19  1.433904E-01  0.000000E+00
  5.859770E-01 -1.294138E-03  5.000000E-01  5.918948E-01 -1.382638E-03  0.000000E+00  9.468801E-03  6.652683E-04 -9.250635E-19  1.502282E-01  0.000000E+00
  6.063060E-01  2.073521E-04  5.000000E-01  6.124291E-01  1.340159E-04  0.000000E+00  9.126437E-03  6.966157E-04 -7.885223E-19  1.650417E-01  0.000000E+00
  6.263240E-01  1.786193E-03  5.000000E-01  6.326493E-01  1.728801E-03  0.000000E+00  8.786776E-03  6.979319E-04 -5.362258E-19  1.839129E-01  0.000000E+00
  6.459860E-01  3.359392E-03  5.000000E-01  6.525099E-01  3.317889E-03  0.000000E+00  8.481679E-03  6.681220E-04  7.422776E-19  2.037834E-01  0.000000E+00
  6.652460E-01  4.851346E-03  5.000000E-01  6.719644E-01  4.824910E-03  0.000000E+00  8.211109E-03  6.221766E-04  1.553719E-18  2.213829E-01  0.000000E+00
  6.840650E-01  6.241822E-03  5.000000E-01  6.909734E-01  6.229429E-03  0.000000E+00  7.943185E-03  5.827500E-04  9.328899E-19  2.342942E-01  0.000000E+00
  7.024070E-01  7.576291E-03  5.000000E-01  7.095007E-01  7.577375E-03  0.000000E+00  7.643891E-03  5.559879E-04  8.054457E-20  2.449245E-01  0.000000E+00
  7.202400E-01  8.875060E-03  5.000000E-01  7.275138E-01  8.889260E-03  0.000000E+00  7.302990E-03  5.300260E-04 -3.265623E-19  2.580015E-01  0.000000E+00
  7.375350E-01  1.012716E-02  5.000000E-01  7.449834E-01  1.015401E-02  0.000000E+00  6.932572E-03  4.952349E-04 -2.020586E-19  2.746254E-01  0.000000E+00
  7.542690E-01  1.130589E-02  5.000000E-01  7.618864E-01  1.134464E-02  0.000000E+00  6.559757E-03  4.494524E-04 -4.521015E-19  2.932090E-01  0.000000E+00
  7.704220E-01  1.237857E-02  5.000000E-01  7.782026E-01  1.242816E-02  0.000000E+00  6.220347E-03  3.941533E-04 -3.957727E-19  3.115351E-01  0.000000E+00
  7.859770E-01  1.331415E-02  5.000000E-01  7.939147E-01  1.337318E-02  0.000000E+00  5.958268E-03  3.232445E-04 -1.324583E-19  3.293155E-01  0.000000E+00
  8.009220E-01  1.403642E-02  5.000000E-01  8.090106E-01  1.410274E-02  0.000000E+00  5.818064E-03  2.271578E-04 -5.957073E-19  3.467030E-01  0.000000E+00
  8.152480E-01  1.446061E-02  5.000000E-01  8.234813E-01  1.453122E-02  0.000000E+00  5.817272E-03  1.129741E-04 -4.606283E-19  3.593468E-01  0.000000E+00
  8.289490E-01  1.458544E-02  5.000000E-01  8.373206E-01  1.465731E-02  0.000000E+00  5.937435E-03 -3.746502E-06 -2.622709E-19  3.635972E-01  0.000000E+00
  8.420260E-01  1.445285E-02  5.000000E-01  8.505297E-01  1.452338E-02  0.000000E+00  6.144935E-03 -1.156727E-04 -1.008627E-19  3.613272E-01  0.000000E+00
  8.544790E-01  1.411521E-02  5.000000E-01  8.631085E-01  1.418233E-02  0.000000E+00  6.406671E-03 -2.206616E-04  1.788020E-19  3.555334E-01  0.000000E+00
  8.663160E-01  1.362484E-02  5.000000E-01  8.750650E-01  1.368701E-02  0.000000E+00  6.692999E-03 -3.172566E-04  6.946823E-20  3.477656E-01  0.000000E+00
  8.775420E-01  1.302853E-02  5.000000E-01  8.864044E-01  1.308468E-02  0.000000E+00  6.978288E-03 -4.034294E-04 -2.787064E-20  3.387656E-01  0.000000E+00
  8.881660E-01  1.236634E-02  5.000000E-01  8.971357E-01  1.241580E-02  0.000000E+00  7.243045E-03 -4.771515E-04 -2.696115E-19  3.291508E-01  0.000000E+00
  8.981970E-01  1.167109E-02  5.000000E-01  9.072680E-01  1.171353E-02  0.000000E+00  7.476937E-03 -5.395166E-04 -2.571684E-19  3.197022E-01  0.000000E+00
  9.076460E-01  1.096344E-02  5.000000E-01  9.168124E-01  1.099873E-02  0.000000E+00  7.681107E-03 -5.965127E-04  1.737143E-19  3.113205E-01  0.000000E+00
  9.165220E-01  1.025041E-02  5.000000E-01  9.257781E-01  1.027850E-02  0.000000E+00  7.864611E-03 -6.538049E-04 -3.216716E-19  3.040408E-01  0.000000E+00
  9.165220E-01  1.025041E-02  5.000000E-01  9.257781E-01  1.027850E-02  0.000000E+00  7.864611E-03 -6.538049E-04 -3.216716E-19  3.040408E-01  0.000000E+00
  9.248360E-01  9.536344E-03  5.000000E-01  9.341760E-01  9.557223E-03  0.000000E+00  8.037405E-03 -7.132629E-04 -1.256767E-18  2.970893E-01  0.000000E+00
  9.325990E-01  8.825608E-03  5.000000E-01  9.420174E-01  8.839308E-03  0.000000E+00  8.207824E-03 -7.756635E-04 -1.375726E-18  2.900329E-01  0.000000E+00
  9.398210E-01  8.122242E-03  5.000000E-01  9.493124E-01  8.128839E-03  0.000000E+00  8.383177E-03 -8.419357E-04 -8.252732E-19  2.827816E-01  0.000000E+00
  9.465130E-01  7.430239E-03  5.000000E-01  9.560719E-01  7.429847E-03  0.000000E+00  8.569792E-03 -9.129037E-04  2.748645E-19  2.752259E-01  0.000000E+00
  9.526870E-01  6.753708E-03  5.000000E-01  9.623083E-01  6.746484E-03  0.000000E+00  8.772648E-03 -9.892189E-04  3.275222E-18  2.672193E-01  0.000000E+00
  9.583540E-01  6.097056E-03  5.000000E-01  9.680325E-01  6.083201E-03  0.000000E+00  8.995419E-03 -1.071334E-03  9.879416E-18  2.586319E-01  0.000000E+00
  9.635240E-01  5.465049E-03  5.000000E-01  9.732547E-01  5.444811E-03  0.000000E+00  9.240980E-03 -1.159355E-03  2.124558E-17  2.493421E-01  0.000000E+00
  9.682080E-01  4.862747E-03  5.000000E-01  9.779860E-01  4.836426E-03  0.000000E+00  9.513050E-03 -1.253546E-03  3.548143E-17  2.392956E-01  0.000000E+00
  9.724140E-01  4.295513E-03  5.000000E-01  9.822345E-01  4.263463E-03  0.000000E+00  9.818608E-03 -1.354436E-03  3.522340E-17  2.284867E-01  0.000000E+00
  9.761510E-01  3.768844E-03  5.000000E-01  9.860093E-01  3.731475E-03  0.000000E+00  1.016812E-02 -1.462468E-03 -3.149943E-17  2.168832E-01  0.000000E+00
  9.794290E-01  3.288184E-03  5.000000E-01  9.893204E-01  3.245961E-03  0.000000E+00  1.056867E-02 -1.578150E-03 -2.102720E-16  2.044954E-01  0.000000E+00
  9.822540E-01  2.858925E-03  5.000000E-01  9.921739E-01  2.812368E-03  0.000000E+00  1.100573E-02 -1.699625E-03 -3.442650E-16  1.915736E-01  0.000000E+00
  9.846330E-01  2.486095E-03  5.000000E-01  9.945769E-01  2.435772E-03  0.000000E+00  1.142436E-02 -1.815731E-03  2.917695E-17  1.793670E-01  0.000000E+00
  9.865710E-01  2.174268E-03  5.000000E-01  9.965345E-01  2.120795E-03  0.000000E+00  1.169061E-02 -1.892308E-03  9.230012E-16  1.667392E-01  0.000000E+00
  9.880740E-01  1.927377E-03  5.000000E-01  9.980527E-01  1.871412E-03  0.000000E+00  1.158634E-02 -1.921318E-03  6.996980E-16  1.474596E-01  0.000000E+00
  9.891450E-01  1.748638E-03  5.000000E-01  9.991345E-01  1.690867E-03  0.000000E+00  1.178684E-02 -2.059249E-03 -2.353972E-15  1.484187E-01  0.000000E+00
  9.897860E-01  1.640433E-03  5.000000E-01  9.997820E-01  1.581570E-03  0.000000E+00  1.516994E-02 -2.086742E-03 -5.198412E-15  1.958595E-01  0.000000E+00
  9.900000E-01  1.604200E-03  5.000000E-01  9.999981E-01  1.544971E-03  0.000000E+00  1.058515E-02 -4.472002E-03  1.128454E-15 -4.782274E-02  0.000000E+00
  9.900000E-01  1.682910E-03  5.000000E-01  9.999981E-01  1.624476E-03  0.000000E+00  1.059893E-03 -1.486148E-02  8.797506E-15 -1.856885E-01  0.000000E+00
  9.900000E-01  1.761631E-03  5.000000E-01  9.999981E-01  1.703991E-03  0.000000E+00 -5.271056E-04 -1.396562E-02  1.131852E-14 -9.860182E-03  0.000000E+00
  9.900000E-01  1.840351E-03  5.000000E-01  9.999981E-01  1.783507E-03  0.000000E+00 -2.989374E-04  2.412733E-03  1.262707E-14 -1.457074E-02  0.000000E+00
  9.900000E-01  1.919061E-03  5.000000E-01  9.999981E-01  1.863012E-03  0.000000E+00  7.099357E-04  3.833799E-03  9.361652E-15 -1.322661E-01  0.000000E+00
  9.900000E-01  1.997782E-03  5.000000E-01  9.999981E-01  1.942527E-03  0.000000E+00  5.874492E-03 -2.628813E-03  4.098417E-15 -3.874820E-02  0.000000E+00
  9.900000E-01  1.997782E-03  5.000000E-01  9.999981E-01  1.942527E-03  0.000000E+00  5.874492E-03 -2.628813E-03  4.098417E-15 -3.874820E-02  0.000000E+00
  9.897900E-01  2.043582E-03  5.000000E-01  9.997860E-01  1.988790E-03  0.000000E+00  7.647271E-03 -1.997122E-03 -8.315305E-17  1.026271E-01  0.000000E+00
  9.891580E-01  2.180941E-03  5.000000E-01  9.991476E-01  2.127537E-03  0.000000E+00  4.736827E-03 -9.683844E-04 -1.688028E-15  6.053355E-02  0.000000E+00
  9.881040E-01  2.409677E-03  5.000000E-01  9.980830E-01  2.358582E-03  0.000000E+00  3.974668E-03 -8.598874E-04 -8.005673E-16  5.088946E-02  0.000000E+00
  9.866260E-01  2.729488E-03  5.000000E-01  9.965900E-01  2.681624E-03  0.000000E+00  3.786766E-03 -8.234393E-04  8.283281E-17  5.264569E-02  0.000000E+00
  9.847200E-01  3.139945E-03  5.000000E-01  9.946648E-01  3.096225E-03  0.000000E+00  3.710108E-03 -7.961362E-04  1.847122E-16  4.733104E-02  0.000000E+00
  9.823820E-01  3.640432E-03  5.000000E-01  9.923032E-01  3.601767E-03  0.000000E+00  3.767930E-03 -8.031293E-04  4.609321E-17  3.924225E-02  0.000000E+00
  9.796080E-01  4.230110E-03  5.000000E-01  9.895012E-01  4.197400E-03  0.000000E+00  3.937096E-03 -8.332044E-04 -1.453460E-17  3.034913E-02  0.000000E+00
  9.763910E-01  4.907933E-03  5.000000E-01  9.862517E-01  4.882068E-03  0.000000E+00  4.175377E-03 -8.754227E-04 -1.295642E-17  2.014030E-02  0.000000E+00
  9.727270E-01  5.672460E-03  5.000000E-01  9.825507E-01  5.654316E-03  0.000000E+00  4.454954E-03 -9.239080E-04 -3.961919E-18  8.521216E-03  0.000000E+00
  9.686070E-01  6.522046E-03  5.000000E-01  9.783891E-01  6.512483E-03  0.000000E+00  4.759400E-03 -9.747122E-04  1.328939E-19 -4.266981E-03  0.000000E+00
  9.640240E-01  7.454583E-03  5.000000E-01  9.737598E-01  7.454437E-03  0.000000E+00  5.079772E-03 -1.025449E-03  1.319612E-18 -1.806668E-02  0.000000E+00
  9.589680E-01  8.467614E-03  5.000000E-01  9.686527E-01  8.477699E-03  0.000000E+00  5.412193E-03 -1.074930E-03  1.119938E-18 -3.273877E-02  0.000000E+00
  9.534310E-01  9.558197E-03  5.000000E-01  9.630598E-01  9.579296E-03  0.000000E+00  5.754847E-03 -1.122412E-03  1.061099E-18 -4.814222E-02  0.000000E+00
  9.474030E-01  1.072297E-02  5.000000E-01  9.569709E-01  1.075584E-02  0.000000E+00  6.105678E-03 -1.166899E-03  1.127902E-18 -6.404584E-02  0.000000E+00
  9.408720E-01  1.195815E-02  5.000000E-01  9.503740E-01  1.200348E-02  0.000000E+00  6.461204E-03 -1.207438E-03  1.222867E-18 -8.027178E-02  0.000000E+00
  9.338280E-01  1.325946E-02  5.000000E-01  9.432588E-01  1.331794E-02  0.000000E+00  6.816993E-03 -1.243080E-03  9.503447E-19 -9.665366E-02  0.000000E+00
  9.262600E-01  1.462232E-02  5.000000E-01  9.356144E-01  1.469456E-02  0.000000E+00  7.167802E-03 -1.272576E-03  7.773790E-21 -1.129465E-01  0.000000E+00
  9.181550E-01  1.604160E-02  5.000000E-01  9.274275E-01  1.612818E-02  0.000000E+00  7.507328E-03 -1.294800E-03 -6.820548E-19 -1.289555E-01  0.000000E+00
  9.095020E-01  1.751203E-02  5.000000E-01  9.186872E-01  1.761346E-02  0.000000E+00  7.828486E-03 -1.308649E-03 -5.105002E-19 -1.443707E-01  0.000000E+00
  9.002880E-01  1.902782E-02  5.000000E-01  9.093801E-01  1.914456E-02  0.000000E+00  8.122842E-03 -1.313182E-03 -2.417022E-19 -1.586692E-01  0.000000E+00
  8.905020E-01  2.058311E-02  5.000000E-01  8.994953E-01  2.071555E-02  0.000000E+00  8.380628E-03 -1.308979E-03 -6.768621E-19 -1.715230E-01  0.000000E+00
  8.801320E-01  2.217523E-02  5.000000E-01  8.890205E-01  2.232375E-02  0.000000E+00  8.593616E-03 -1.298457E-03 -1.724005E-19 -1.830057E-01  0.000000E+00
  8.691700E-01  2.380536E-02  5.000000E-01  8.779478E-01  2.397034E-02  0.000000E+00  8.758409E-03 -1.284217E-03  1.064473E-18 -1.933378E-01  0.000000E+00
  8.691700E-01  2.380536E-02  5.000000E-01  8.779478E-01  2.397034E-02  0.000000E+00  8.758409E-03 -1.284217E-03  1.064473E-18 -1.933378E-01  0.000000E+00
  8.576080E-01  2.547698E-02  5.000000E-01  8.662691E-01  2.565884E-02  0.000000E+00  8.877185E-03 -1.268601E-03  1.167134E-18 -2.026588E-01  0.000000E+00
  8.454380E-01  2.719610E-02  5.000000E-01  8.539762E-01  2.739532E-02  0.000000E+00  8.956937E-03 -1.254795E-03  2.819893E-19 -2.111738E-01  0.000000E+00
  8.326580E-01  2.897197E-02  5.000000E-01  8.410671E-01  2.918913E-02  0.000000E+00  9.009764E-03 -1.246648E-03  2.287968E-19 -2.194150E-01  0.000000E+00
  8.192630E-01  3.081777E-02  5.000000E-01  8.275368E-01  3.105357E-02  0.000000E+00  9.053871E-03 -1.248613E-03  8.986299E-19 -2.287216E-01  0.000000E+00
  8.052550E-01  3.275077E-02  5.000000E-01  8.133874E-01  3.300609E-02  0.000000E+00  9.114799E-03 -1.264090E-03  7.375500E-19 -2.410939E-01  0.000000E+00
  7.906370E-01  3.478739E-02  5.000000E-01  7.986217E-01  3.506328E-02  0.000000E+00  9.223184E-03 -1.291312E-03  9.909292E-19 -2.576858E-01  0.000000E+00
  7.754120E-01  3.692909E-02  5.000000E-01  7.832430E-01  3.722661E-02  0.000000E+00  9.404406E-03 -1.323694E-03  4.318708E-19 -2.781235E-01  0.000000E+00
  7.595880E-01  3.915760E-02  5.000000E-01  7.672592E-01  3.947763E-02  0.000000E+00  9.667444E-03 -1.355482E-03 -4.339692E-19 -3.017765E-01  0.000000E+00
  7.431760E-01  4.144848E-02  5.000000E-01  7.506814E-01  4.179164E-02  0.000000E+00  1.000459E-02 -1.382675E-03  1.529762E-19 -3.280640E-01  0.000000E+00
  7.261880E-01  4.377328E-02  5.000000E-01  7.335218E-01  4.413993E-02  0.000000E+00  1.039671E-02 -1.400516E-03  1.517999E-19 -3.556777E-01  0.000000E+00
  7.086430E-01  4.610074E-02  5.000000E-01  7.157997E-01  4.649089E-02  0.000000E+00  1.081716E-02 -1.404497E-03 -6.280501E-19 -3.826249E-01  0.000000E+00
  6.905640E-01  4.840008E-02  5.000000E-01  6.975381E-01  4.881345E-02  0.000000E+00  1.123673E-02 -1.393872E-03 -3.652204E-19 -4.074103E-01  0.000000E+00
  6.719770E-01  5.065002E-02  5.000000E-01  6.787634E-01  5.108611E-02  0.000000E+00  1.163222E-02 -1.375045E-03 -2.478097E-19 -4.307985E-01  0.000000E+00
  6.529150E-01  5.285045E-02  5.000000E-01  6.595089E-01  5.330876E-02  0.000000E+00  1.199971E-02 -1.355231E-03  4.645857E-20 -4.548425E-01  0.000000E+00
  6.334180E-01  5.500486E-02  5.000000E-01  6.398150E-01  5.548493E-02  0.000000E+00  1.235701E-02 -1.333406E-03  3.528756E-19 -4.805788E-01  0.000000E+00
  6.135280E-01  5.710070E-02  5.000000E-01  6.197241E-01  5.760193E-02  0.000000E+00  1.272750E-02 -1.305195E-03  8.471103E-20 -5.085251E-01  0.000000E+00
  5.932910E-01  5.911966E-02  5.000000E-01  5.992827E-01  5.964129E-02  0.000000E+00  1.312769E-02 -1.266990E-03  7.784384E-19 -5.385893E-01  0.000000E+00
  5.727570E-01  6.103634E-02  5.000000E-01  5.785413E-01  6.157733E-02  0.000000E+00  1.356283E-02 -1.213318E-03  4.493504E-19 -5.687252E-01  0.000000E+00
  5.519810E-01  6.281811E-02  5.000000E-01  5.575555E-01  6.337709E-02  0.000000E+00  1.402211E-02 -1.139398E-03 -1.773984E-19 -5.961311E-01  0.000000E+00
  5.310180E-01  6.443134E-02  5.000000E-01  5.363808E-01  6.500661E-02  0.000000E+00  1.447965E-02 -1.051213E-03  1.126513E-19 -6.212052E-01  0.000000E+00
  5.099250E-01  6.587248E-02  5.000000E-01  5.150748E-01  6.646230E-02  0.000000E+00  1.491655E-02 -9.614240E-04 -1.257935E-19 -6.475197E-01  0.000000E+00
  4.887640E-01  6.715539E-02  5.000000E-01  4.937001E-01  6.775817E-02  0.000000E+00  1.534485E-02 -8.671745E-04 -4.835908E-19 -6.760109E-01  0.000000E+00
  4.675910E-01  6.826765E-02  5.000000E-01  4.723133E-01  6.888166E-02  0.000000E+00  1.578903E-02 -7.534562E-04 -1.110652E-18 -7.041316E-01  0.000000E+00
  7.860720E-05 -4.429420E-04  5.000000E-01  7.940615E-05 -5.228455E-04  0.000000E+00 -1.120825E-02  3.621865E-02  1.438667E-14  7.932571E-01  0.000000E+00
  3.989240E-04 -1.047651E-03  5.000000E-01  4.029579E-04 -1.133662E-03  0.000000E+00 -1.020721E-02  1.600354E-02 -3.216964E-15  1.080946E+00  0.000000E+00
  1.196920E-03 -1.780395E-03  5.000000E-01  1.209013E-03 -1.873805E-03  0.000000E+00 -2.679340E-03  2.805945E-03 -3.717450E-15  1.079429E+00  0.000000E+00
  2.563580E-03 -2.548852E-03  5.000000E-01  2.589475E-03 -2.650023E-03  0.000000E+00  4.651540E-03 -2.018921E-03  1.925089E-16  9.356317E-01  0.000000E+00
  4.492740E-03 -3.312139E-03  5.000000E-01  4.538118E-03 -3.421019E-03  0.000000E+00  8.998867E-03 -3.106255E-03  1.449331E-15  8.112503E-01  0.000000E+00
  6.952190E-03 -4.066952E-03  5.000000E-01  7.022406E-03 -4.183455E-03  0.000000E+00  1.118196E-02 -3.150795E-03 -2.410153E-19  7.248634E-01  0.000000E+00
  9.910730E-03 -4.834947E-03  5.000000E-01  1.001082E-02 -4.959206E-03  0.000000E+00  1.231281E-02 -3.035650E-03 -1.760111E-15  6.567808E-01  0.000000E+00
  1.334950E-02 -5.641547E-03  5.000000E-01  1.348432E-02 -5.773952E-03  0.000000E+00  1.298123E-02 -2.873844E-03 -2.287507E-15  5.899244E-01  0.000000E+00
  1.728780E-02 -6.465348E-03  5.000000E-01  1.746240E-02 -6.606072E-03  0.000000E+00  1.337975E-02 -2.581401E-03 -1.761662E-15  5.177347E-01  0.000000E+00
  2.175590E-02 -7.256449E-03  5.000000E-01  2.197562E-02 -7.405163E-03  0.000000E+00  1.356226E-02 -2.176023E-03 -9.696414E-16  4.504983E-01  0.000000E+00
  2.676920E-02 -7.976656E-03  5.000000E-01  2.703955E-02 -8.132643E-03  0.000000E+00  1.359618E-02 -1.757896E-03 -3.521920E-16  3.996630E-01  0.000000E+00
  3.232800E-02 -8.614257E-03  5.000000E-01  3.265449E-02 -8.776684E-03  0.000000E+00  1.355404E-02 -1.400619E-03  1.074869E-17  3.661586E-01  0.000000E+00
  3.842930E-02 -9.175147E-03  5.000000E-01  3.881741E-02 -9.343238E-03  0.000000E+00  1.347888E-02 -1.125327E-03  1.649904E-16  3.438161E-01  0.000000E+00
  4.507220E-02 -9.673556E-03  5.000000E-01  4.552739E-02 -9.846680E-03  0.000000E+00  1.340298E-02 -9.388426E-04  1.835162E-16  3.280055E-01  0.000000E+00
  5.225680E-02 -1.014033E-02  5.000000E-01  5.278455E-02 -1.031816E-02  0.000000E+00  1.336259E-02 -8.388909E-04  1.385082E-16  3.161037E-01  0.000000E+00
  5.998640E-02 -1.060899E-02  5.000000E-01  6.059221E-02 -1.079156E-02  0.000000E+00  1.336532E-02 -7.877218E-04  8.082651E-17  3.028422E-01  0.000000E+00
  6.827110E-02 -1.108431E-02  5.000000E-01  6.896058E-02 -1.127168E-02  0.000000E+00  1.338640E-02 -7.433449E-04  3.628590E-17  2.853099E-01  0.000000E+00
  7.712280E-02 -1.155950E-02  5.000000E-01  7.790168E-02 -1.175167E-02  0.000000E+00  1.340374E-02 -6.949302E-04  1.050534E-17  2.663216E-01  0.000000E+00
  8.655260E-02 -1.203047E-02  5.000000E-01  8.742671E-02 -1.222740E-02  0.000000E+00  1.340472E-02 -6.417442E-04 -6.515426E-19  2.483631E-01  0.000000E+00
  9.657140E-02 -1.248950E-02  5.000000E-01  9.754669E-02 -1.269106E-02  0.000000E+00  1.337420E-02 -5.745821E-04 -2.845452E-18  2.309918E-01  0.000000E+00
  1.071900E-01 -1.291572E-02  5.000000E-01  1.082725E-01 -1.312158E-02  0.000000E+00  1.330451E-02 -4.915771E-04 -1.782072E-18  2.144938E-01  0.000000E+00
  1.184180E-01 -1.329406E-02  5.000000E-01  1.196139E-01 -1.350375E-02  0.000000E+00  1.321186E-02 -4.093098E-04 -8.852365E-20  2.010997E-01  0.000000E+00
  1.302610E-01 -1.362801E-02  5.000000E-01  1.315765E-01 -1.384107E-02  0.000000E+00  1.312354E-02 -3.435988E-04  8.154241E-19  1.911152E-01  0.000000E+00
  1.427230E-01 -1.392890E-02  5.000000E-01  1.441644E-01 -1.414500E-02  0.000000E+00  1.305632E-02 -2.984906E-04  6.798473E-19  1.826611E-01  0.000000E+00
  1.427230E-01 -1.392890E-02  5.000000E-01  1.441644E-01 -1.414500E-02  0.000000E+00  1.305632E-02 -2.984906E-04  6.798473E-19  1.826611E-01  0.000000E+00
  1.558070E-01 -1.421142E-02  5.000000E-01  1.573805E-01 -1.443038E-02  0.000000E+00  1.300549E-02 -2.653575E-04  7.290485E-19  1.735048E-01  0.000000E+00
  1.695140E-01 -1.447534E-02  5.000000E-01  1.712259E-01 -1.469696E-02  0.000000E+00  1.294800E-02 -2.278269E-04  1.117503E-18  1.624392E-01  0.000000E+00
  1.838420E-01 -1.470383E-02  5.000000E-01  1.856986E-01 -1.492776E-02  0.000000E+00  1.286026E-02 -1.742260E-04  1.275470E-18  1.504643E-01  0.000000E+00
  1.987870E-01 -1.487022E-02  5.000000E-01  2.007946E-01 -1.509583E-02  0.000000E+00  1.273382E-02 -1.024399E-04  1.017782E-18  1.394605E-01  0.000000E+00
  2.143420E-01 -1.494658E-02  5.000000E-01  2.165067E-01 -1.517296E-02  0.000000E+00  1.258524E-02 -2.585259E-05  5.880909E-19  1.314811E-01  0.000000E+00
  2.304940E-01 -1.493205E-02  5.000000E-01  2.328218E-01 -1.515828E-02  0.000000E+00  1.245196E-02  3.084163E-05 -2.380291E-19  1.279016E-01  0.000000E+00
  2.472290E-01 -1.486307E-02  5.000000E-01  2.497258E-01 -1.508860E-02  0.000000E+00  1.236455E-02  5.668307E-05 -9.724655E-19  1.268011E-01  0.000000E+00
  2.645310E-01 -1.477644E-02  5.000000E-01  2.672025E-01 -1.500110E-02  0.000000E+00  1.232146E-02  6.811660E-05 -1.182769E-18  1.235945E-01  0.000000E+00
  2.823750E-01 -1.467012E-02  5.000000E-01  2.852267E-01 -1.489371E-02  0.000000E+00  1.229551E-02  9.096577E-05 -1.576089E-18  1.158725E-01  0.000000E+00
  3.007320E-01 -1.450837E-02  5.000000E-01  3.037691E-01 -1.473033E-02  0.000000E+00  1.225949E-02  1.360472E-04 -1.786854E-18  1.058868E-01  0.000000E+00
  3.195690E-01 -1.425547E-02  5.000000E-01  3.227964E-01 -1.447487E-02  0.000000E+00  1.219805E-02  1.979603E-04 -1.875077E-18  9.729615E-02  0.000000E+00
  3.388440E-01 -1.388752E-02  5.000000E-01  3.422660E-01 -1.410321E-02  0.000000E+00  1.210294E-02  2.663088E-04 -2.287416E-18  9.190008E-02  0.000000E+00
  3.585140E-01 -1.339661E-02  5.000000E-01  3.621347E-01 -1.360734E-02  0.000000E+00  1.196427E-02  3.344898E-04 -2.178983E-18  8.936830E-02  0.000000E+00
  3.785290E-01 -1.277667E-02  5.000000E-01  3.823518E-01 -1.298113E-02  0.000000E+00  1.176811E-02  4.013809E-04 -1.972473E-18  8.869247E-02  0.000000E+00
  3.988350E-01 -1.201934E-02  5.000000E-01  4.028629E-01 -1.221615E-02  0.000000E+00  1.150619E-02  4.667084E-04 -1.826063E-18  9.004714E-02  0.000000E+00
  4.193750E-01 -1.111748E-02  5.000000E-01  4.236103E-01 -1.130518E-02  0.000000E+00  1.118502E-02  5.334694E-04 -1.112800E-18  9.383470E-02  0.000000E+00
  4.400850E-01 -1.004938E-02  5.000000E-01  4.445295E-01 -1.022630E-02  0.000000E+00  1.083546E-02  6.003086E-04 -3.898198E-19  1.005642E-01  0.000000E+00
  4.609060E-01 -8.813008E-03  5.000000E-01  4.655607E-01 -8.977442E-03  0.000000E+00  1.051728E-02  6.464312E-04  5.936153E-20  1.119578E-01  0.000000E+00
  4.818030E-01 -7.481040E-03  5.000000E-01  4.866688E-01 -7.632022E-03  0.000000E+00  1.029462E-02  6.431014E-04  6.332232E-19  1.285178E-01  0.000000E+00
  5.027520E-01 -6.197817E-03  5.000000E-01  5.078293E-01 -6.335840E-03  0.000000E+00  1.018071E-02  5.953927E-04  1.051746E-19  1.444896E-01  0.000000E+00
  5.237130E-01 -5.034509E-03  5.000000E-01  5.290020E-01 -5.160783E-03  0.000000E+00  1.010993E-02  5.549742E-04 -7.579017E-19  1.506824E-01  0.000000E+00
  5.446170E-01 -3.905563E-03  5.000000E-01  5.501171E-01 -4.020435E-03  0.000000E+00  9.987624E-03  5.661986E-04 -5.249862E-19  1.464458E-01  0.000000E+00
  5.653940E-01 -2.669642E-03  5.000000E-01  5.711040E-01 -2.772033E-03  0.000000E+00  9.768901E-03  6.152729E-04 -8.525150E-19  1.433904E-01  0.000000E+00
  4.675910E-01  6.826765E-02  5.000000E-01  4.723133E-01  6.888166E-02  0.000000E+00  1.578903E-02 -7.534562E-04 -1.110652E-18 -7.041316E-01  0.000000E+00
  4.464640E-01  6.917764E-02  5.000000E-01  4.509729E-01  6.980084E-02  0.000000E+00  1.625319E-02 -6.177869E-04 -1.843417E-18 -7.306946E-01  0.000000E+00
  4.254410E-01  6.987320E-02  5.000000E-01  4.297376E-01  7.050343E-02  0.000000E+00  1.672625E-02 -4.668287E-04 -2.122202E-18 -7.563303E-01  0.000000E+00
  4.045840E-01  7.035006E-02  5.000000E-01  4.086699E-01  7.098510E-02  0.000000E+00  1.719933E-02 -3.027862E-04 -2.846112E-18 -7.815286E-01  0.000000E+00
  3.839530E-01  7.060735E-02  5.000000E-01  3.878306E-01  7.124499E-02  0.000000E+00  1.766963E-02 -1.232365E-04 -3.366933E-18 -8.061026E-01  0.000000E+00
  3.636060E-01  7.064026E-02  5.000000E-01  3.672781E-01  7.127823E-02  0.000000E+00  1.813736E-02  7.541776E-05 -3.575687E-18 -8.290607E-01  0.000000E+00
  3.435960E-01  7.044475E-02  5.000000E-01  3.470660E-01  7.108075E-02  0.000000E+00  1.859947E-02  2.943914E-04 -4.111074E-18 -8.494018E-01  0.000000E+00
  3.239710E-01  7.001838E-02  5.000000E-01  3.272428E-01  7.065007E-02  0.000000E+00  1.904712E-02  5.291527E-04 -4.586178E-18 -8.674717E-01  0.000000E+00
  3.047740E-01  6.937091E-02  5.000000E-01  3.078519E-01  6.999606E-02  0.000000E+00  1.947432E-02  7.726666E-04 -4.792756E-18 -8.846915E-01  0.000000E+00
  2.860450E-01  6.851847E-02  5.000000E-01  2.889338E-01  6.913502E-02  0.000000E+00  1.988980E-02  1.028916E-03 -4.444564E-18 -9.008929E-01  0.000000E+00
  2.678190E-01  6.746494E-02  5.000000E-01  2.705237E-01  6.807084E-02  0.000000E+00  2.030396E-02  1.305212E-03 -3.792967E-18 -9.151456E-01  0.000000E+00
  2.501300E-01  6.621558E-02  5.000000E-01  2.526561E-01  6.680887E-02  0.000000E+00  2.071605E-02  1.600469E-03 -2.729240E-18 -9.278555E-01  0.000000E+00
  2.330040E-01  6.478085E-02  5.000000E-01  2.353571E-01  6.535965E-02  0.000000E+00  2.112225E-02  1.911943E-03 -1.261388E-18 -9.399360E-01  0.000000E+00
  2.164660E-01  6.317371E-02  5.000000E-01  2.186521E-01  6.373627E-02  0.000000E+00  2.152404E-02  2.239923E-03  9.491563E-19 -9.512825E-01  0.000000E+00
  2.005340E-01  6.140810E-02  5.000000E-01  2.025592E-01  6.195284E-02  0.000000E+00  2.193155E-02  2.594992E-03  3.625972E-18 -9.589583E-01  0.000000E+00
  1.852230E-01  5.948503E-02  5.000000E-01  1.870936E-01  6.001035E-02  0.000000E+00  2.234362E-02  2.982406E-03  5.063867E-18 -9.605493E-01  0.000000E+00
  1.705440E-01  5.741292E-02  5.000000E-01  1.722663E-01  5.791731E-02  0.000000E+00  2.273952E-02  3.384963E-03  4.033249E-18 -9.595558E-01  0.000000E+00
  1.565000E-01  5.521509E-02  5.000000E-01  1.580805E-01  5.569728E-02  0.000000E+00  2.311444E-02  3.787456E-03  2.074485E-18 -9.634972E-01  0.000000E+00
  1.430940E-01  5.291895E-02  5.000000E-01  1.445391E-01  5.337796E-02  0.000000E+00  2.350958E-02  4.213050E-03  5.833812E-18 -9.754524E-01  0.000000E+00
  1.303270E-01  5.053063E-02  5.000000E-01  1.316432E-01  5.096552E-02  0.000000E+00  2.398470E-02  4.730106E-03  1.524915E-17 -9.864631E-01  0.000000E+00
  1.182110E-01  4.802205E-02  5.000000E-01  1.194048E-01  4.843160E-02  0.000000E+00  2.452453E-02  5.375394E-03  1.986922E-17 -9.820110E-01  0.000000E+00
  1.067560E-01  4.537816E-02  5.000000E-01  1.078341E-01  4.576101E-02  0.000000E+00  2.500285E-02  6.104535E-03  1.484413E-17 -9.533213E-01  0.000000E+00
  9.596750E-02  4.260397E-02  5.000000E-01  9.693669E-02  4.295880E-02  0.000000E+00  2.524505E-02  6.779809E-03  1.482415E-17 -9.083851E-01  0.000000E+00
  8.582800E-02  3.976336E-02  5.000000E-01  8.669479E-02  4.008950E-02  0.000000E+00  2.518470E-02  7.278837E-03  1.567954E-17 -8.654913E-01  0.000000E+00
  8.582800E-02  3.976336E-02  5.000000E-01  8.669479E-02  4.008950E-02  0.000000E+00  2.518470E-02  7.278837E-03  1.567954E-17 -8.654913E-01  0.000000E+00
  7.631050E-02  3.692611E-02  5.000000E-01  7.708117E-02  3.722360E-02  0.000000E+00  2.495157E-02  7.671610E-03  1.045665E-17 -8.286168E-01  0.000000E+00
  6.740780E-02  3.410537E-02  5.000000E-01  6.808856E-02  3.437437E-02  0.000000E+00  2.470517E-02  8.088699E-03 -7.151043E-18 -7.909813E-01  0.000000E+00
  5.911740E-02  3.130312E-02  5.000000E-01  5.971444E-02  3.154383E-02  0.000000E+00  2.449757E-02  8.553334E-03 -6.500619E-17 -7.498305E-01  0.000000E+00
  5.143150E-02  2.853360E-02  5.000000E-01  5.195092E-02  2.874633E-02  0.000000E+00  2.430865E-02  9.034022E-03 -1.867850E-16 -7.058791E-01  0.000000E+00
  4.433770E-02  2.581669E-02  5.000000E-01  4.478548E-02  2.600199E-02  0.000000E+00  2.410235E-02  9.507055E-03 -4.235582E-16 -6.616670E-01  0.000000E+00
  3.782240E-02  2.317145E-02  5.000000E-01  3.820438E-02  2.333003E-02  0.000000E+00  2.385961E-02  9.974753E-03 -8.703326E-16 -6.209650E-01  0.000000E+00
  3.187460E-02  2.061154E-02  5.000000E-01  3.219651E-02  2.074427E-02  0.000000E+00  2.359280E-02  1.046288E-02 -1.617392E-15 -5.867326E-01  0.000000E+00
  2.648400E-02  1.814868E-02  5.000000E-01  2.675147E-02  1.825654E-02  0.000000E+00  2.333531E-02  1.103812E-02 -2.609985E-15 -5.529570E-01  0.000000E+00
  2.164990E-02  1.578443E-02  5.000000E-01  2.186855E-02  1.586841E-02  0.000000E+00  2.305876E-02  1.175418E-02 -3.380590E-15 -5.027545E-01  0.000000E+00
  1.737670E-02  1.351889E-02  5.000000E-01  1.755219E-02  1.357998E-02  0.000000E+00  2.260680E-02  1.246965E-02 -2.961574E-15 -4.302510E-01  0.000000E+00
  1.364080E-02  1.137648E-02  5.000000E-01  1.377856E-02  1.141594E-02  0.000000E+00  2.183790E-02  1.290458E-02 -4.917637E-16 -3.545771E-01  0.000000E+00
  1.039090E-02  9.395294E-03  5.000000E-01  1.049584E-02  9.414748E-03  0.000000E+00  2.082171E-02  1.300967E-02  4.232072E-15 -3.002588E-01  0.000000E+00
  7.586340E-03  7.597141E-03  5.000000E-01  7.662960E-03  7.598435E-03  0.000000E+00  1.981907E-02  1.314664E-02  1.240763E-14 -2.724343E-01  0.000000E+00
  5.226210E-03  5.976896E-03  5.000000E-01  5.278995E-03  5.961827E-03  0.000000E+00  1.913524E-02  1.386064E-02  2.825644E-14 -2.623236E-01  0.000000E+00
  3.324300E-03  4.524735E-03  5.000000E-01  3.357878E-03  4.495001E-03  0.000000E+00  1.904890E-02  1.574907E-02  5.268968E-14 -2.616143E-01  0.000000E+00
  1.883580E-03  3.242894E-03  5.000000E-01  1.902608E-03  3.200214E-03  0.000000E+00  1.958955E-02  1.966162E-02  7.272033E-14 -2.466273E-01  0.000000E+00
  8.951490E-04  2.143971E-03  5.000000E-01  9.041943E-04  2.090193E-03  0.000000E+00  1.976168E-02  2.632269E-02  7.600113E-14 -1.665286E-01  0.000000E+00
  3.201820E-04  1.252583E-03  5.000000E-01  3.234206E-04  1.189802E-03  0.000000E+00  1.719259E-02  3.449685E-02  7.808177E-14  1.936188E-02  0.000000E+00
  6.852390E-05  5.988696E-04  5.000000E-01  6.922101E-05  5.294874E-04  0.000000E+00  1.088938E-02  3.989494E-02  9.198885E-14  2.439228E-01  0.000000E+00
  4.217600E-06  2.052400E-04  5.000000E-01  4.265277E-06  1.318826E-04  0.000000E+00  4.098708E-03  4.142128E-02  9.594993E-14  3.230347E-01  0.000000E+00
 -5.032520E-09  7.467606E-05  5.000000E-01  0.000000E+00  0.000000E+00  0.000000E+00 -6.893952E-04  4.739758E-02  7.902479E-14  2.795109E-01  0.000000E+00
  5.154440E-06 -5.625905E-05  5.000000E-01  5.211579E-06 -1.322574E-04  0.000000E+00 -5.888163E-03  5.010891E-02  4.811508E-14  4.164614E-01  0.000000E+00