 Title = "ADflow Slice Data"
Variables =  "CoordinateX"  "CoordinateY"  "CoordinateZ"  "XoC"  "YoC"  "ZoC" "VelocityX" "VelocityY" "VelocityZ" "CoefPressure" "Mach" 
Zone T= "Slice_0001 None Absolute Regular z = 0.50000000"
 Nodes =          192  Elements=          184  ZONETYPE=FELINESEG
 DATAPACKING=POINT
  5.653940E-01 -1.279045E-02  5.000000E-01  5.711039E-01 -1.298891E-02  0.000000E+00  1.383319E-02 -7.629134E-04  7.678088E-20  1.076549E-02  0.000000E+00
  5.859770E-01 -1.362697E-02  5.000000E-01  5.918948E-01 -1.383388E-02  0.000000E+00  1.398308E-02 -3.718036E-04  2.155615E-19 -2.868842E-02  0.000000E+00
  6.063060E-01 -1.387917E-02  5.000000E-01  6.124291E-01 -1.408862E-02  0.000000E+00  1.383657E-02  5.608061E-06  4.107304E-19 -4.280886E-02  0.000000E+00
  6.263240E-01 -1.361057E-02  5.000000E-01  6.326493E-01 -1.381731E-02  0.000000E+00  1.348635E-02  3.256471E-04 -4.127152E-19 -4.113890E-02  0.000000E+00
  6.459860E-01 -1.291865E-02  5.000000E-01  6.525098E-01 -1.311841E-02  0.000000E+00  1.300085E-02  5.749376E-04 -1.265261E-18 -3.022445E-02  0.000000E+00
  6.652460E-01 -1.188653E-02  5.000000E-01  6.719644E-01 -1.207586E-02  0.000000E+00  1.239313E-02  7.733807E-04 -1.551893E-18 -1.498511E-02  0.000000E+00
  6.840650E-01 -1.053934E-02  5.000000E-01  6.909734E-01 -1.071507E-02  0.000000E+00  1.163143E-02  9.466958E-04 -1.414527E-18  2.223356E-03  0.000000E+00
  7.024070E-01 -8.853498E-03  5.000000E-01  7.095006E-01 -9.012197E-03  0.000000E+00  1.069385E-02  1.086326E-03 -1.033404E-18  2.517054E-02  0.000000E+00
  7.202400E-01 -6.849637E-03  5.000000E-01  7.275137E-01 -6.988099E-03  0.000000E+00  9.602727E-03  1.161300E-03 -4.083165E-19  5.888269E-02  0.000000E+00
  7.375350E-01 -4.589297E-03  5.000000E-01  7.449834E-01 -4.704932E-03  0.000000E+00  8.415722E-03  1.158322E-03 -6.357663E-19  1.025765E-01  0.000000E+00
  7.542690E-01 -2.151558E-03  5.000000E-01  7.618864E-01 -2.242574E-03  0.000000E+00  7.213020E-03  1.088106E-03 -9.893753E-19  1.518068E-01  0.000000E+00
  7.704220E-01  3.811989E-04  5.000000E-01  7.782025E-01  3.157619E-04  0.000000E+00  6.084212E-03  9.738434E-04 -2.374897E-20  2.015311E-01  0.000000E+00
  7.859770E-01  2.930903E-03  5.000000E-01  7.939146E-01  2.891215E-03  0.000000E+00  5.126455E-03  8.301624E-04  1.850199E-19  2.508790E-01  0.000000E+00
  8.009220E-01  5.322638E-03  5.000000E-01  8.090105E-01  5.307104E-03  0.000000E+00  4.428175E-03  6.690359E-04 -4.730666E-19  2.998009E-01  0.000000E+00
  8.152480E-01  7.340325E-03  5.000000E-01  8.234812E-01  7.345168E-03  0.000000E+00  4.018150E-03  5.156956E-04  1.028853E-19  3.400435E-01  0.000000E+00
  8.289490E-01  8.906757E-03  5.000000E-01  8.373206E-01  8.927420E-03  0.000000E+00  3.856453E-03  3.871104E-04  3.415555E-19  3.650234E-01  0.000000E+00
  8.420260E-01  1.003287E-02  5.000000E-01  8.505297E-01  1.006490E-02  0.000000E+00  3.879248E-03  2.802933E-04 -5.763918E-19  3.780592E-01  0.000000E+00
  8.544790E-01  1.076668E-02  5.000000E-01  8.631084E-01  1.080613E-02  0.000000E+00  4.030396E-03  1.861190E-04 -8.320429E-20  3.843938E-01  0.000000E+00
  8.663160E-01  1.117099E-02  5.000000E-01  8.750650E-01  1.121452E-02  0.000000E+00  4.265311E-03  9.762309E-05  8.484169E-20  3.865422E-01  0.000000E+00
  8.775420E-01  1.130920E-02  5.000000E-01  8.864043E-01  1.135412E-02  0.000000E+00  4.547366E-03  1.190183E-05 -4.143480E-19  3.854265E-01  0.000000E+00
  8.881660E-01  1.124037E-02  5.000000E-01  8.971356E-01  1.128460E-02  0.000000E+00  4.847926E-03 -7.105480E-05 -1.853276E-19  3.817674E-01  0.000000E+00
  8.981970E-01  1.101621E-02  5.000000E-01  9.072679E-01  1.105817E-02  0.000000E+00  5.148639E-03 -1.516345E-04 -2.362563E-19  3.764983E-01  0.000000E+00
  9.076460E-01  1.067494E-02  5.000000E-01  9.168124E-01  1.071346E-02  0.000000E+00  5.443072E-03 -2.329109E-04  4.690163E-19  3.706705E-01  0.000000E+00
  9.165220E-01  1.023927E-02  5.000000E-01  9.257780E-01  1.027339E-02  0.000000E+00  5.733437E-03 -3.179733E-04  7.224007E-19  3.645496E-01  0.000000E+00
  9.165220E-01  1.023927E-02  5.000000E-01  9.257780E-01  1.027339E-02  0.000000E+00  5.733437E-03 -3.179733E-04  7.224007E-19  3.645496E-01  0.000000E+00
  9.248360E-01  9.727634E-03  5.000000E-01  9.341760E-01  9.756587E-03  0.000000E+00  6.024382E-03 -4.076336E-04  3.592939E-19  3.576716E-01  0.000000E+00
  9.325990E-01  9.156944E-03  5.000000E-01  9.420174E-01  9.180133E-03  0.000000E+00  6.320417E-03 -5.021027E-04  6.821688E-19  3.498384E-01  0.000000E+00
  9.398210E-01  8.542390E-03  5.000000E-01  9.493123E-01  8.559373E-03  0.000000E+00  6.626130E-03 -6.018978E-04  6.055061E-20  3.411077E-01  0.000000E+00
  9.465130E-01  7.897838E-03  5.000000E-01  9.560719E-01  7.908312E-03  0.000000E+00  6.945924E-03 -7.076284E-04 -6.644939E-19  3.314804E-01  0.000000E+00
  9.526870E-01  7.236083E-03  5.000000E-01  9.623082E-01  7.239874E-03  0.000000E+00  7.283457E-03 -8.198509E-04 -2.841180E-19  3.209130E-01  0.000000E+00
  9.583540E-01  6.569103E-03  5.000000E-01  9.680325E-01  6.566158E-03  0.000000E+00  7.641597E-03 -9.390083E-04 -1.054452E-19  3.093650E-01  0.000000E+00
  9.635240E-01  5.908229E-03  5.000000E-01  9.732547E-01  5.898610E-03  0.000000E+00  8.022953E-03 -1.065296E-03 -9.573905E-19  2.967858E-01  0.000000E+00
  9.682080E-01  5.264170E-03  5.000000E-01  9.779860E-01  5.248046E-03  0.000000E+00  8.431614E-03 -1.199130E-03 -7.327425E-19  2.831797E-01  0.000000E+00
  9.724140E-01  4.647123E-03  5.000000E-01  9.822345E-01  4.624767E-03  0.000000E+00  8.875610E-03 -1.341338E-03 -2.070702E-19  2.685877E-01  0.000000E+00
  9.761510E-01  4.066666E-03  5.000000E-01  9.860092E-01  4.038448E-03  0.000000E+00  9.367012E-03 -1.492872E-03 -3.087265E-19  2.530151E-01  0.000000E+00
  9.794290E-01  3.531626E-03  5.000000E-01  9.893203E-01  3.498005E-03  0.000000E+00  9.914498E-03 -1.654675E-03 -7.439581E-19  2.364958E-01  0.000000E+00
  9.822540E-01  3.050231E-03  5.000000E-01  9.921738E-01  3.011749E-03  0.000000E+00  1.050450E-02 -1.824727E-03 -1.375739E-18  2.193104E-01  0.000000E+00
  9.846330E-01  2.629793E-03  5.000000E-01  9.945769E-01  2.587065E-03  0.000000E+00  1.108125E-02 -1.990270E-03 -4.013656E-19  2.027404E-01  0.000000E+00
  9.865710E-01  2.276731E-03  5.000000E-01  9.965344E-01  2.230437E-03  0.000000E+00  1.150597E-02 -2.112870E-03  1.371082E-18  1.856232E-01  0.000000E+00
  9.880740E-01  1.996370E-03  5.000000E-01  9.980526E-01  1.947245E-03  0.000000E+00  1.155005E-02 -2.177304E-03 -1.280860E-18  1.619271E-01  0.000000E+00
  9.891450E-01  1.792997E-03  5.000000E-01  9.991344E-01  1.741817E-03  0.000000E+00  1.186900E-02 -2.348154E-03 -2.197063E-17  1.592413E-01  0.000000E+00
  9.897860E-01  1.669740E-03  5.000000E-01  9.997819E-01  1.617316E-03  0.000000E+00  1.527950E-02 -2.461464E-03 -6.918996E-17  2.024225E-01  0.000000E+00
  9.900000E-01  1.628430E-03  5.000000E-01  9.999981E-01  1.575589E-03  0.000000E+00  1.063508E-02 -4.823519E-03 -7.854519E-17 -4.553853E-02  0.000000E+00
  9.900000E-01  1.707140E-03  5.000000E-01  9.999981E-01  1.655094E-03  0.000000E+00  1.062344E-03 -1.513655E-02 -1.035237E-18 -1.846124E-01  0.000000E+00
  9.900000E-01  1.785861E-03  5.000000E-01  9.999981E-01  1.734609E-03  0.000000E+00 -5.279670E-04 -1.443437E-02  7.626875E-17 -9.471011E-03  0.000000E+00
  9.900000E-01  1.864581E-03  5.000000E-01  9.999981E-01  1.814125E-03  0.000000E+00 -2.801179E-04  1.550392E-03  9.170753E-17 -1.428462E-02  0.000000E+00
  9.900000E-01  1.943291E-03  5.000000E-01  9.999981E-01  1.893630E-03  0.000000E+00  6.743701E-04  3.212272E-03  1.202899E-16 -1.256594E-01  0.000000E+00
  9.900000E-01  2.022011E-03  5.000000E-01  9.999981E-01  1.973145E-03  0.000000E+00  5.450628E-03 -2.720911E-03  1.579766E-16 -3.671297E-02  0.000000E+00
  9.900000E-01  2.022011E-03  5.000000E-01  9.999981E-01  1.973145E-03  0.000000E+00  5.450628E-03 -2.720911E-03  1.579766E-16 -3.671297E-02  0.000000E+00
  9.897900E-01  2.072835E-03  5.000000E-01  9.997859E-01  2.024482E-03  0.000000E+00  6.986913E-03 -2.002092E-03  1.146829E-16  9.541580E-02  0.000000E+00
  9.891580E-01  2.225175E-03  5.000000E-01  9.991475E-01  2.178360E-03  0.000000E+00  4.170117E-03 -9.458615E-04  4.061847E-17  5.379902E-02  0.000000E+00
  9.881040E-01  2.478436E-03  5.000000E-01  9.980829E-01  2.434179E-03  0.000000E+00  3.426485E-03 -8.197049E-04  5.935447E-18  4.265754E-02  0.000000E+00
  9.866260E-01  2.831667E-03  5.000000E-01  9.965900E-01  2.790977E-03  0.000000E+00  3.275971E-03 -7.855002E-04 -2.038218E-18  4.196903E-02  0.000000E+00
  9.847200E-01  3.283528E-03  5.000000E-01  9.946647E-01  3.247402E-03  0.000000E+00  3.271018E-03 -7.710666E-04 -2.124416E-18  3.399890E-02  0.000000E+00
  9.823820E-01  3.832164E-03  5.000000E-01  9.923031E-01  3.801579E-03  0.000000E+00  3.423896E-03 -7.977710E-04 -1.922951E-18  2.266318E-02  0.000000E+00
  9.796080E-01  4.475133E-03  5.000000E-01  9.895011E-01  4.451040E-03  0.000000E+00  3.706827E-03 -8.524005E-04 -1.137533E-18  9.842713E-03  0.000000E+00
  9.763910E-01  5.209434E-03  5.000000E-01  9.862516E-01  5.192757E-03  0.000000E+00  4.076381E-03 -9.219931E-04 -5.189946E-19 -4.966009E-03  0.000000E+00
  9.727270E-01  6.031159E-03  5.000000E-01  9.825506E-01  6.022781E-03  0.000000E+00  4.505244E-03 -9.992245E-04 -3.953265E-19 -2.188529E-02  0.000000E+00
  9.686070E-01  6.935744E-03  5.000000E-01  9.783890E-01  6.936502E-03  0.000000E+00  4.978375E-03 -1.079098E-03 -1.595710E-19 -4.068350E-02  0.000000E+00
  9.640240E-01  7.917517E-03  5.000000E-01  9.737597E-01  7.928189E-03  0.000000E+00  5.488061E-03 -1.158109E-03 -2.659703E-19 -6.117179E-02  0.000000E+00
  9.589680E-01  8.969763E-03  5.000000E-01  9.686527E-01  8.991062E-03  0.000000E+00  6.030904E-03 -1.233695E-03 -5.721673E-19 -8.314306E-02  0.000000E+00
  9.534310E-01  1.008443E-02  5.000000E-01  9.630597E-01  1.011699E-02  0.000000E+00  6.604694E-03 -1.303364E-03 -6.667420E-19 -1.063495E-01  0.000000E+00
  9.474030E-01  1.125207E-02  5.000000E-01  9.569709E-01  1.129642E-02  0.000000E+00  7.206084E-03 -1.363938E-03 -1.973586E-19 -1.303994E-01  0.000000E+00
  9.408720E-01  1.246165E-02  5.000000E-01  9.503739E-01  1.251822E-02  0.000000E+00  7.829198E-03 -1.411930E-03  6.966378E-19 -1.548946E-01  0.000000E+00
  9.338280E-01  1.370030E-02  5.000000E-01  9.432588E-01  1.376938E-02  0.000000E+00  8.465895E-03 -1.443532E-03  2.332211E-19 -1.793772E-01  0.000000E+00
  9.262600E-01  1.495327E-02  5.000000E-01  9.356143E-01  1.503500E-02  0.000000E+00  9.105567E-03 -1.454265E-03 -4.958168E-19 -2.032161E-01  0.000000E+00
  9.181550E-01  1.620342E-02  5.000000E-01  9.274275E-01  1.629777E-02  0.000000E+00  9.734118E-03 -1.439619E-03 -8.397902E-20 -2.257121E-01  0.000000E+00
  9.095020E-01  1.743143E-02  5.000000E-01  9.186871E-01  1.753819E-02  0.000000E+00  1.033334E-02 -1.395066E-03  2.648727E-19 -2.458825E-01  0.000000E+00
  9.002880E-01  1.861515E-02  5.000000E-01  9.093800E-01  1.873386E-02  0.000000E+00  1.087911E-02 -1.316593E-03 -1.216637E-20 -2.623346E-01  0.000000E+00
  8.905020E-01  1.972996E-02  5.000000E-01  8.994952E-01  1.985993E-02  0.000000E+00  1.133986E-02 -1.203196E-03 -2.504606E-19 -2.737172E-01  0.000000E+00
  8.801320E-01  2.075207E-02  5.000000E-01  8.890205E-01  2.089236E-02  0.000000E+00  1.167876E-02 -1.058002E-03 -8.471924E-19 -2.789760E-01  0.000000E+00
  8.691700E-01  2.165968E-02  5.000000E-01  8.779478E-01  2.180914E-02  0.000000E+00  1.185710E-02 -8.866410E-04 -1.003208E-18 -2.771376E-01  0.000000E+00
  8.691700E-01  2.165968E-02  5.000000E-01  8.779478E-01  2.180914E-02  0.000000E+00  1.185710E-02 -8.866410E-04 -1.003208E-18 -2.771376E-01  0.000000E+00
  8.576080E-01  2.243222E-02  5.000000E-01  8.662690E-01  2.258948E-02  0.000000E+00  1.183663E-02 -6.975681E-04 -1.008840E-19 -2.671473E-01  0.000000E+00
  8.454380E-01  2.305246E-02  5.000000E-01  8.539761E-01  2.321598E-02  0.000000E+00  1.158314E-02 -5.047088E-04 -1.018553E-19 -2.480042E-01  0.000000E+00
  8.326580E-01  2.351210E-02  5.000000E-01  8.410671E-01  2.368026E-02  0.000000E+00  1.107510E-02 -3.277731E-04 -6.728807E-19 -2.188601E-01  0.000000E+00
  8.192630E-01  2.381944E-02  5.000000E-01  8.275368E-01  2.399071E-02  0.000000E+00  1.031450E-02 -1.914415E-04 -2.079706E-19 -1.800794E-01  0.000000E+00
  8.052550E-01  2.401446E-02  5.000000E-01  8.133873E-01  2.418770E-02  0.000000E+00  9.336836E-03 -1.201159E-04  5.688520E-19 -1.356872E-01  0.000000E+00
  7.906370E-01  2.418477E-02  5.000000E-01  7.986217E-01  2.435972E-02  0.000000E+00  8.216182E-03 -1.257196E-04  2.669267E-19 -9.446030E-02  0.000000E+00
  7.754120E-01  2.447766E-02  5.000000E-01  7.832429E-01  2.465557E-02  0.000000E+00  7.058400E-03 -1.891372E-04 -4.602701E-19 -6.401774E-02  0.000000E+00
  7.595880E-01  2.504121E-02  5.000000E-01  7.672591E-01  2.522481E-02  0.000000E+00  5.969848E-03 -2.644507E-04  8.845099E-20 -4.409934E-02  0.000000E+00
  7.431760E-01  2.593947E-02  5.000000E-01  7.506814E-01  2.613214E-02  0.000000E+00  5.018214E-03 -3.234995E-04  7.557184E-19 -3.274694E-02  0.000000E+00
  7.261880E-01  2.723086E-02  5.000000E-01  7.335218E-01  2.743658E-02  0.000000E+00  4.232859E-03 -3.671678E-04  1.376302E-19 -3.046146E-02  0.000000E+00
  7.086430E-01  2.897532E-02  5.000000E-01  7.157996E-01  2.919865E-02  0.000000E+00  3.628131E-03 -4.028608E-04 -9.904654E-19 -3.723703E-02  0.000000E+00
  6.905640E-01  3.122678E-02  5.000000E-01  6.975380E-01  3.147286E-02  0.000000E+00  3.217887E-03 -4.407457E-04 -8.350110E-19 -5.372898E-02  0.000000E+00
  6.719770E-01  3.402697E-02  5.000000E-01  6.787633E-01  3.430133E-02  0.000000E+00  3.028070E-03 -4.956221E-04 -2.834470E-18 -8.238724E-02  0.000000E+00
  6.529150E-01  3.739994E-02  5.000000E-01  6.595088E-01  3.770835E-02  0.000000E+00  3.103542E-03 -5.863124E-04 -3.429939E-18 -1.257616E-01  0.000000E+00
  6.334180E-01  4.130301E-02  5.000000E-01  6.398149E-01  4.165084E-02  0.000000E+00  3.503233E-03 -7.322773E-04 -1.636092E-18 -1.857888E-01  0.000000E+00
  6.135280E-01  4.560808E-02  5.000000E-01  6.197240E-01  4.599939E-02  0.000000E+00  4.291498E-03 -9.486887E-04 -1.231414E-18 -2.662128E-01  0.000000E+00
  5.932910E-01  5.014642E-02  5.000000E-01  5.992827E-01  5.058356E-02  0.000000E+00  5.530240E-03 -1.235142E-03 -2.183459E-18 -3.697923E-01  0.000000E+00
  5.727570E-01  5.471075E-02  5.000000E-01  5.785413E-01  5.519399E-02  0.000000E+00  7.251971E-03 -1.557544E-03  4.798142E-19 -4.908382E-01  0.000000E+00
  5.519810E-01  5.905753E-02  5.000000E-01  5.575555E-01  5.958467E-02  0.000000E+00  9.403376E-03 -1.839886E-03  2.599453E-18 -6.148527E-01  0.000000E+00
  5.310180E-01  6.294184E-02  5.000000E-01  5.363808E-01  6.350821E-02  0.000000E+00  1.180293E-02 -2.007074E-03  2.106221E-19 -7.320286E-01  0.000000E+00
  5.099250E-01  6.626644E-02  5.000000E-01  5.150748E-01  6.686638E-02  0.000000E+00  1.420753E-02 -2.024818E-03  1.307832E-18 -8.401992E-01  0.000000E+00
  4.887640E-01  6.901103E-02  5.000000E-01  4.937001E-01  6.963869E-02  0.000000E+00  1.642922E-02 -1.880935E-03  2.105409E-18 -9.345974E-01  0.000000E+00
  4.675910E-01  7.115355E-02  5.000000E-01  4.723132E-01  7.180284E-02  0.000000E+00  1.836499E-02 -1.578997E-03  1.542298E-18 -1.009841E+00  0.000000E+00
  7.860720E-05 -3.614527E-04  5.000000E-01  7.940614E-05 -4.343898E-04  0.000000E+00 -3.180940E-02  8.437734E-02 -1.995815E-14  1.325029E-01  0.000000E+00
  3.989240E-04 -8.635141E-04  5.000000E-01  4.029578E-04 -9.415215E-04  0.000000E+00 -3.302177E-02  4.084816E-02 -1.630048E-14  8.646884E-01  0.000000E+00
  1.196920E-03 -1.473405E-03  5.000000E-01  1.209013E-03 -1.557572E-03  0.000000E+00 -1.945763E-02  1.331629E-02 -1.047089E-14  1.100763E+00  0.000000E+00
  2.563580E-03 -2.118799E-03  5.000000E-01  2.589475E-03 -2.209484E-03  0.000000E+00 -5.367572E-03  2.522978E-03 -4.880695E-15  1.039208E+00  0.000000E+00
  4.492740E-03 -2.771014E-03  5.000000E-01  4.538117E-03 -2.868285E-03  0.000000E+00  3.429630E-03 -9.486642E-04 -1.087950E-15  9.466533E-01  0.000000E+00
  6.952190E-03 -3.432528E-03  5.000000E-01  7.022406E-03 -3.536480E-03  0.000000E+00  7.923502E-03 -1.970633E-03  5.518025E-16  8.739326E-01  0.000000E+00
  9.910730E-03 -4.126664E-03  5.000000E-01  1.001082E-02 -4.237627E-03  0.000000E+00  9.997994E-03 -2.262833E-03  7.461920E-16  8.108324E-01  0.000000E+00
  1.334950E-02 -4.880256E-03  5.000000E-01  1.348432E-02 -4.998829E-03  0.000000E+00  1.088363E-02 -2.294700E-03  4.138244E-16  7.482507E-01  0.000000E+00
  1.728780E-02 -5.680612E-03  5.000000E-01  1.746240E-02 -5.807268E-03  0.000000E+00  1.122110E-02 -2.155131E-03  1.059400E-16  6.824657E-01  0.000000E+00
  2.175590E-02 -6.489778E-03  5.000000E-01  2.197562E-02 -6.624605E-03  0.000000E+00  1.132254E-02 -1.916673E-03 -2.995041E-17  6.199060E-01  0.000000E+00
  2.676920E-02 -7.278296E-03  5.000000E-01  2.703955E-02 -7.421087E-03  0.000000E+00  1.135744E-02 -1.670684E-03 -4.742269E-17  5.683220E-01  0.000000E+00
  3.232800E-02 -8.038592E-03  5.000000E-01  3.265449E-02 -8.189061E-03  0.000000E+00  1.141103E-02 -1.471841E-03 -2.616859E-17  5.288596E-01  0.000000E+00
  3.842930E-02 -8.778359E-03  5.000000E-01  3.881740E-02 -8.936299E-03  0.000000E+00  1.150247E-02 -1.333125E-03 -7.468784E-18  4.976904E-01  0.000000E+00
  4.507220E-02 -9.513185E-03  5.000000E-01  4.552739E-02 -9.678546E-03  0.000000E+00  1.162765E-02 -1.259670E-03  5.061678E-20  4.718935E-01  0.000000E+00
  5.225680E-02 -1.027471E-02  5.000000E-01  5.278455E-02 -1.044776E-02  0.000000E+00  1.179121E-02 -1.253157E-03  1.733967E-18  4.497006E-01  0.000000E+00
  5.998640E-02 -1.109858E-02  5.000000E-01  6.059221E-02 -1.127995E-02  0.000000E+00  1.199118E-02 -1.287234E-03  1.303662E-18  4.266305E-01  0.000000E+00
  6.827110E-02 -1.199505E-02  5.000000E-01  6.896058E-02 -1.218548E-02  0.000000E+00  1.221131E-02 -1.329048E-03 -3.413075E-20  3.996882E-01  0.000000E+00
  7.712280E-02 -1.296386E-02  5.000000E-01  7.790167E-02 -1.316407E-02  0.000000E+00  1.244214E-02 -1.369553E-03  2.554252E-19  3.705515E-01  0.000000E+00
  8.655260E-02 -1.400705E-02  5.000000E-01  8.742670E-02 -1.421779E-02  0.000000E+00  1.268586E-02 -1.407861E-03  6.262476E-19  3.406898E-01  0.000000E+00
  9.657140E-02 -1.512249E-02  5.000000E-01  9.754668E-02 -1.534450E-02  0.000000E+00  1.294805E-02 -1.434570E-03 -3.688777E-19  3.090458E-01  0.000000E+00
  1.071900E-01 -1.629373E-02  5.000000E-01  1.082725E-01 -1.652757E-02  0.000000E+00  1.324671E-02 -1.446171E-03 -1.837941E-20  2.751670E-01  0.000000E+00
  1.184180E-01 -1.750670E-02  5.000000E-01  1.196139E-01 -1.775279E-02  0.000000E+00  1.362577E-02 -1.457262E-03  9.415908E-19  2.403656E-01  0.000000E+00
  1.302610E-01 -1.876032E-02  5.000000E-01  1.315765E-01 -1.901907E-02  0.000000E+00  1.413896E-02 -1.481454E-03 -4.080615E-20  2.041351E-01  0.000000E+00
  1.427230E-01 -2.005305E-02  5.000000E-01  1.441644E-01 -2.032485E-02  0.000000E+00  1.481453E-02 -1.514708E-03  6.547649E-19  1.637642E-01  0.000000E+00
  1.427230E-01 -2.005305E-02  5.000000E-01  1.441644E-01 -2.032485E-02  0.000000E+00  1.481453E-02 -1.514708E-03  6.547649E-19  1.637642E-01  0.000000E+00
  1.558070E-01 -2.137264E-02  5.000000E-01  1.573805E-01 -2.165777E-02  0.000000E+00  1.561642E-02 -1.523547E-03  1.709157E-18  1.160590E-01  0.000000E+00
  1.695140E-01 -2.266807E-02  5.000000E-01  1.712259E-01 -2.296628E-02  0.000000E+00  1.641630E-02 -1.440251E-03  5.229983E-19  5.957398E-02  0.000000E+00
  1.838420E-01 -2.383318E-02  5.000000E-01  1.856986E-01 -2.414315E-02  0.000000E+00  1.699788E-02 -1.178455E-03  3.867932E-19 -2.673750E-03  0.000000E+00
  1.987870E-01 -2.469614E-02  5.000000E-01  2.007946E-01 -2.501484E-02  0.000000E+00  1.709941E-02 -6.701353E-04  9.545615E-19 -6.400715E-02  0.000000E+00
  2.143420E-01 -2.501565E-02  5.000000E-01  2.165067E-01 -2.533757E-02  0.000000E+00  1.653449E-02  3.268910E-05  9.481230E-19 -1.103191E-01  0.000000E+00
  2.304940E-01 -2.459504E-02  5.000000E-01  2.328218E-01 -2.491272E-02  0.000000E+00  1.533209E-02  7.193686E-04  3.983396E-19 -1.197719E-01  0.000000E+00
  2.472290E-01 -2.341867E-02  5.000000E-01  2.497258E-01 -2.372446E-02  0.000000E+00  1.368488E-02  1.208509E-03  1.193320E-18 -8.623381E-02  0.000000E+00
  2.645310E-01 -2.153475E-02  5.000000E-01  2.672025E-01 -2.182151E-02  0.000000E+00  1.182073E-02  1.460103E-03  4.433385E-20 -2.447818E-02  0.000000E+00
  2.823750E-01 -1.902622E-02  5.000000E-01  2.852267E-01 -1.928765E-02  0.000000E+00  9.972394E-03  1.501853E-03 -1.560706E-18  5.092242E-02  0.000000E+00
  3.007320E-01 -1.604257E-02  5.000000E-01  3.037691E-01 -1.627387E-02  0.000000E+00  8.355843E-03  1.384303E-03 -1.015280E-18  1.320374E-01  0.000000E+00
  3.195690E-01 -1.284831E-02  5.000000E-01  3.227963E-01 -1.304735E-02  0.000000E+00  7.127572E-03  1.168294E-03 -1.292367E-18  2.127834E-01  0.000000E+00
  3.388440E-01 -9.814536E-03  5.000000E-01  3.422660E-01 -9.982940E-03  0.000000E+00  6.336670E-03  9.224680E-04  7.469191E-19  2.816855E-01  0.000000E+00
  3.585140E-01 -7.215672E-03  5.000000E-01  3.621347E-01 -7.357830E-03  0.000000E+00  5.936911E-03  6.992781E-04  6.816505E-19  3.275808E-01  0.000000E+00
  3.785290E-01 -5.160920E-03  5.000000E-01  3.823518E-01 -5.282327E-03  0.000000E+00  5.869219E-03  5.044955E-04 -4.397767E-20  3.528495E-01  0.000000E+00
  3.988350E-01 -3.745042E-03  5.000000E-01  4.028629E-01 -3.852151E-03  0.000000E+00  6.108253E-03  3.116937E-04  6.665944E-19  3.656854E-01  0.000000E+00
  4.193750E-01 -3.054398E-03  5.000000E-01  4.236103E-01 -3.154531E-03  0.000000E+00  6.647933E-03  9.037737E-05  5.003243E-19  3.679496E-01  0.000000E+00
  4.400850E-01 -3.144673E-03  5.000000E-01  4.445294E-01 -3.245718E-03  0.000000E+00  7.477755E-03 -1.790285E-04  1.002037E-18  3.574432E-01  0.000000E+00
  4.609060E-01 -4.004774E-03  5.000000E-01  4.655607E-01 -4.114506E-03  0.000000E+00  8.557415E-03 -4.791379E-04  7.451649E-19  3.285838E-01  0.000000E+00
  4.818030E-01 -5.444927E-03  5.000000E-01  4.866688E-01 -5.569203E-03  0.000000E+00  9.815588E-03 -7.820149E-04  5.004678E-19  2.819536E-01  0.000000E+00
  5.027520E-01 -7.307615E-03  5.000000E-01  5.078293E-01 -7.450701E-03  0.000000E+00  1.114455E-02 -1.052380E-03  3.114671E-19  2.245095E-01  0.000000E+00
  5.237130E-01 -9.390066E-03  5.000000E-01  5.290020E-01 -9.554184E-03  0.000000E+00  1.237378E-02 -1.189152E-03  8.112022E-19  1.562927E-01  0.000000E+00
  5.446170E-01 -1.134370E-02  5.000000E-01  5.501171E-01 -1.152755E-02  0.000000E+00  1.330516E-02 -1.080702E-03  8.235835E-19  7.860308E-02  0.000000E+00
  5.653940E-01 -1.279045E-02  5.000000E-01  5.711039E-01 -1.298891E-02  0.000000E+00  1.383319E-02 -7.629134E-04  7.678088E-20  1.076549E-02  0.000000E+00
  4.675910E-01  7.115355E-02  5.000000E-01  4.723132E-01  7.180284E-02  0.000000E+00  1.836499E-02 -1.578997E-03  1.542298E-18 -1.009841E+00  0.000000E+00
  4.464640E-01  7.267922E-02  5.000000E-01  4.509729E-01  7.334392E-02  0.000000E+00  1.997226E-02 -1.155405E-03  1.079643E-18 -1.066728E+00  0.000000E+00
  4.254410E-01  7.361355E-02  5.000000E-01  4.297376E-01  7.428768E-02  0.000000E+00  2.126336E-02 -6.544406E-04  9.773309E-19 -1.109415E+00  0.000000E+00
  4.045840E-01  7.398391E-02  5.000000E-01  4.086699E-01  7.466179E-02  0.000000E+00  2.228319E-02 -9.739051E-05  4.814738E-19 -1.139425E+00  0.000000E+00
  3.839530E-01  7.380714E-02  5.000000E-01  3.878306E-01  7.448323E-02  0.000000E+00  2.306061E-02  5.084444E-04  2.721866E-19 -1.153400E+00  0.000000E+00
  3.636060E-01  7.309153E-02  5.000000E-01  3.672781E-01  7.376039E-02  0.000000E+00  2.357983E-02  1.154078E-03  8.350560E-19 -1.142135E+00  0.000000E+00
  3.435960E-01  7.184430E-02  5.000000E-01  3.470660E-01  7.250057E-02  0.000000E+00  2.377221E-02  1.815337E-03  8.596070E-19 -1.094501E+00  0.000000E+00
  3.239710E-01  7.007541E-02  5.000000E-01  3.272428E-01  7.071381E-02  0.000000E+00  2.351700E-02  2.399949E-03  1.993442E-18 -1.011908E+00  0.000000E+00
  3.047740E-01  6.788224E-02  5.000000E-01  3.078519E-01  6.849849E-02  0.000000E+00  2.273037E-02  2.749008E-03  1.680667E-18 -9.160352E-01  0.000000E+00
  2.860450E-01  6.548273E-02  5.000000E-01  2.889338E-01  6.607475E-02  0.000000E+00  2.152905E-02  2.813186E-03  4.268243E-19 -8.278572E-01  0.000000E+00
  2.678190E-01  6.305077E-02  5.000000E-01  2.705237E-01  6.361824E-02  0.000000E+00  2.018650E-02  2.686198E-03  1.330786E-19 -7.562893E-01  0.000000E+00
  2.501300E-01  6.070366E-02  5.000000E-01  2.526561E-01  6.124742E-02  0.000000E+00  1.896298E-02  2.474135E-03  4.166446E-19 -7.068187E-01  0.000000E+00
  2.330040E-01  5.850896E-02  5.000000E-01  2.353571E-01  5.903056E-02  0.000000E+00  1.804185E-02  2.254303E-03  1.356993E-18 -6.844169E-01  0.000000E+00
  2.164660E-01  5.649485E-02  5.000000E-01  2.186521E-01  5.699610E-02  0.000000E+00  1.753282E-02  2.077414E-03 -2.895989E-21 -6.925569E-01  0.000000E+00
  2.005340E-01  5.465858E-02  5.000000E-01  2.025592E-01  5.514129E-02  0.000000E+00  1.750549E-02  2.006206E-03 -1.332500E-18 -7.245408E-01  0.000000E+00
  1.852230E-01  5.291573E-02  5.000000E-01  1.870936E-01  5.338084E-02  0.000000E+00  1.795923E-02  2.094668E-03 -1.095747E-18 -7.664352E-01  0.000000E+00
  1.705440E-01  5.116591E-02  5.000000E-01  1.722663E-01  5.161335E-02  0.000000E+00  1.878266E-02  2.332548E-03 -9.351136E-19 -8.118465E-01  0.000000E+00
  1.565000E-01  4.935475E-02  5.000000E-01  1.580805E-01  4.978389E-02  0.000000E+00  1.982104E-02  2.680606E-03 -9.773261E-19 -8.623652E-01  0.000000E+00
  1.430940E-01  4.745983E-02  5.000000E-01  1.445391E-01  4.786984E-02  0.000000E+00  2.096360E-02  3.128978E-03 -1.100864E-18 -9.173541E-01  0.000000E+00
  1.303270E-01  4.545787E-02  5.000000E-01  1.316432E-01  4.584766E-02  0.000000E+00  2.215012E-02  3.711229E-03 -7.824648E-19 -9.658932E-01  0.000000E+00
  1.182110E-01  4.330580E-02  5.000000E-01  1.194048E-01  4.367386E-02  0.000000E+00  2.329333E-02  4.439059E-03  1.459751E-20 -9.925578E-01  0.000000E+00
  1.067560E-01  4.098424E-02  5.000000E-01  1.078341E-01  4.132886E-02  0.000000E+00  2.423677E-02  5.253457E-03  7.486668E-19 -9.886029E-01  0.000000E+00
  9.596750E-02  3.850028E-02  5.000000E-01  9.693668E-02  3.881981E-02  0.000000E+00  2.480569E-02  6.009027E-03  1.692617E-18 -9.628047E-01  0.000000E+00
  8.582800E-02  3.592181E-02  5.000000E-01  8.669479E-02  3.621530E-02  0.000000E+00  2.495517E-02  6.579105E-03  2.299174E-18 -9.343744E-01  0.000000E+00
  8.582800E-02  3.592181E-02  5.000000E-01  8.669479E-02  3.621530E-02  0.000000E+00  2.495517E-02  6.579105E-03  2.299174E-18 -9.343744E-01  0.000000E+00
  7.631050E-02  3.332214E-02  5.000000E-01  7.708117E-02  3.358938E-02  0.000000E+00  2.484687E-02  7.025504E-03  1.818952E-18 -9.083792E-01  0.000000E+00
  6.740780E-02  3.071936E-02  5.000000E-01  6.808856E-02  3.096031E-02  0.000000E+00  2.467006E-02  7.471448E-03  3.789350E-18 -8.792920E-01  0.000000E+00
  5.911740E-02  2.812143E-02  5.000000E-01  5.971443E-02  2.833614E-02  0.000000E+00  2.449764E-02  7.939176E-03  8.114410E-18 -8.454899E-01  0.000000E+00
  5.143150E-02  2.554796E-02  5.000000E-01  5.195091E-02  2.573669E-02  0.000000E+00  2.432433E-02  8.400051E-03  1.623058E-17 -8.087933E-01  0.000000E+00
  4.433770E-02  2.302331E-02  5.000000E-01  4.478547E-02  2.318653E-02  0.000000E+00  2.412816E-02  8.834796E-03  3.616143E-17 -7.728628E-01  0.000000E+00
  3.782240E-02  2.057008E-02  5.000000E-01  3.820437E-02  2.070853E-02  0.000000E+00  2.390629E-02  9.250808E-03  7.255530E-17 -7.424554E-01  0.000000E+00
  3.187460E-02  1.820496E-02  5.000000E-01  3.219651E-02  1.831953E-02  0.000000E+00  2.368778E-02  9.678686E-03  9.749251E-17 -7.211197E-01  0.000000E+00
  2.648400E-02  1.594195E-02  5.000000E-01  2.675147E-02  1.603366E-02  0.000000E+00  2.351737E-02  1.018463E-02  1.613610E-17 -7.034780E-01  0.000000E+00
  2.164990E-02  1.378513E-02  5.000000E-01  2.186855E-02  1.385506E-02  0.000000E+00  2.336582E-02  1.081748E-02 -3.439921E-16 -6.739790E-01  0.000000E+00
  1.737670E-02  1.173664E-02  5.000000E-01  1.755219E-02  1.178588E-02  0.000000E+00  2.305116E-02  1.144099E-02 -1.183248E-15 -6.276388E-01  0.000000E+00
  1.364080E-02  9.818295E-03  5.000000E-01  1.377856E-02  9.848164E-03  0.000000E+00  2.236513E-02  1.177750E-02 -2.595397E-15 -5.835064E-01  0.000000E+00
  1.039090E-02  8.061429E-03  5.000000E-01  1.049584E-02  8.073555E-03  0.000000E+00  2.126252E-02  1.172527E-02 -4.423195E-15 -5.682159E-01  0.000000E+00
  7.586340E-03  6.481904E-03  5.000000E-01  7.662960E-03  6.478079E-03  0.000000E+00  1.985529E-02  1.150581E-02 -6.179764E-15 -5.962459E-01  0.000000E+00
  5.226210E-03  5.072430E-03  5.000000E-01  5.278995E-03  5.054370E-03  0.000000E+00  1.837069E-02  1.149032E-02 -7.141943E-15 -6.767317E-01  0.000000E+00
  3.324300E-03  3.821747E-03  5.000000E-01  3.357877E-03  3.791056E-03  0.000000E+00  1.741510E-02  1.229831E-02 -6.748684E-15 -8.196562E-01  0.000000E+00
  1.883580E-03  2.728396E-03  5.000000E-01  1.902607E-03  2.686663E-03  0.000000E+00  1.814751E-02  1.550641E-02 -5.268358E-15 -1.000113E+00  0.000000E+00
  8.951490E-04  1.799253E-03  5.000000E-01  9.041942E-04  1.748137E-03  0.000000E+00  2.085290E-02  2.380539E-02 -4.170975E-15 -1.126555E+00  0.000000E+00
  3.201820E-04  1.050973E-03  5.000000E-01  3.234206E-04  9.922997E-04  0.000000E+00  2.198350E-02  3.800045E-02 -5.217183E-15 -1.091067E+00  0.000000E+00
  6.852390E-05  5.049889E-04  5.000000E-01  6.922101E-05  4.408021E-04  0.000000E+00  1.670993E-02  5.291792E-02 -8.613842E-15 -9.499549E-01  0.000000E+00
  4.217600E-06  1.771889E-04  5.000000E-01  4.265277E-06  1.096915E-04  0.000000E+00  7.331235E-03  6.816735E-02 -1.275384E-14 -9.486858E-01  0.000000E+00
 -5.032520E-09  6.859406E-05  5.000000E-01  0.000000E+00  0.000000E+00  0.000000E+00 -2.350167E-03  9.943073E-02 -1.658534E-14 -1.022207E+00  0.000000E+00
  5.154440E-06 -4.025239E-05  5.000000E-01  5.211578E-06 -1.099457E-04  0.000000E+00 -1.634562E-02  1.152332E-01 -1.966391E-14 -6.900741E-01  0.000000E+00