 Title = "ADflow Slice Data"
Variables =  "CoordinateX"  "CoordinateY"  "CoordinateZ"  "XoC"  "YoC"  "ZoC" "VelocityX" "VelocityY" "VelocityZ" "CoefPressure" "Mach" 
Zone T= "Slice_0001 None Absolute Regular z = 0.50000000"
 Nodes =          192  Elements=          184  ZONETYPE=FELINESEG
 DATAPACKING=POINT
  5.653940E-01  9.239787E-03  5.000000E-01  5.711040E-01  9.239856E-03  0.000000E+00  7.561897E-03  2.466102E-04 -6.031383E-20  3.128797E-01  0.000000E+00
  5.859770E-01  9.746022E-03  5.000000E-01  5.918949E-01  9.751203E-03  0.000000E+00  8.159532E-03  1.863137E-04  4.009521E-19  2.867692E-01  0.000000E+00
  6.063060E-01  1.017555E-02  5.000000E-01  6.124292E-01  1.018507E-02  0.000000E+00  8.556342E-03  2.106872E-04  8.708091E-19  2.585775E-01  0.000000E+00
  6.263240E-01  1.073931E-02  5.000000E-01  6.326494E-01  1.075452E-02  0.000000E+00  8.642237E-03  3.046018E-04  7.260763E-19  2.387442E-01  0.000000E+00
  6.459860E-01  1.157435E-02  5.000000E-01  6.525099E-01  1.159799E-02  0.000000E+00  8.382106E-03  4.364793E-04  6.262314E-19  2.318878E-01  0.000000E+00
  6.652460E-01  1.277146E-02  5.000000E-01  6.719644E-01  1.280719E-02  0.000000E+00  7.835691E-03  5.548112E-04  7.512500E-20  2.399702E-01  0.000000E+00
  6.840650E-01  1.428674E-02  5.000000E-01  6.909735E-01  1.433778E-02  0.000000E+00  7.153722E-03  5.979590E-04 -2.948521E-19  2.659503E-01  0.000000E+00
  7.024070E-01  1.588607E-02  5.000000E-01  7.095007E-01  1.595326E-02  0.000000E+00  6.500293E-03  5.532931E-04 -5.162643E-19  3.029575E-01  0.000000E+00
  7.202400E-01  1.735833E-02  5.000000E-01  7.275138E-01  1.744039E-02  0.000000E+00  5.979811E-03  4.557609E-04 -6.853443E-19  3.373299E-01  0.000000E+00
  7.375350E-01  1.855397E-02  5.000000E-01  7.449835E-01  1.864810E-02  0.000000E+00  5.636691E-03  3.368678E-04 -5.353579E-20  3.626850E-01  0.000000E+00
  7.542690E-01  1.938907E-02  5.000000E-01  7.618865E-01  1.949164E-02  0.000000E+00  5.478293E-03  2.122385E-04  1.846465E-19  3.790622E-01  0.000000E+00
  7.704220E-01  1.983267E-02  5.000000E-01  7.782026E-01  1.993972E-02  0.000000E+00  5.492577E-03  8.519961E-05  2.653565E-19  3.880621E-01  0.000000E+00
  7.859770E-01  1.989163E-02  5.000000E-01  7.939147E-01  1.999928E-02  0.000000E+00  5.656156E-03 -4.616208E-05  6.488555E-19  3.907752E-01  0.000000E+00
  8.009220E-01  1.959828E-02  5.000000E-01  8.090106E-01  1.970296E-02  0.000000E+00  5.937864E-03 -1.819852E-04  7.894068E-19  3.877245E-01  0.000000E+00
  8.152480E-01  1.900944E-02  5.000000E-01  8.234813E-01  1.910817E-02  0.000000E+00  6.301086E-03 -3.166143E-04  2.762538E-19  3.792391E-01  0.000000E+00
  8.289490E-01  1.820287E-02  5.000000E-01  8.373207E-01  1.829345E-02  0.000000E+00  6.708583E-03 -4.424015E-04  7.201214E-19  3.664618E-01  0.000000E+00
  8.420260E-01  1.725377E-02  5.000000E-01  8.505298E-01  1.733477E-02  0.000000E+00  7.128178E-03 -5.548724E-04  9.927690E-19  3.513501E-01  0.000000E+00
  8.544790E-01  1.622287E-02  5.000000E-01  8.631085E-01  1.629347E-02  0.000000E+00  7.534409E-03 -6.517433E-04 -1.314737E-20  3.354554E-01  0.000000E+00
  8.663160E-01  1.515725E-02  5.000000E-01  8.750651E-01  1.521708E-02  0.000000E+00  7.907338E-03 -7.312634E-04  1.456219E-19  3.196117E-01  0.000000E+00
  8.775420E-01  1.409274E-02  5.000000E-01  8.864044E-01  1.414182E-02  0.000000E+00  8.232050E-03 -7.920687E-04  4.067620E-19  3.043809E-01  0.000000E+00
  8.881660E-01  1.305621E-02  5.000000E-01  8.971357E-01  1.309483E-02  0.000000E+00  8.499317E-03 -8.336083E-04  7.273584E-19  2.902335E-01  0.000000E+00
  8.981970E-01  1.206730E-02  5.000000E-01  9.072680E-01  1.209593E-02  0.000000E+00  8.707449E-03 -8.590444E-04  1.548614E-18  2.777160E-01  0.000000E+00
  9.076460E-01  1.113468E-02  5.000000E-01  9.168125E-01  1.115389E-02  0.000000E+00  8.864532E-03 -8.769240E-04  1.247648E-18  2.675037E-01  0.000000E+00
  9.165220E-01  1.025488E-02  5.000000E-01  9.257781E-01  1.026520E-02  0.000000E+00  8.985411E-03 -8.952019E-04  3.661895E-19  2.594724E-01  0.000000E+00
  9.165220E-01  1.025488E-02  5.000000E-01  9.257781E-01  1.026520E-02  0.000000E+00  8.985411E-03 -8.952019E-04  3.661895E-19  2.594724E-01  0.000000E+00
  9.248360E-01  9.422300E-03  5.000000E-01  9.341761E-01  9.424211E-03  0.000000E+00  9.085006E-03 -9.171685E-04  2.972354E-19  2.526760E-01  0.000000E+00
  9.325990E-01  8.632241E-03  5.000000E-01  9.420175E-01  8.626174E-03  0.000000E+00  9.175774E-03 -9.443381E-04  6.387427E-19  2.464720E-01  0.000000E+00
  9.398210E-01  7.880775E-03  5.000000E-01  9.493124E-01  7.867119E-03  0.000000E+00  9.268188E-03 -9.778967E-04  5.730442E-19  2.405809E-01  0.000000E+00
  9.465130E-01  7.165019E-03  5.000000E-01  9.560720E-01  7.144135E-03  0.000000E+00  9.370835E-03 -1.018586E-03  6.306491E-20  2.347497E-01  0.000000E+00
  9.526870E-01  6.483277E-03  5.000000E-01  9.623083E-01  6.455507E-03  0.000000E+00  9.490210E-03 -1.066789E-03 -1.010558E-20  2.287256E-01  0.000000E+00
  9.583540E-01  5.835121E-03  5.000000E-01  9.680326E-01  5.800805E-03  0.000000E+00  9.630881E-03 -1.122601E-03  2.766835E-19  2.222986E-01  0.000000E+00
  9.635240E-01  5.221325E-03  5.000000E-01  9.732548E-01  5.180810E-03  0.000000E+00  9.796062E-03 -1.185726E-03  1.911526E-19  2.152871E-01  0.000000E+00
  9.682080E-01  4.643682E-03  5.000000E-01  9.779861E-01  4.597334E-03  0.000000E+00  9.989288E-03 -1.256018E-03 -1.843488E-19  2.075942E-01  0.000000E+00
  9.724140E-01  4.104881E-03  5.000000E-01  9.822346E-01  4.053091E-03  0.000000E+00  1.021689E-02 -1.333564E-03 -5.167224E-19  1.991846E-01  0.000000E+00
  9.761510E-01  3.608251E-03  5.000000E-01  9.860093E-01  3.551446E-03  0.000000E+00  1.048836E-02 -1.418323E-03 -4.400219E-19  1.900050E-01  0.000000E+00
  9.794290E-01  3.157498E-03  5.000000E-01  9.893204E-01  3.096140E-03  0.000000E+00  1.080987E-02 -1.510416E-03 -1.237032E-19  1.800510E-01  0.000000E+00
  9.822540E-01  2.756594E-03  5.000000E-01  9.921739E-01  2.691188E-03  0.000000E+00  1.116677E-02 -1.608002E-03  4.100929E-19  1.695544E-01  0.000000E+00
  9.846330E-01  2.409444E-03  5.000000E-01  9.945770E-01  2.340532E-03  0.000000E+00  1.150577E-02 -1.700826E-03  1.913999E-18  1.597411E-01  0.000000E+00
  9.865710E-01  2.119729E-03  5.000000E-01  9.965345E-01  2.047891E-03  0.000000E+00  1.169767E-02 -1.757184E-03  3.028337E-18  1.494793E-01  0.000000E+00
  9.880740E-01  1.890711E-03  5.000000E-01  9.980527E-01  1.816560E-03  0.000000E+00  1.153204E-02 -1.772882E-03 -2.162728E-18  1.324423E-01  0.000000E+00
  9.891450E-01  1.725087E-03  5.000000E-01  9.991345E-01  1.649263E-03  0.000000E+00  1.169163E-02 -1.899010E-03 -2.595369E-17  1.351002E-01  0.000000E+00
  9.897860E-01  1.624883E-03  5.000000E-01  9.997820E-01  1.548048E-03  0.000000E+00  1.507325E-02 -1.884211E-03 -7.413041E-17  1.843509E-01  0.000000E+00
  9.900000E-01  1.591345E-03  5.000000E-01  9.999982E-01  1.514171E-03  0.000000E+00  1.053859E-02 -4.268895E-03 -7.819533E-17 -5.666659E-02  0.000000E+00
  9.900000E-01  1.670056E-03  5.000000E-01  9.999982E-01  1.593676E-03  0.000000E+00  1.057613E-03 -1.467394E-02  7.061303E-18 -1.937083E-01  0.000000E+00
  9.900000E-01  1.748776E-03  5.000000E-01  9.999982E-01  1.673192E-03  0.000000E+00 -5.257841E-04 -1.368917E-02  8.896601E-17 -1.808144E-02  0.000000E+00
  9.900000E-01  1.827496E-03  5.000000E-01  9.999982E-01  1.752707E-03  0.000000E+00 -3.085128E-04  2.856743E-03  1.045175E-16 -2.266390E-02  0.000000E+00
  9.900000E-01  1.906207E-03  5.000000E-01  9.999982E-01  1.832212E-03  0.000000E+00  7.281628E-04  4.146621E-03  1.330116E-16 -1.433378E-01  0.000000E+00
  9.900000E-01  1.984927E-03  5.000000E-01  9.999982E-01  1.911728E-03  0.000000E+00  6.083617E-03 -2.571512E-03  1.729434E-16 -4.754817E-02  0.000000E+00
  9.900000E-01  1.984927E-03  5.000000E-01  9.999982E-01  1.911728E-03  0.000000E+00  6.083617E-03 -2.571512E-03  1.729434E-16 -4.754817E-02  0.000000E+00
  9.897900E-01  2.028059E-03  5.000000E-01  9.997861E-01  1.955295E-03  0.000000E+00  7.967177E-03 -1.975093E-03  1.249289E-16  9.835975E-02  0.000000E+00
  9.891580E-01  2.157451E-03  5.000000E-01  9.991477E-01  2.085994E-03  0.000000E+00  5.008760E-03 -9.634872E-04  4.198305E-17  5.587358E-02  0.000000E+00
  9.881040E-01  2.373112E-03  5.000000E-01  9.980830E-01  2.303833E-03  0.000000E+00  4.244512E-03 -8.663010E-04  3.446193E-18  4.667199E-02  0.000000E+00
  9.866260E-01  2.675036E-03  5.000000E-01  9.965901E-01  2.608806E-03  0.000000E+00  4.048920E-03 -8.319787E-04 -4.836189E-18  4.929467E-02  0.000000E+00
  9.847200E-01  3.063191E-03  5.000000E-01  9.946648E-01  3.000882E-03  0.000000E+00  3.949276E-03 -8.022473E-04 -3.545028E-18  4.486607E-02  0.000000E+00
  9.823820E-01  3.537492E-03  5.000000E-01  9.923032E-01  3.479972E-03  0.000000E+00  3.974433E-03 -8.038714E-04 -1.811359E-18  3.782653E-02  0.000000E+00
  9.796080E-01  4.097753E-03  5.000000E-01  9.895012E-01  4.045892E-03  0.000000E+00  4.104392E-03 -8.265632E-04 -7.182194E-19  3.015993E-02  0.000000E+00
  9.763910E-01  4.743688E-03  5.000000E-01  9.862517E-01  4.698350E-03  0.000000E+00  4.298583E-03 -8.603979E-04 -6.300305E-19  2.132605E-02  0.000000E+00
  9.727270E-01  5.474765E-03  5.000000E-01  9.825507E-01  5.436810E-03  0.000000E+00  4.530086E-03 -9.001962E-04 -8.695668E-19  1.122062E-02  0.000000E+00
  9.686070E-01  6.290333E-03  5.000000E-01  9.783891E-01  6.260615E-03  0.000000E+00  4.782887E-03 -9.424229E-04 -7.174001E-19  6.967153E-05  0.000000E+00
  9.640240E-01  7.189422E-03  5.000000E-01  9.737598E-01  7.168783E-03  0.000000E+00  5.048398E-03 -9.850139E-04 -1.609429E-19 -1.199733E-02  0.000000E+00
  9.589680E-01  8.170820E-03  5.000000E-01  9.686528E-01  8.160093E-03  0.000000E+00  5.323279E-03 -1.027072E-03  7.863782E-19 -2.487931E-02  0.000000E+00
  9.534310E-01  9.232966E-03  5.000000E-01  9.630599E-01  9.232965E-03  0.000000E+00  5.606455E-03 -1.068161E-03  3.542533E-19 -3.847977E-02  0.000000E+00
  9.474030E-01  1.037399E-02  5.000000E-01  9.569710E-01  1.038552E-02  0.000000E+00  5.896757E-03 -1.107628E-03 -5.421555E-19 -5.261777E-02  0.000000E+00
  9.408720E-01  1.159174E-02  5.000000E-01  9.503740E-01  1.161556E-02  0.000000E+00  6.191721E-03 -1.144861E-03 -8.941456E-19 -6.717252E-02  0.000000E+00
  9.338280E-01  1.288371E-02  5.000000E-01  9.432589E-01  1.292058E-02  0.000000E+00  6.488054E-03 -1.179241E-03 -4.077985E-19 -8.204094E-02  0.000000E+00
  9.262600E-01  1.424725E-02  5.000000E-01  9.356145E-01  1.429789E-02  0.000000E+00  6.781808E-03 -1.209879E-03  7.145658E-19 -9.704630E-02  0.000000E+00
  9.181550E-01  1.567939E-02  5.000000E-01  9.274276E-01  1.574449E-02  0.000000E+00  7.068231E-03 -1.236006E-03  1.470388E-18 -1.120666E-01  0.000000E+00
  9.095020E-01  1.717721E-02  5.000000E-01  9.186872E-01  1.725744E-02  0.000000E+00  7.342204E-03 -1.256921E-03  7.601176E-19 -1.268932E-01  0.000000E+00
  9.002880E-01  1.873768E-02  5.000000E-01  9.093802E-01  1.883367E-02  0.000000E+00  7.598029E-03 -1.272143E-03 -2.567195E-19 -1.411566E-01  0.000000E+00
  8.905020E-01  2.035802E-02  5.000000E-01  8.994953E-01  2.047038E-02  0.000000E+00  7.829861E-03 -1.282550E-03 -4.190569E-19 -1.547119E-01  0.000000E+00
  8.801320E-01  2.203878E-02  5.000000E-01  8.890206E-01  2.216811E-02  0.000000E+00  8.034629E-03 -1.290544E-03 -6.180213E-20 -1.678062E-01  0.000000E+00
  8.691700E-01  2.378387E-02  5.000000E-01  8.779479E-01  2.393083E-02  0.000000E+00  8.214939E-03 -1.298570E-03  2.328652E-19 -1.808203E-01  0.000000E+00
  8.691700E-01  2.378387E-02  5.000000E-01  8.779479E-01  2.393083E-02  0.000000E+00  8.214939E-03 -1.298570E-03  2.328652E-19 -1.808203E-01  0.000000E+00
  8.576080E-01  2.559885E-02  5.000000E-01  8.662691E-01  2.576414E-02  0.000000E+00  8.379239E-03 -1.308709E-03 -2.028237E-19 -1.940437E-01  0.000000E+00
  8.454380E-01  2.749033E-02  5.000000E-01  8.539762E-01  2.767471E-02  0.000000E+00  8.540152E-03 -1.323392E-03 -3.754268E-20 -2.078803E-01  0.000000E+00
  8.326580E-01  2.946522E-02  5.000000E-01  8.410672E-01  2.966955E-02  0.000000E+00  8.713540E-03 -1.344837E-03  4.392521E-19 -2.232155E-01  0.000000E+00
  8.192630E-01  3.152988E-02  5.000000E-01  8.275369E-01  3.175506E-02  0.000000E+00  8.918086E-03 -1.374396E-03  3.904159E-19 -2.415853E-01  0.000000E+00
  8.052550E-01  3.368722E-02  5.000000E-01  8.133874E-01  3.393419E-02  0.000000E+00  9.173833E-03 -1.410422E-03 -8.889047E-19 -2.641218E-01  0.000000E+00
  7.906370E-01  3.593021E-02  5.000000E-01  7.986218E-01  3.619983E-02  0.000000E+00  9.495753E-03 -1.444866E-03 -2.300549E-18 -2.894421E-01  0.000000E+00
  7.754120E-01  3.822909E-02  5.000000E-01  7.832430E-01  3.852193E-02  0.000000E+00  9.880935E-03 -1.469012E-03 -2.448753E-18 -3.147563E-01  0.000000E+00
  7.595880E-01  4.054697E-02  5.000000E-01  7.672592E-01  4.086321E-02  0.000000E+00  1.030718E-02 -1.484630E-03 -9.605120E-19 -3.397927E-01  0.000000E+00
  7.431760E-01  4.287219E-02  5.000000E-01  7.506815E-01  4.321192E-02  0.000000E+00  1.075475E-02 -1.496288E-03  1.516720E-19 -3.656366E-01  0.000000E+00
  7.261880E-01  4.519403E-02  5.000000E-01  7.335219E-01  4.555721E-02  0.000000E+00  1.121769E-02 -1.502037E-03  5.415127E-20 -3.926657E-01  0.000000E+00
  7.086430E-01  4.749613E-02  5.000000E-01  7.157997E-01  4.788256E-02  0.000000E+00  1.169641E-02 -1.496803E-03 -8.056531E-19 -4.210755E-01  0.000000E+00
  6.905640E-01  4.975294E-02  5.000000E-01  6.975381E-01  5.016216E-02  0.000000E+00  1.218905E-02 -1.473641E-03 -7.656664E-19 -4.501554E-01  0.000000E+00
  6.719770E-01  5.192947E-02  5.000000E-01  6.787634E-01  5.236066E-02  0.000000E+00  1.268112E-02 -1.425269E-03  1.480904E-20 -4.779387E-01  0.000000E+00
  6.529150E-01  5.398565E-02  5.000000E-01  6.595089E-01  5.443761E-02  0.000000E+00  1.314010E-02 -1.347003E-03  2.316306E-19 -5.015358E-01  0.000000E+00
  6.334180E-01  5.588367E-02  5.000000E-01  6.398150E-01  5.635480E-02  0.000000E+00  1.351886E-02 -1.242630E-03  1.020569E-18 -5.185270E-01  0.000000E+00
  6.135280E-01  5.760705E-02  5.000000E-01  6.197241E-01  5.809559E-02  0.000000E+00  1.377228E-02 -1.125289E-03  7.249767E-19 -5.278303E-01  0.000000E+00
  5.932910E-01  5.916301E-02  5.000000E-01  5.992827E-01  5.966726E-02  0.000000E+00  1.387817E-02 -1.012552E-03  6.076192E-19 -5.300644E-01  0.000000E+00
  5.727570E-01  6.058170E-02  5.000000E-01  5.785414E-01  6.110028E-02  0.000000E+00  1.384916E-02 -9.238096E-04  5.421635E-19 -5.288646E-01  0.000000E+00
  5.519810E-01  6.191710E-02  5.000000E-01  5.575555E-01  6.244916E-02  0.000000E+00  1.373771E-02 -8.739404E-04  2.207415E-19 -5.305284E-01  0.000000E+00
  5.310180E-01  6.323593E-02  5.000000E-01  5.363808E-01  6.378131E-02  0.000000E+00  1.363232E-02 -8.578768E-04  4.972447E-19 -5.399584E-01  0.000000E+00
  5.099250E-01  6.456265E-02  5.000000E-01  5.150748E-01  6.512144E-02  0.000000E+00  1.362535E-02 -8.591509E-04  7.560625E-19 -5.602723E-01  0.000000E+00
  4.887640E-01  6.589805E-02  5.000000E-01  4.937001E-01  6.647032E-02  0.000000E+00  1.378478E-02 -8.604485E-04  6.730042E-19 -5.922987E-01  0.000000E+00
  4.675910E-01  6.720452E-02  5.000000E-01  4.723133E-01  6.778999E-02  0.000000E+00  1.414175E-02 -8.383699E-04  2.946747E-20 -6.316621E-01  0.000000E+00
  7.860720E-05 -3.363252E-04  5.000000E-01  7.940615E-05 -4.329672E-04  0.000000E+00 -1.896571E-02  5.081285E-02 -1.719037E-15  6.813826E-01  0.000000E+00
  3.989240E-04 -8.316712E-04  5.000000E-01  4.029579E-04 -9.333158E-04  0.000000E+00 -1.754895E-02  2.223537E-02 -1.491588E-15  1.073127E+00  0.000000E+00
  1.196920E-03 -1.424977E-03  5.000000E-01  1.209013E-03 -1.532613E-03  0.000000E+00 -6.943911E-03  5.032702E-03 -9.861552E-16  1.092986E+00  0.000000E+00
  2.563580E-03 -2.043266E-03  5.000000E-01  2.589475E-03 -2.157147E-03  0.000000E+00  2.427975E-03 -7.424492E-04 -4.626334E-16  9.582105E-01  0.000000E+00
  4.492740E-03 -2.659783E-03  5.000000E-01  4.538118E-03 -2.779890E-03  0.000000E+00  7.563559E-03 -2.114260E-03 -9.169630E-17  8.523376E-01  0.000000E+00
  6.952190E-03 -3.279737E-03  5.000000E-01  7.022406E-03 -3.406105E-03  0.000000E+00  9.912383E-03 -2.325472E-03  6.844317E-17  7.825103E-01  0.000000E+00
  9.910730E-03 -3.929502E-03  5.000000E-01  1.001083E-02 -4.062432E-03  0.000000E+00  1.092735E-02 -2.324356E-03  8.099953E-17  7.268442E-01  0.000000E+00
  1.334950E-02 -4.639174E-03  5.000000E-01  1.348432E-02 -4.779272E-03  0.000000E+00  1.136868E-02 -2.266418E-03  4.197556E-17  6.723204E-01  0.000000E+00
  1.728780E-02 -5.398736E-03  5.000000E-01  1.746240E-02 -5.546504E-03  0.000000E+00  1.154929E-02 -2.113306E-03  7.980593E-18  6.142743E-01  0.000000E+00
  2.175590E-02 -6.172609E-03  5.000000E-01  2.197562E-02 -6.328193E-03  0.000000E+00  1.159128E-02 -1.885478E-03 -6.232547E-18  5.600102E-01  0.000000E+00
  2.676920E-02 -6.934050E-03  5.000000E-01  2.703955E-02 -7.097323E-03  0.000000E+00  1.157288E-02 -1.655333E-03 -6.586087E-18  5.176883E-01  0.000000E+00
  3.232800E-02 -7.678871E-03  5.000000E-01  3.265449E-02 -7.849666E-03  0.000000E+00  1.154717E-02 -1.473831E-03 -2.676760E-18  4.879022E-01  0.000000E+00
  3.842930E-02 -8.418871E-03  5.000000E-01  3.881741E-02 -8.597140E-03  0.000000E+00  1.153408E-02 -1.355376E-03 -4.977247E-19  4.660707E-01  0.000000E+00
  4.507220E-02 -9.174577E-03  5.000000E-01  4.552740E-02 -9.360478E-03  0.000000E+00  1.154536E-02 -1.307663E-03  5.252544E-20  4.488985E-01  0.000000E+00
  5.225680E-02 -9.984153E-03  5.000000E-01  5.278455E-02 -1.017823E-02  0.000000E+00  1.160312E-02 -1.334625E-03 -2.923152E-19  4.345116E-01  0.000000E+00
  5.998640E-02 -1.089143E-02  5.000000E-01  6.059222E-02 -1.109467E-02  0.000000E+00  1.171584E-02 -1.410929E-03 -8.006787E-19  4.182638E-01  0.000000E+00
  6.827110E-02 -1.191513E-02  5.000000E-01  6.896059E-02 -1.212871E-02  0.000000E+00  1.187010E-02 -1.504059E-03 -7.769539E-19  3.970362E-01  0.000000E+00
  7.712280E-02 -1.306410E-02  5.000000E-01  7.790168E-02 -1.328928E-02  0.000000E+00  1.205596E-02 -1.605745E-03 -2.081235E-19  3.725319E-01  0.000000E+00
  8.655260E-02 -1.435085E-02  5.000000E-01  8.742671E-02 -1.458903E-02  0.000000E+00  1.227647E-02 -1.716446E-03 -9.325382E-21  3.461525E-01  0.000000E+00
  9.657140E-02 -1.578474E-02  5.000000E-01  9.754670E-02 -1.603740E-02  0.000000E+00  1.254273E-02 -1.828380E-03 -1.167745E-18  3.165080E-01  0.000000E+00
  1.071900E-01 -1.736054E-02  5.000000E-01  1.082725E-01 -1.762911E-02  0.000000E+00  1.288579E-02 -1.941352E-03 -4.901277E-19  2.826909E-01  0.000000E+00
  1.184180E-01 -1.907619E-02  5.000000E-01  1.196139E-01 -1.936208E-02  0.000000E+00  1.337359E-02 -2.077718E-03 -1.311648E-19  2.455169E-01  0.000000E+00
  1.302610E-01 -2.094440E-02  5.000000E-01  1.315765E-01 -2.124917E-02  0.000000E+00  1.409628E-02 -2.263119E-03 -1.376593E-18  2.036012E-01  0.000000E+00
  1.427230E-01 -2.297757E-02  5.000000E-01  1.441644E-01 -2.330287E-02  0.000000E+00  1.512567E-02 -2.505168E-03 -9.743660E-19  1.526849E-01  0.000000E+00
  1.427230E-01 -2.297757E-02  5.000000E-01  1.441644E-01 -2.330287E-02  0.000000E+00  1.512567E-02 -2.505168E-03 -9.743660E-19  1.526849E-01  0.000000E+00
  1.558070E-01 -2.517470E-02  5.000000E-01  1.573805E-01 -2.552219E-02  0.000000E+00  1.646126E-02 -2.768963E-03  1.384831E-19  8.718755E-02  0.000000E+00
  1.695140E-01 -2.748494E-02  5.000000E-01  1.712260E-01 -2.785576E-02  0.000000E+00  1.797606E-02 -2.950889E-03  1.957907E-18  2.817913E-03  0.000000E+00
  1.838420E-01 -2.978026E-02  5.000000E-01  1.856987E-01 -3.017426E-02  0.000000E+00  1.938733E-02 -2.873461E-03  1.412329E-18 -9.962244E-02  0.000000E+00
  1.987870E-01 -3.183042E-02  5.000000E-01  2.007946E-01 -3.224513E-02  0.000000E+00  2.027394E-02 -2.329279E-03 -1.064624E-18 -2.142630E-01  0.000000E+00
  2.143420E-01 -3.328351E-02  5.000000E-01  2.165067E-01 -3.371289E-02  0.000000E+00  2.024501E-02 -1.297702E-03 -1.096735E-18 -3.207112E-01  0.000000E+00
  2.304940E-01 -3.382749E-02  5.000000E-01  2.328218E-01 -3.426237E-02  0.000000E+00  1.922731E-02 -1.086146E-04 -7.811225E-19 -3.788841E-01  0.000000E+00
  2.472290E-01 -3.340630E-02  5.000000E-01  2.497258E-01 -3.383692E-02  0.000000E+00  1.744762E-02  8.791740E-04 -1.228675E-18 -3.694283E-01  0.000000E+00
  2.645310E-01 -3.204094E-02  5.000000E-01  2.672025E-01 -3.245777E-02  0.000000E+00  1.523359E-02  1.536583E-03 -8.635946E-19 -3.097187E-01  0.000000E+00
  2.823750E-01 -2.978668E-02  5.000000E-01  2.852268E-01 -3.018075E-02  0.000000E+00  1.296056E-02  1.861055E-03  4.209081E-19 -2.219388E-01  0.000000E+00
  3.007320E-01 -2.677635E-02  5.000000E-01  3.037691E-01 -2.714002E-02  0.000000E+00  1.098831E-02  1.908480E-03  1.785148E-18 -1.203125E-01  0.000000E+00
  3.195690E-01 -2.328677E-02  5.000000E-01  3.227964E-01 -2.361519E-02  0.000000E+00  9.557861E-03  1.766603E-03  6.735775E-19 -1.573486E-02  0.000000E+00
  3.388440E-01 -1.973331E-02  5.000000E-01  3.422660E-01 -2.002584E-02  0.000000E+00  8.684227E-03  1.550063E-03 -1.836811E-18  7.279410E-02  0.000000E+00
  3.585140E-01 -1.636039E-02  5.000000E-01  3.621347E-01 -1.661887E-02  0.000000E+00  8.178073E-03  1.361843E-03 -7.869873E-19  1.271975E-01  0.000000E+00
  3.785290E-01 -1.313921E-02  5.000000E-01  3.823518E-01 -1.336515E-02  0.000000E+00  7.821255E-03  1.230117E-03  8.147894E-19  1.545481E-01  0.000000E+00
  3.988350E-01 -1.001653E-02  5.000000E-01  4.028629E-01 -1.021094E-02  0.000000E+00  7.474319E-03  1.134952E-03 -1.597543E-19  1.747065E-01  0.000000E+00
  4.193750E-01 -6.934595E-03  5.000000E-01  4.236103E-01 -7.097874E-03  0.000000E+00  7.074329E-03  1.062883E-03 -2.491162E-18  1.963764E-01  0.000000E+00
  4.400850E-01 -3.820420E-03  5.000000E-01  4.445295E-01 -3.952249E-03  0.000000E+00  6.632403E-03  1.001344E-03 -8.203195E-19  2.207146E-01  0.000000E+00
  4.609060E-01 -6.601292E-04  5.000000E-01  4.655608E-01 -7.600413E-04  0.000000E+00  6.240904E-03  9.228767E-04  1.399408E-18  2.513660E-01  0.000000E+00
  4.818030E-01  2.351848E-03  5.000000E-01  4.866688E-01  2.282354E-03  0.000000E+00  6.027118E-03  8.091776E-04  2.217339E-19  2.873858E-01  0.000000E+00
  5.027520E-01  4.953224E-03  5.000000E-01  5.078294E-01  4.910002E-03  0.000000E+00  6.073958E-03  6.695822E-04  1.090785E-20  3.173953E-01  0.000000E+00
  5.237130E-01  6.973064E-03  5.000000E-01  5.290021E-01  6.950241E-03  0.000000E+00  6.389157E-03  5.206549E-04 -1.617286E-19  3.311639E-01  0.000000E+00
  5.446170E-01  8.384017E-03  5.000000E-01  5.501172E-01  8.375443E-03  0.000000E+00  6.920505E-03  3.719347E-04 -2.604899E-19  3.285611E-01  0.000000E+00
  5.653940E-01  9.239787E-03  5.000000E-01  5.711040E-01  9.239856E-03  0.000000E+00  7.561897E-03  2.466102E-04 -6.031383E-20  3.128797E-01  0.000000E+00
  4.675910E-01  6.720452E-02  5.000000E-01  4.723133E-01  6.778999E-02  0.000000E+00  1.414175E-02 -8.383699E-04  2.946747E-20 -6.316621E-01  0.000000E+00
  4.464640E-01  6.840857E-02  5.000000E-01  4.509729E-01  6.900619E-02  0.000000E+00  1.467171E-02 -7.758454E-04 -2.840680E-19 -6.719708E-01  0.000000E+00
  4.254410E-01  6.943855E-02  5.000000E-01  4.297376E-01  7.004658E-02  0.000000E+00  1.530045E-02 -6.748762E-04 -2.727202E-19 -7.098066E-01  0.000000E+00
  4.045840E-01  7.026099E-02  5.000000E-01  4.086700E-01  7.087732E-02  0.000000E+00  1.594662E-02 -5.495686E-04  3.585998E-19 -7.452559E-01  0.000000E+00
  3.839530E-01  7.087361E-02  5.000000E-01  3.878306E-01  7.149613E-02  0.000000E+00  1.656543E-02 -4.075851E-04  9.312662E-19 -7.789728E-01  0.000000E+00
  3.636060E-01  7.127487E-02  5.000000E-01  3.672781E-01  7.190144E-02  0.000000E+00  1.715463E-02 -2.497007E-04  5.119714E-19 -8.122744E-01  0.000000E+00
  3.435960E-01  7.146596E-02  5.000000E-01  3.470660E-01  7.209446E-02  0.000000E+00  1.774150E-02 -7.657239E-05  4.682141E-20 -8.483501E-01  0.000000E+00
  3.239710E-01  7.145001E-02  5.000000E-01  3.272428E-01  7.207835E-02  0.000000E+00  1.837355E-02  1.180967E-04 -3.614762E-19 -8.900445E-01  0.000000E+00
  3.047740E-01  7.122153E-02  5.000000E-01  3.078520E-01  7.184756E-02  0.000000E+00  1.910247E-02  3.567520E-04 -6.653104E-19 -9.363059E-01  0.000000E+00
  2.860450E-01  7.074981E-02  5.000000E-01  2.889338E-01  7.137108E-02  0.000000E+00  1.994900E-02  6.665711E-04 -6.084348E-19 -9.824695E-01  0.000000E+00
  2.678190E-01  6.999759E-02  5.000000E-01  2.705238E-01  7.061127E-02  0.000000E+00  2.087733E-02  1.058689E-03 -9.366573E-19 -1.023418E+00  0.000000E+00
  2.501300E-01  6.894115E-02  5.000000E-01  2.526561E-01  6.954415E-02  0.000000E+00  2.180794E-02  1.525541E-03 -1.069651E-18 -1.054728E+00  0.000000E+00
  2.330040E-01  6.757537E-02  5.000000E-01  2.353571E-01  6.816458E-02  0.000000E+00  2.264961E-02  2.048064E-03 -1.117328E-18 -1.072552E+00  0.000000E+00
  2.164660E-01  6.591013E-02  5.000000E-01  2.186521E-01  6.648252E-02  0.000000E+00  2.332673E-02  2.598379E-03 -7.387154E-19 -1.074555E+00  0.000000E+00
  2.005340E-01  6.397006E-02  5.000000E-01  2.025592E-01  6.452286E-02  0.000000E+00  2.379656E-02  3.139190E-03 -2.271938E-19 -1.062073E+00  0.000000E+00
  1.852230E-01  6.179776E-02  5.000000E-01  1.870936E-01  6.232862E-02  0.000000E+00  2.406488E-02  3.637199E-03  7.946122E-19 -1.040720E+00  0.000000E+00
  1.705440E-01  5.944416E-02  5.000000E-01  1.722664E-01  5.995125E-02  0.000000E+00  2.418886E-02  4.083498E-03  2.098539E-18 -1.018832E+00  0.000000E+00
  1.565000E-01  5.695320E-02  5.000000E-01  1.580805E-01  5.743513E-02  0.000000E+00  2.425806E-02  4.495568E-03  2.851063E-18 -1.004938E+00  0.000000E+00
  1.430940E-01  5.435995E-02  5.000000E-01  1.445391E-01  5.481570E-02  0.000000E+00  2.437557E-02  4.925437E-03  2.354376E-18 -1.000727E+00  0.000000E+00
  1.303270E-01  5.167020E-02  5.000000E-01  1.316432E-01  5.209878E-02  0.000000E+00  2.461689E-02  5.458400E-03  1.403093E-19 -9.946330E-01  0.000000E+00
  1.182110E-01  4.885292E-02  5.000000E-01  1.194048E-01  4.925305E-02  0.000000E+00  2.494180E-02  6.123568E-03 -2.460277E-19 -9.709867E-01  0.000000E+00
  1.067560E-01  4.589670E-02  5.000000E-01  1.078342E-01  4.626697E-02  0.000000E+00  2.518976E-02  6.850754E-03  9.901048E-19 -9.220841E-01  0.000000E+00
  9.596750E-02  4.281507E-02  5.000000E-01  9.693670E-02  4.315422E-02  0.000000E+00  2.517517E-02  7.478845E-03  5.527150E-19 -8.579005E-01  0.000000E+00
  8.582800E-02  3.968378E-02  5.000000E-01  8.669480E-02  3.999131E-02  0.000000E+00  2.484619E-02  7.883710E-03 -3.627184E-19 -7.977877E-01  0.000000E+00
  8.582800E-02  3.968378E-02  5.000000E-01  8.669480E-02  3.999131E-02  0.000000E+00  2.484619E-02  7.883710E-03 -3.627184E-19 -7.977877E-01  0.000000E+00
  7.631050E-02  3.658022E-02  5.000000E-01  7.708118E-02  3.685640E-02  0.000000E+00  2.434863E-02  8.152360E-03  6.680546E-20 -7.454139E-01  0.000000E+00
  6.740780E-02  3.352076E-02  5.000000E-01  6.808857E-02  3.376604E-02  0.000000E+00  2.384684E-02  8.424769E-03  1.804470E-18 -6.940141E-01  0.000000E+00
  5.911740E-02  3.051091E-02  5.000000E-01  5.971444E-02  3.072580E-02  0.000000E+00  2.339705E-02  8.724179E-03  2.024765E-18 -6.413781E-01  0.000000E+00
  5.143150E-02  2.756840E-02  5.000000E-01  5.195092E-02  2.775357E-02  0.000000E+00  2.298698E-02  9.020857E-03  1.186395E-18 -5.884154E-01  0.000000E+00
  4.433770E-02  2.471556E-02  5.000000E-01  4.478548E-02  2.487192E-02  0.000000E+00  2.258858E-02  9.295087E-03  2.117283E-18 -5.373219E-01  0.000000E+00
  3.782240E-02  2.197267E-02  5.000000E-01  3.820438E-02  2.210133E-02  0.000000E+00  2.218746E-02  9.551555E-03  1.900920E-18 -4.913203E-01  0.000000E+00
  3.187460E-02  1.935390E-02  5.000000E-01  3.219651E-02  1.945611E-02  0.000000E+00  2.179547E-02  9.814766E-03  1.725267E-18 -4.533349E-01  0.000000E+00
  2.648400E-02  1.687065E-02  5.000000E-01  2.675147E-02  1.694778E-02  0.000000E+00  2.144117E-02  1.014171E-02  5.016474E-18 -4.190329E-01  0.000000E+00
  2.164990E-02  1.452460E-02  5.000000E-01  2.186855E-02  1.457804E-02  0.000000E+00  2.110190E-02  1.057633E-02  9.473777E-18 -3.747888E-01  0.000000E+00
  1.737670E-02  1.231576E-02  5.000000E-01  1.755220E-02  1.234689E-02  0.000000E+00  2.064947E-02  1.100513E-02  1.477669E-17 -3.158953E-01  0.000000E+00
  1.364080E-02  1.026348E-02  5.000000E-01  1.377857E-02  1.027388E-02  0.000000E+00  1.995801E-02  1.120751E-02  2.073618E-17 -2.581556E-01  0.000000E+00
  1.039090E-02  8.395876E-03  5.000000E-01  1.049584E-02  8.387422E-03  0.000000E+00  1.905559E-02  1.114219E-02  2.417333E-17 -2.219002E-01  0.000000E+00
  7.586340E-03  6.725721E-03  5.000000E-01  7.662961E-03  6.700400E-03  0.000000E+00  1.811773E-02  1.107684E-02  1.885705E-17 -2.128165E-01  0.000000E+00
  5.226210E-03  5.243680E-03  5.000000E-01  5.278995E-03  5.203391E-03  0.000000E+00  1.739788E-02  1.142495E-02 -6.445418E-18 -2.287634E-01  0.000000E+00
  3.324300E-03  3.937093E-03  5.000000E-01  3.357878E-03  3.883609E-03  0.000000E+00  1.729954E-02  1.274629E-02 -5.886511E-17 -2.717865E-01  0.000000E+00
  1.883580E-03  2.803090E-03  5.000000E-01  1.902608E-03  2.738154E-03  0.000000E+00  1.831287E-02  1.614181E-02 -1.446314E-16 -3.264413E-01  0.000000E+00
  8.951490E-04  1.847015E-03  5.000000E-01  9.041943E-04  1.772423E-03  0.000000E+00  2.000579E-02  2.318954E-02 -2.780292E-16 -3.337221E-01  0.000000E+00
  3.201820E-04  1.083443E-03  5.000000E-01  3.234207E-04  1.001140E-03  0.000000E+00  1.945589E-02  3.378024E-02 -4.808267E-16 -2.182882E-01  0.000000E+00
  6.852390E-05  5.307638E-04  5.000000E-01  6.922102E-05  4.428786E-04  0.000000E+00  1.370655E-02  4.314483E-02 -7.614039E-16 -2.102578E-02  0.000000E+00
  4.217600E-06  2.011111E-04  5.000000E-01  4.265278E-06  1.098967E-04  0.000000E+00  5.635220E-03  4.905245E-02 -1.057789E-15  4.229860E-02  0.000000E+00
 -5.032520E-09  9.231311E-05  5.000000E-01  0.000000E+00  0.000000E+00  0.000000E+00 -1.269755E-03  6.275889E-02 -1.319275E-15 -2.432273E-02  0.000000E+00
  5.154440E-06 -1.651593E-05  5.000000E-01  5.211579E-06 -1.099281E-04  0.000000E+00 -1.005249E-02  7.038493E-02 -1.583606E-15  1.623588E-01  0.000000E+00