 Title = "ADflow Slice Data"
Variables =  "CoordinateX"  "CoordinateY"  "CoordinateZ"  "XoC"  "YoC"  "ZoC" "VelocityX" "VelocityY" "VelocityZ" "CoefPressure" "Mach" 
Zone T= "Slice_0001 None Absolute Regular z = 0.50000000"
 Nodes =          192  Elements=          184  ZONETYPE=FELINESEG
 DATAPACKING=POINT
  5.653940E-01 -6.000992E-03  5.000000E-01  5.711040E-01 -6.131075E-03  0.000000E+00  1.140536E-02  2.388931E-04 -7.225700E-19  1.037497E-01  0.000000E+00
  5.859770E-01 -5.482931E-03  5.000000E-01  5.918949E-01 -5.607782E-03  0.000000E+00  1.143854E-02  3.677094E-04 -8.324577E-19  8.557992E-02  0.000000E+00
  6.063060E-01 -4.686099E-03  5.000000E-01  6.124292E-01 -4.802904E-03  0.000000E+00  1.123475E-02  5.355212E-04  3.931081E-19  7.715831E-02  0.000000E+00
  6.263240E-01 -3.555931E-03  5.000000E-01  6.326493E-01 -3.661321E-03  0.000000E+00  1.078178E-02  7.011424E-04 -2.241921E-20  8.137356E-02  0.000000E+00
  6.459860E-01 -2.098665E-03  5.000000E-01  6.525099E-01 -2.189339E-03  0.000000E+00  1.010931E-02  8.335266E-04 -1.939164E-18  9.781586E-02  0.000000E+00
  6.652460E-01 -3.381054E-04  5.000000E-01  6.719644E-01 -4.109991E-04  0.000000E+00  9.278765E-03  9.153421E-04 -1.227224E-18  1.239644E-01  0.000000E+00
  6.840650E-01  1.669176E-03  5.000000E-01  6.909735E-01  1.616554E-03  0.000000E+00  8.380203E-03  9.322914E-04 -8.310108E-19  1.587151E-01  0.000000E+00
  7.024070E-01  3.804796E-03  5.000000E-01  7.095007E-01  3.773742E-03  0.000000E+00  7.507163E-03  8.859053E-04 -1.980407E-18  1.991645E-01  0.000000E+00
  7.202400E-01  5.939750E-03  5.000000E-01  7.275138E-01  5.930257E-03  0.000000E+00  6.729268E-03  7.958404E-04 -1.161108E-18  2.398094E-01  0.000000E+00
  7.375350E-01  7.955608E-03  5.000000E-01  7.449835E-01  7.966473E-03  0.000000E+00  6.087318E-03  6.845750E-04  1.261788E-19  2.764793E-01  0.000000E+00
  7.542690E-01  9.761284E-03  5.000000E-01  7.618864E-01  9.790386E-03  0.000000E+00  5.600149E-03  5.695260E-04  6.656229E-19  3.073566E-01  0.000000E+00
  7.704220E-01  1.129517E-02  5.000000E-01  7.782026E-01  1.133976E-02  0.000000E+00  5.273762E-03  4.595263E-04  1.010145E-18  3.319242E-01  0.000000E+00
  7.859770E-01  1.252296E-02  5.000000E-01  7.939147E-01  1.257995E-02  0.000000E+00  5.109973E-03  3.515830E-04  1.053856E-18  3.510751E-01  0.000000E+00
  8.009220E-01  1.339952E-02  5.000000E-01  8.090106E-01  1.346537E-02  0.000000E+00  5.107821E-03  2.372404E-04  8.806219E-20  3.657705E-01  0.000000E+00
  8.152480E-01  1.389215E-02  5.000000E-01  8.234813E-01  1.396297E-02  0.000000E+00  5.250507E-03  1.174774E-04 -8.442441E-19  3.739471E-01  0.000000E+00
  8.289490E-01  1.403814E-02  5.000000E-01  8.373207E-01  1.411044E-02  0.000000E+00  5.502452E-03 -3.576131E-07 -5.005703E-19  3.741899E-01  0.000000E+00
  8.420260E-01  1.390423E-02  5.000000E-01  8.505297E-01  1.397517E-02  0.000000E+00  5.823858E-03 -1.125685E-04 -6.438840E-20  3.687555E-01  0.000000E+00
  8.544790E-01  1.355757E-02  5.000000E-01  8.631085E-01  1.362501E-02  0.000000E+00  6.180220E-03 -2.176202E-04 -2.922631E-19  3.602894E-01  0.000000E+00
  8.663160E-01  1.305876E-02  5.000000E-01  8.750650E-01  1.312116E-02  0.000000E+00  6.542694E-03 -3.136903E-04 -2.979666E-19  3.501546E-01  0.000000E+00
  8.775420E-01  1.245886E-02  5.000000E-01  8.864044E-01  1.251520E-02  0.000000E+00  6.887666E-03 -3.983666E-04 -1.443479E-20  3.390999E-01  0.000000E+00
  8.881660E-01  1.179978E-02  5.000000E-01  8.971357E-01  1.184947E-02  0.000000E+00  7.198083E-03 -4.694618E-04 -2.901255E-21  3.277692E-01  0.000000E+00
  8.981970E-01  1.111482E-02  5.000000E-01  9.072680E-01  1.115759E-02  0.000000E+00  7.465844E-03 -5.280687E-04  1.861491E-19  3.169203E-01  0.000000E+00
  9.076460E-01  1.042439E-02  5.000000E-01  9.168124E-01  1.046019E-02  0.000000E+00  7.693892E-03 -5.802464E-04  5.526841E-19  3.074170E-01  0.000000E+00
  9.165220E-01  9.734958E-03  5.000000E-01  9.257781E-01  9.763794E-03  0.000000E+00  7.892775E-03 -6.318154E-04  1.662947E-19  2.992817E-01  0.000000E+00
  9.165220E-01  9.734958E-03  5.000000E-01  9.257781E-01  9.763794E-03  0.000000E+00  7.892775E-03 -6.318154E-04  1.662947E-19  2.992817E-01  0.000000E+00
  9.248360E-01  9.050007E-03  5.000000E-01  9.341760E-01  9.071925E-03  0.000000E+00  8.073826E-03 -6.848587E-04 -2.019459E-19  2.917349E-01  0.000000E+00
  9.325990E-01  8.372869E-03  5.000000E-01  9.420174E-01  8.387949E-03  0.000000E+00  8.246638E-03 -7.403398E-04 -5.861168E-20  2.843199E-01  0.000000E+00
  9.398210E-01  7.706478E-03  5.000000E-01  9.493124E-01  7.714827E-03  0.000000E+00  8.419622E-03 -7.993187E-04  1.743774E-19  2.769140E-01  0.000000E+00
  9.465130E-01  7.053711E-03  5.000000E-01  9.560719E-01  7.055469E-03  0.000000E+00  8.600044E-03 -8.627012E-04  8.543379E-19  2.693777E-01  0.000000E+00
  9.526870E-01  6.417623E-03  5.000000E-01  9.623083E-01  6.412957E-03  0.000000E+00  8.793665E-03 -9.311856E-04  9.551215E-19  2.615379E-01  0.000000E+00
  9.583540E-01  5.801639E-03  5.000000E-01  9.680325E-01  5.790751E-03  0.000000E+00  9.004790E-03 -1.005247E-03  5.402189E-19  2.532412E-01  0.000000E+00
  9.635240E-01  5.209638E-03  5.000000E-01  9.732547E-01  5.192772E-03  0.000000E+00  9.236763E-03 -1.084994E-03  6.511760E-20  2.443459E-01  0.000000E+00
  9.682080E-01  4.645917E-03  5.000000E-01  9.779860E-01  4.623357E-03  0.000000E+00  9.493584E-03 -1.170659E-03 -4.342011E-19  2.347795E-01  0.000000E+00
  9.724140E-01  4.115162E-03  5.000000E-01  9.822345E-01  4.087242E-03  0.000000E+00  9.782273E-03 -1.262682E-03 -4.991517E-19  2.245213E-01  0.000000E+00
  9.761510E-01  3.622314E-03  5.000000E-01  9.860093E-01  3.589417E-03  0.000000E+00  1.011313E-02 -1.361355E-03 -1.239630E-19  2.135286E-01  0.000000E+00
  9.794290E-01  3.172373E-03  5.000000E-01  9.893204E-01  3.134932E-03  0.000000E+00  1.049301E-02 -1.467052E-03  3.855541E-19  2.018014E-01  0.000000E+00
  9.822540E-01  2.770350E-03  5.000000E-01  9.921739E-01  2.728849E-03  0.000000E+00  1.090776E-02 -1.578080E-03  3.002399E-19  1.895766E-01  0.000000E+00
  9.846330E-01  2.420983E-03  5.000000E-01  9.945769E-01  2.375953E-03  0.000000E+00  1.130439E-02 -1.684160E-03 -4.865220E-19  1.780879E-01  0.000000E+00
  9.865710E-01  2.128614E-03  5.000000E-01  9.965345E-01  2.080632E-03  0.000000E+00  1.155375E-02 -1.753323E-03 -8.489394E-19  1.662079E-01  0.000000E+00
  9.880740E-01  1.897022E-03  5.000000E-01  9.980527E-01  1.846701E-03  0.000000E+00  1.144383E-02 -1.780445E-03 -3.498578E-18  1.476442E-01  0.000000E+00
  9.891450E-01  1.729291E-03  5.000000E-01  9.991345E-01  1.677276E-03  0.000000E+00  1.164537E-02 -1.915139E-03 -2.255996E-17  1.489187E-01  0.000000E+00
  9.897860E-01  1.627717E-03  5.000000E-01  9.997820E-01  1.574677E-03  0.000000E+00  1.501765E-02 -1.910535E-03 -6.797964E-17  1.967151E-01  0.000000E+00
  9.900000E-01  1.593704E-03  5.000000E-01  9.999981E-01  1.540320E-03  0.000000E+00  1.049023E-02 -4.303937E-03 -7.276207E-17 -4.398745E-02  0.000000E+00
  9.900000E-01  1.672415E-03  5.000000E-01  9.999981E-01  1.619825E-03  0.000000E+00  1.050570E-03 -1.468398E-02  1.824421E-17 -1.803985E-01  0.000000E+00
  9.900000E-01  1.751135E-03  5.000000E-01  9.999981E-01  1.699341E-03  0.000000E+00 -5.231576E-04 -1.379951E-02  1.037354E-16 -5.690468E-03  0.000000E+00
  9.900000E-01  1.829855E-03  5.000000E-01  9.999981E-01  1.778856E-03  0.000000E+00 -3.004099E-04  2.503093E-03  1.064945E-16 -1.019785E-02  0.000000E+00
  9.900000E-01  1.908566E-03  5.000000E-01  9.999981E-01  1.858361E-03  0.000000E+00  7.116496E-04  3.892953E-03  1.174812E-16 -1.281079E-01  0.000000E+00
  9.900000E-01  1.987286E-03  5.000000E-01  9.999981E-01  1.937877E-03  0.000000E+00  5.887032E-03 -2.557494E-03  1.499455E-16 -3.409798E-02  0.000000E+00
  9.900000E-01  1.987286E-03  5.000000E-01  9.999981E-01  1.937877E-03  0.000000E+00  5.887032E-03 -2.557494E-03  1.499455E-16 -3.409798E-02  0.000000E+00
  9.897900E-01  2.030890E-03  5.000000E-01  9.997860E-01  1.981921E-03  0.000000E+00  7.664576E-03 -1.922762E-03  1.108141E-16  1.080605E-01  0.000000E+00
  9.891580E-01  2.161652E-03  5.000000E-01  9.991476E-01  2.114003E-03  0.000000E+00  4.763893E-03 -9.245227E-04  4.179966E-17  6.574807E-02  0.000000E+00
  9.881040E-01  2.379434E-03  5.000000E-01  9.980830E-01  2.333985E-03  0.000000E+00  4.021605E-03 -8.282827E-04  8.892512E-18  5.614374E-02  0.000000E+00
  9.866260E-01  2.683992E-03  5.000000E-01  9.965900E-01  2.641619E-03  0.000000E+00  3.844083E-03 -7.963705E-04 -1.701336E-18  5.828751E-02  0.000000E+00
  9.847200E-01  3.074959E-03  5.000000E-01  9.946648E-01  3.036534E-03  0.000000E+00  3.765068E-03 -7.696827E-04 -3.734187E-18  5.344236E-02  0.000000E+00
  9.823820E-01  3.551825E-03  5.000000E-01  9.923032E-01  3.518216E-03  0.000000E+00  3.811722E-03 -7.742519E-04 -3.005857E-18  4.590766E-02  0.000000E+00
  9.796080E-01  4.113892E-03  5.000000E-01  9.895012E-01  4.085960E-03  0.000000E+00  3.963898E-03 -7.997968E-04 -1.790175E-18  3.768904E-02  0.000000E+00
  9.763910E-01  4.760274E-03  5.000000E-01  9.862517E-01  4.738870E-03  0.000000E+00  4.181097E-03 -8.362279E-04 -2.876976E-19  2.827970E-02  0.000000E+00
  9.727270E-01  5.489769E-03  5.000000E-01  9.825507E-01  5.475732E-03  0.000000E+00  4.436381E-03 -8.782231E-04  5.610528E-19  1.758433E-02  0.000000E+00
  9.686070E-01  6.300987E-03  5.000000E-01  9.783891E-01  6.295143E-03  0.000000E+00  4.713570E-03 -9.221484E-04  4.069900E-19  5.844378E-03  0.000000E+00
  9.640240E-01  7.192167E-03  5.000000E-01  9.737598E-01  7.195322E-03  0.000000E+00  5.003616E-03 -9.658037E-04  3.267882E-19 -6.783946E-03  0.000000E+00
  9.589680E-01  8.161260E-03  5.000000E-01  9.686527E-01  8.174203E-03  0.000000E+00  5.302458E-03 -1.008129E-03  1.350048E-20 -2.016808E-02  0.000000E+00
  9.534310E-01  9.205857E-03  5.000000E-01  9.630598E-01  9.229349E-03  0.000000E+00  5.608162E-03 -1.048527E-03 -3.473613E-19 -3.417735E-02  0.000000E+00
  9.474030E-01  1.032324E-02  5.000000E-01  9.569709E-01  1.035802E-02  0.000000E+00  5.918667E-03 -1.086201E-03 -4.146037E-19 -4.859512E-02  0.000000E+00
  9.408720E-01  1.151039E-02  5.000000E-01  9.503740E-01  1.155716E-02  0.000000E+00  6.230619E-03 -1.120439E-03 -4.901142E-19 -6.326370E-02  0.000000E+00
  9.338280E-01  1.276404E-02  5.000000E-01  9.432588E-01  1.282346E-02  0.000000E+00  6.539853E-03 -1.150570E-03 -5.385550E-19 -7.804346E-02  0.000000E+00
  9.262600E-01  1.408076E-02  5.000000E-01  9.356144E-01  1.415348E-02  0.000000E+00  6.841558E-03 -1.175681E-03  3.610898E-19 -9.272513E-02  0.000000E+00
  9.181550E-01  1.545688E-02  5.000000E-01  9.274276E-01  1.554350E-02  0.000000E+00  7.130121E-03 -1.195010E-03  8.918019E-19 -1.071609E-01  0.000000E+00
  9.095020E-01  1.688884E-02  5.000000E-01  9.186872E-01  1.698992E-02  0.000000E+00  7.399509E-03 -1.207853E-03  1.320781E-18 -1.211096E-01  0.000000E+00
  9.002880E-01  1.837289E-02  5.000000E-01  9.093801E-01  1.848896E-02  0.000000E+00  7.642854E-03 -1.213689E-03  1.423505E-18 -1.341432E-01  0.000000E+00
  8.905020E-01  1.990554E-02  5.000000E-01  8.994953E-01  2.003709E-02  0.000000E+00  7.852665E-03 -1.213403E-03  7.762010E-20 -1.460438E-01  0.000000E+00
  8.801320E-01  2.148675E-02  5.000000E-01  8.890206E-01  2.163427E-02  0.000000E+00  8.023726E-03 -1.209535E-03  1.003621E-19 -1.569986E-01  0.000000E+00
  8.691700E-01  2.312049E-02  5.000000E-01  8.779478E-01  2.328450E-02  0.000000E+00  8.156254E-03 -1.204716E-03  8.704847E-19 -1.673353E-01  0.000000E+00
  8.691700E-01  2.312049E-02  5.000000E-01  8.779478E-01  2.328450E-02  0.000000E+00  8.156254E-03 -1.204716E-03  8.704847E-19 -1.673353E-01  0.000000E+00
  8.576080E-01  2.481308E-02  5.000000E-01  8.662691E-01  2.499419E-02  0.000000E+00  8.256407E-03 -1.201249E-03  1.024126E-19 -1.772840E-01  0.000000E+00
  8.454380E-01  2.657307E-02  5.000000E-01  8.539762E-01  2.677195E-02  0.000000E+00  8.335094E-03 -1.202040E-03 -1.068245E-18 -1.871752E-01  0.000000E+00
  8.326580E-01  2.841139E-02  5.000000E-01  8.410671E-01  2.862884E-02  0.000000E+00  8.407629E-03 -1.210249E-03 -7.779919E-19 -1.978081E-01  0.000000E+00
  8.192630E-01  3.034096E-02  5.000000E-01  8.275368E-01  3.057789E-02  0.000000E+00  8.493933E-03 -1.228835E-03 -2.578947E-19 -2.108651E-01  0.000000E+00
  8.052550E-01  3.237507E-02  5.000000E-01  8.133874E-01  3.263255E-02  0.000000E+00  8.618106E-03 -1.258304E-03  3.358589E-19 -2.281521E-01  0.000000E+00
  7.906370E-01  3.451989E-02  5.000000E-01  7.986217E-01  3.479903E-02  0.000000E+00  8.802667E-03 -1.292350E-03  3.933268E-19 -2.492853E-01  0.000000E+00
  7.754120E-01  3.675711E-02  5.000000E-01  7.832430E-01  3.705884E-02  0.000000E+00  9.054222E-03 -1.321609E-03 -3.837063E-20 -2.720030E-01  0.000000E+00
  7.595880E-01  3.905224E-02  5.000000E-01  7.672592E-01  3.937716E-02  0.000000E+00  9.356635E-03 -1.344277E-03 -4.118278E-19 -2.955805E-01  0.000000E+00
  7.431760E-01  4.138790E-02  5.000000E-01  7.506814E-01  4.173640E-02  0.000000E+00  9.686161E-03 -1.362155E-03 -8.228617E-19 -3.201598E-01  0.000000E+00
  7.261880E-01  4.374915E-02  5.000000E-01  7.335219E-01  4.412149E-02  0.000000E+00  1.002411E-02 -1.373951E-03 -3.759717E-20 -3.448822E-01  0.000000E+00
  7.086430E-01  4.612170E-02  5.000000E-01  7.157997E-01  4.651800E-02  0.000000E+00  1.035786E-02 -1.379063E-03 -1.923738E-19 -3.688120E-01  0.000000E+00
  6.905640E-01  4.849335E-02  5.000000E-01  6.975381E-01  4.891361E-02  0.000000E+00  1.068309E-02 -1.380550E-03 -3.650387E-19 -3.922496E-01  0.000000E+00
  6.719770E-01  5.085987E-02  5.000000E-01  6.787634E-01  5.130403E-02  0.000000E+00  1.100786E-02 -1.386146E-03 -1.096713E-19 -4.180210E-01  0.000000E+00
  6.529150E-01  5.323284E-02  5.000000E-01  6.595089E-01  5.370097E-02  0.000000E+00  1.135935E-02 -1.398243E-03 -7.225478E-19 -4.487233E-01  0.000000E+00
  6.334180E-01  5.560606E-02  5.000000E-01  6.398150E-01  5.609815E-02  0.000000E+00  1.177426E-02 -1.406606E-03 -7.226742E-19 -4.837855E-01  0.000000E+00
  6.135280E-01  5.793898E-02  5.000000E-01  6.197241E-01  5.845463E-02  0.000000E+00  1.227248E-02 -1.401631E-03  5.650882E-20 -5.219651E-01  0.000000E+00
  5.932910E-01  6.018995E-02  5.000000E-01  5.992827E-01  6.072834E-02  0.000000E+00  1.285117E-02 -1.379208E-03  1.913676E-20 -5.621556E-01  0.000000E+00
  5.727570E-01  6.231720E-02  5.000000E-01  5.785413E-01  6.287707E-02  0.000000E+00  1.349367E-02 -1.334374E-03 -5.648942E-19 -6.020587E-01  0.000000E+00
  5.519810E-01  6.427975E-02  5.000000E-01  5.575555E-01  6.485944E-02  0.000000E+00  1.417380E-02 -1.263011E-03 -9.531927E-19 -6.396487E-01  0.000000E+00
  5.310180E-01  6.604165E-02  5.000000E-01  5.363808E-01  6.663914E-02  0.000000E+00  1.486235E-02 -1.168010E-03 -1.217780E-18 -6.759123E-01  0.000000E+00
  5.099250E-01  6.758789E-02  5.000000E-01  5.150748E-01  6.820099E-02  0.000000E+00  1.554312E-02 -1.056102E-03 -2.817499E-19 -7.141554E-01  0.000000E+00
  4.887640E-01  6.891517E-02  5.000000E-01  4.937001E-01  6.954167E-02  0.000000E+00  1.622620E-02 -9.192751E-04  3.378523E-19 -7.540862E-01  0.000000E+00
  4.675910E-01  6.999167E-02  5.000000E-01  4.723133E-01  7.062905E-02  0.000000E+00  1.692286E-02 -7.374792E-04 -2.589700E-19 -7.903297E-01  0.000000E+00
  7.860720E-05 -3.612279E-04  5.000000E-01  7.940615E-05 -4.343550E-04  0.000000E+00 -2.256077E-02  6.070657E-02 -6.170027E-15  5.496451E-01  0.000000E+00
  3.989240E-04 -8.631288E-04  5.000000E-01  4.029579E-04 -9.413247E-04  0.000000E+00 -2.156302E-02  2.740710E-02 -5.123020E-15  1.033237E+00  0.000000E+00
  1.196920E-03 -1.472432E-03  5.000000E-01  1.209013E-03 -1.556781E-03  0.000000E+00 -9.843308E-03  7.088365E-03 -3.297401E-15  1.101764E+00  0.000000E+00
  2.563580E-03 -2.116170E-03  5.000000E-01  2.589475E-03 -2.207021E-03  0.000000E+00  1.017990E-03 -1.667697E-04 -1.496521E-15  9.755166E-01  0.000000E+00
  4.492740E-03 -2.764597E-03  5.000000E-01  4.538118E-03 -2.861996E-03  0.000000E+00  7.269712E-03 -2.125489E-03 -2.725068E-16  8.625256E-01  0.000000E+00
  6.952190E-03 -3.418708E-03  5.000000E-01  7.022406E-03 -3.522713E-03  0.000000E+00  1.027935E-02 -2.533267E-03  2.359468E-16  7.822143E-01  0.000000E+00
  9.910730E-03 -4.099930E-03  5.000000E-01  1.001082E-02 -4.210814E-03  0.000000E+00  1.166074E-02 -2.580146E-03  2.681458E-16  7.156649E-01  0.000000E+00
  1.334950E-02 -4.832720E-03  5.000000E-01  1.348432E-02 -4.951005E-03  0.000000E+00  1.231887E-02 -2.510431E-03  1.383748E-16  6.500422E-01  0.000000E+00
  1.728780E-02 -5.601277E-03  5.000000E-01  1.746240E-02 -5.727324E-03  0.000000E+00  1.265008E-02 -2.312128E-03  2.940097E-17  5.804754E-01  0.000000E+00
  2.175590E-02 -6.363745E-03  5.000000E-01  2.197562E-02 -6.497492E-03  0.000000E+00  1.281464E-02 -2.017393E-03 -1.546254E-17  5.146422E-01  0.000000E+00
  2.676920E-02 -7.086138E-03  5.000000E-01  2.703955E-02 -7.227181E-03  0.000000E+00  1.290443E-02 -1.707731E-03 -1.787922E-17  4.614863E-01  0.000000E+00
  3.232800E-02 -7.755813E-03  5.000000E-01  3.265449E-02 -7.903619E-03  0.000000E+00  1.297389E-02 -1.439203E-03 -8.110917E-18  4.221431E-01  0.000000E+00
  3.842930E-02 -8.374757E-03  5.000000E-01  3.881741E-02 -8.528814E-03  0.000000E+00  1.303893E-02 -1.227612E-03 -1.803171E-18  3.921525E-01  0.000000E+00
  4.507220E-02 -8.952093E-03  5.000000E-01  4.552739E-02 -9.111980E-03  0.000000E+00  1.310796E-02 -1.080723E-03  8.796657E-20  3.681646E-01  0.000000E+00
  5.225680E-02 -9.512025E-03  5.000000E-01  5.278455E-02 -9.677567E-03  0.000000E+00  1.320093E-02 -1.000455E-03 -5.778160E-20  3.482145E-01  0.000000E+00
  5.998640E-02 -1.008161E-02  5.000000E-01  6.059221E-02 -1.025291E-02  0.000000E+00  1.332096E-02 -9.561657E-04 -7.371096E-19  3.276326E-01  0.000000E+00
  6.827110E-02 -1.066155E-02  5.000000E-01  6.896058E-02 -1.083870E-02  0.000000E+00  1.344646E-02 -9.107489E-04 -1.185405E-19  3.036163E-01  0.000000E+00
  7.712280E-02 -1.124115E-02  5.000000E-01  7.790168E-02 -1.142415E-02  0.000000E+00  1.355804E-02 -8.539969E-04  5.027365E-19  2.785550E-01  0.000000E+00
  8.655260E-02 -1.181127E-02  5.000000E-01  8.742671E-02 -1.200003E-02  0.000000E+00  1.364299E-02 -7.846919E-04 -4.025234E-19  2.547221E-01  0.000000E+00
  9.657140E-02 -1.235831E-02  5.000000E-01  9.754669E-02 -1.255260E-02  0.000000E+00  1.368374E-02 -6.934357E-04 -7.031536E-19  2.318287E-01  0.000000E+00
  1.071900E-01 -1.285519E-02  5.000000E-01  1.082725E-01 -1.305450E-02  0.000000E+00  1.366702E-02 -5.780667E-04  2.327447E-19  2.103546E-01  0.000000E+00
  1.184180E-01 -1.327904E-02  5.000000E-01  1.196139E-01 -1.348262E-02  0.000000E+00  1.359983E-02 -4.550241E-04  5.071781E-19  1.927068E-01  0.000000E+00
  1.302610E-01 -1.362363E-02  5.000000E-01  1.315765E-01 -1.383070E-02  0.000000E+00  1.349869E-02 -3.408369E-04  2.532163E-19  1.795519E-01  0.000000E+00
  1.427230E-01 -1.388984E-02  5.000000E-01  1.441644E-01 -1.409959E-02  0.000000E+00  1.337168E-02 -2.411661E-04 -6.557381E-20  1.695236E-01  0.000000E+00
  1.427230E-01 -1.388984E-02  5.000000E-01  1.441644E-01 -1.409959E-02  0.000000E+00  1.337168E-02 -2.411661E-04 -6.557381E-20  1.695236E-01  0.000000E+00
  1.558070E-01 -1.408207E-02  5.000000E-01  1.573805E-01 -1.429377E-02  0.000000E+00  1.321152E-02 -1.503068E-04 -3.200376E-19  1.609306E-01  0.000000E+00
  1.695140E-01 -1.419249E-02  5.000000E-01  1.712259E-01 -1.440530E-02  0.000000E+00  1.300235E-02 -5.731046E-05  1.050785E-19  1.529993E-01  0.000000E+00
  1.838420E-01 -1.420264E-02  5.000000E-01  1.856986E-01 -1.441556E-02  0.000000E+00  1.273831E-02  4.040772E-05  3.627930E-19  1.468752E-01  0.000000E+00
  1.987870E-01 -1.409569E-02  5.000000E-01  2.007946E-01 -1.430752E-02  0.000000E+00  1.243649E-02  1.329450E-04  4.581676E-19  1.444024E-01  0.000000E+00
  2.143420E-01 -1.387228E-02  5.000000E-01  2.165067E-01 -1.408185E-02  0.000000E+00  1.213607E-02  2.020370E-04 -2.106351E-19  1.466493E-01  0.000000E+00
  2.304940E-01 -1.356499E-02  5.000000E-01  2.328218E-01 -1.377147E-02  0.000000E+00  1.187964E-02  2.351789E-04 -7.250895E-19  1.522150E-01  0.000000E+00
  2.472290E-01 -1.322050E-02  5.000000E-01  2.497258E-01 -1.342350E-02  0.000000E+00  1.169286E-02  2.340144E-04 -1.899072E-19  1.579030E-01  0.000000E+00
  2.645310E-01 -1.288486E-02  5.000000E-01  2.672025E-01 -1.308446E-02  0.000000E+00  1.157469E-02  2.149208E-04  2.645101E-20  1.604563E-01  0.000000E+00
  2.823750E-01 -1.256977E-02  5.000000E-01  2.852267E-01 -1.276619E-02  0.000000E+00  1.150325E-02  1.998198E-04  3.727809E-19  1.582963E-01  0.000000E+00
  3.007320E-01 -1.225661E-02  5.000000E-01  3.037691E-01 -1.244987E-02  0.000000E+00  1.145612E-02  1.978936E-04  7.457375E-19  1.532625E-01  0.000000E+00
  3.195690E-01 -1.192657E-02  5.000000E-01  3.227964E-01 -1.211649E-02  0.000000E+00  1.141928E-02  2.057206E-04  6.594576E-19  1.481658E-01  0.000000E+00
  3.388440E-01 -1.156916E-02  5.000000E-01  3.422660E-01 -1.175548E-02  0.000000E+00  1.138150E-02  2.174275E-04  3.003057E-19  1.441799E-01  0.000000E+00
  3.585140E-01 -1.118226E-02  5.000000E-01  3.621347E-01 -1.136467E-02  0.000000E+00  1.132663E-02  2.310400E-04  6.150641E-19  1.408515E-01  0.000000E+00
  3.785290E-01 -1.075986E-02  5.000000E-01  3.823518E-01 -1.093800E-02  0.000000E+00  1.123342E-02  2.482075E-04  7.325161E-19  1.375335E-01  0.000000E+00
  3.988350E-01 -1.029092E-02  5.000000E-01  4.028629E-01 -1.046432E-02  0.000000E+00  1.108640E-02  2.703698E-04  2.304016E-19  1.347927E-01  0.000000E+00
  4.193750E-01 -9.763055E-03  5.000000E-01  4.236103E-01 -9.931133E-03  0.000000E+00  1.088734E-02  3.017862E-04  1.777059E-19  1.332410E-01  0.000000E+00
  4.400850E-01 -9.146933E-03  5.000000E-01  4.445295E-01 -9.308788E-03  0.000000E+00  1.066838E-02  3.413312E-04  1.268525E-20  1.335154E-01  0.000000E+00
  4.609060E-01 -8.432523E-03  5.000000E-01  4.655607E-01 -8.587163E-03  0.000000E+00  1.050085E-02  3.656111E-04  6.197873E-21  1.375786E-01  0.000000E+00
  4.818030E-01 -7.691142E-03  5.000000E-01  4.866688E-01 -7.838295E-03  0.000000E+00  1.047152E-02  3.398786E-04  6.910819E-19  1.460606E-01  0.000000E+00
  5.027520E-01 -7.072276E-03  5.000000E-01  5.078294E-01 -7.213179E-03  0.000000E+00  1.062029E-02  2.633287E-04  1.136125E-18  1.526639E-01  0.000000E+00
  5.237130E-01 -6.653723E-03  5.000000E-01  5.290020E-01 -6.790399E-03  0.000000E+00  1.089757E-02  1.890096E-04  6.148223E-19  1.470012E-01  0.000000E+00
  5.446170E-01 -6.349462E-03  5.000000E-01  5.501172E-01 -6.483065E-03  0.000000E+00  1.119533E-02  1.754530E-04 -6.269820E-20  1.273721E-01  0.000000E+00
  5.653940E-01 -6.000992E-03  5.000000E-01  5.711040E-01 -6.131075E-03  0.000000E+00  1.140536E-02  2.388931E-04 -7.225700E-19  1.037497E-01  0.000000E+00
  4.675910E-01  6.999167E-02  5.000000E-01  4.723133E-01  7.062905E-02  0.000000E+00  1.692286E-02 -7.374792E-04 -2.589700E-19 -7.903297E-01  0.000000E+00
  4.464640E-01  7.076649E-02  5.000000E-01  4.509729E-01  7.141169E-02  0.000000E+00  1.760678E-02 -5.068014E-04 -4.388283E-20 -8.181798E-01  0.000000E+00
  4.254410E-01  7.121269E-02  5.000000E-01  4.297376E-01  7.186240E-02  0.000000E+00  1.822019E-02 -2.468400E-04  3.867273E-19 -8.372212E-01  0.000000E+00
  4.045840E-01  7.133975E-02  5.000000E-01  4.086699E-01  7.199074E-02  0.000000E+00  1.871533E-02  1.817505E-05  2.129227E-20 -8.497251E-01  0.000000E+00
  3.839530E-01  7.117689E-02  5.000000E-01  3.878306E-01  7.182624E-02  0.000000E+00  1.908356E-02  2.772882E-04 -5.832988E-19 -8.574381E-01  0.000000E+00
  3.636060E-01  7.074834E-02  5.000000E-01  3.672781E-01  7.139335E-02  0.000000E+00  1.934713E-02  5.291744E-04  2.485741E-20 -8.610590E-01  0.000000E+00
  3.435960E-01  7.007686E-02  5.000000E-01  3.470660E-01  7.071509E-02  0.000000E+00  1.953718E-02  7.727472E-04  8.385979E-19 -8.613790E-01  0.000000E+00
  3.239710E-01  6.918404E-02  5.000000E-01  3.272428E-01  6.981326E-02  0.000000E+00  1.968069E-02  1.003865E-03 -1.374117E-19 -8.602767E-01  0.000000E+00
  3.047740E-01  6.809905E-02  5.000000E-01  3.078520E-01  6.871731E-02  0.000000E+00  1.980232E-02  1.219332E-03 -9.507076E-19 -8.602040E-01  0.000000E+00
  2.860450E-01  6.685132E-02  5.000000E-01  2.889338E-01  6.745698E-02  0.000000E+00  1.993288E-02  1.428845E-03 -1.561831E-19 -8.616435E-01  0.000000E+00
  2.678190E-01  6.545345E-02  5.000000E-01  2.705237E-01  6.604499E-02  0.000000E+00  2.009662E-02  1.645200E-03  8.484920E-19 -8.640304E-01  0.000000E+00
  2.501300E-01  6.391483E-02  5.000000E-01  2.526561E-01  6.449083E-02  0.000000E+00  2.030090E-02  1.872449E-03  5.872168E-19 -8.678690E-01  0.000000E+00
  2.330040E-01  6.224593E-02  5.000000E-01  2.353571E-01  6.280508E-02  0.000000E+00  2.054545E-02  2.112485E-03  1.654364E-19 -8.741262E-01  0.000000E+00
  2.164660E-01  6.045694E-02  5.000000E-01  2.186521E-01  6.099803E-02  0.000000E+00  2.083195E-02  2.369681E-03  6.875474E-19 -8.827502E-01  0.000000E+00
  2.005340E-01  5.855703E-02  5.000000E-01  2.025592E-01  5.907893E-02  0.000000E+00  2.116838E-02  2.658933E-03  3.843135E-19 -8.904595E-01  0.000000E+00
  1.852230E-01  5.653940E-02  5.000000E-01  1.870936E-01  5.704091E-02  0.000000E+00  2.154898E-02  2.989396E-03 -1.039925E-18 -8.939071E-01  0.000000E+00
  1.705440E-01  5.440372E-02  5.000000E-01  1.722663E-01  5.488367E-02  0.000000E+00  2.194487E-02  3.345298E-03 -1.861788E-18 -8.954152E-01  0.000000E+00
  1.565000E-01  5.216612E-02  5.000000E-01  1.580805E-01  5.262347E-02  0.000000E+00  2.233899E-02  3.710174E-03 -1.151473E-18 -9.014438E-01  0.000000E+00
  1.430940E-01  4.984838E-02  5.000000E-01  1.445391E-01  5.028232E-02  0.000000E+00  2.275689E-02  4.102702E-03  6.716205E-19 -9.146416E-01  0.000000E+00
  1.303270E-01  4.745317E-02  5.000000E-01  1.316432E-01  4.786293E-02  0.000000E+00  2.324293E-02  4.582962E-03  1.139638E-18 -9.266389E-01  0.000000E+00
  1.182110E-01  4.495188E-02  5.000000E-01  1.194048E-01  4.533637E-02  0.000000E+00  2.377596E-02  5.181356E-03  7.315159E-19 -9.239151E-01  0.000000E+00
  1.067560E-01  4.232965E-02  5.000000E-01  1.078341E-01  4.268767E-02  0.000000E+00  2.423695E-02  5.853257E-03  2.857668E-19 -8.982395E-01  0.000000E+00
  9.596750E-02  3.959203E-02  5.000000E-01  9.693669E-02  3.992239E-02  0.000000E+00  2.446621E-02  6.469732E-03 -3.006401E-20 -8.569775E-01  0.000000E+00
  8.582800E-02  3.680077E-02  5.000000E-01  8.669479E-02  3.710295E-02  0.000000E+00  2.440511E-02  6.918185E-03  5.668969E-19 -8.171018E-01  0.000000E+00
  8.582800E-02  3.680077E-02  5.000000E-01  8.669479E-02  3.710295E-02  0.000000E+00  2.440511E-02  6.918185E-03  5.668969E-19 -8.171018E-01  0.000000E+00
  7.631050E-02  3.402292E-02  5.000000E-01  7.708117E-02  3.429704E-02  0.000000E+00  2.417341E-02  7.261538E-03  1.127631E-18 -7.823683E-01  0.000000E+00
  6.740780E-02  3.127247E-02  5.000000E-01  6.808856E-02  3.151881E-02  0.000000E+00  2.391771E-02  7.616247E-03  1.018563E-18 -7.467813E-01  0.000000E+00
  5.911740E-02  2.855352E-02  5.000000E-01  5.971444E-02  2.877240E-02  0.000000E+00  2.368913E-02  8.001420E-03  1.967324E-18 -7.082059E-01  0.000000E+00
  5.143150E-02  2.588169E-02  5.000000E-01  5.195092E-02  2.607360E-02  0.000000E+00  2.347560E-02  8.388436E-03  1.850419E-18 -6.676466E-01  0.000000E+00
  4.433770E-02  2.327766E-02  5.000000E-01  4.478548E-02  2.344326E-02  0.000000E+00  2.325187E-02  8.757540E-03  3.015611E-18 -6.277224E-01  0.000000E+00
  3.782240E-02  2.076086E-02  5.000000E-01  3.820438E-02  2.090105E-02  0.000000E+00  2.300871E-02  9.113261E-03  8.256999E-18 -5.922561E-01  0.000000E+00
  3.187460E-02  1.834539E-02  5.000000E-01  3.219651E-02  1.846118E-02  0.000000E+00  2.276572E-02  9.481381E-03  1.453928E-17 -5.645131E-01  0.000000E+00
  2.648400E-02  1.604301E-02  5.000000E-01  2.675147E-02  1.613555E-02  0.000000E+00  2.256067E-02  9.922649E-03  2.178592E-17 -5.397836E-01  0.000000E+00
  2.164990E-02  1.385602E-02  5.000000E-01  2.186855E-02  1.392647E-02  0.000000E+00  2.237126E-02  1.048528E-02  1.998992E-17 -5.034823E-01  0.000000E+00
  1.737670E-02  1.178498E-02  5.000000E-01  1.755219E-02  1.183452E-02  0.000000E+00  2.204589E-02  1.104868E-02 -1.226719E-18 -4.505310E-01  0.000000E+00
  1.364080E-02  9.850132E-03  5.000000E-01  1.377857E-02  9.880130E-03  0.000000E+00  2.142070E-02  1.136681E-02 -4.959708E-17 -3.981506E-01  0.000000E+00
  1.039090E-02  8.081420E-03  5.000000E-01  1.049584E-02  8.093556E-03  0.000000E+00  2.049880E-02  1.137273E-02 -1.355425E-16 -3.695056E-01  0.000000E+00
  7.586340E-03  6.493667E-03  5.000000E-01  7.662960E-03  6.489768E-03  0.000000E+00  1.945407E-02  1.132936E-02 -2.623626E-16 -3.734060E-01  0.000000E+00
  5.226210E-03  5.078824E-03  5.000000E-01  5.278995E-03  5.060636E-03  0.000000E+00  1.856905E-02  1.166797E-02 -4.238579E-16 -4.107823E-01  0.000000E+00
  3.324300E-03  3.824930E-03  5.000000E-01  3.357878E-03  3.794079E-03  0.000000E+00  1.836191E-02  1.302249E-02 -6.143061E-16 -4.851009E-01  0.000000E+00
  1.883580E-03  2.729854E-03  5.000000E-01  1.902608E-03  2.687944E-03  0.000000E+00  1.955965E-02  1.673256E-02 -8.679434E-16 -5.758461E-01  0.000000E+00
  8.951490E-04  1.799900E-03  5.000000E-01  9.041943E-04  1.748598E-03  0.000000E+00  2.184970E-02  2.482159E-02 -1.301189E-15 -6.102886E-01  0.000000E+00
  3.201820E-04  1.051294E-03  5.000000E-01  3.234206E-04  9.924319E-04  0.000000E+00  2.179648E-02  3.739329E-02 -2.058013E-15 -4.994110E-01  0.000000E+00
  6.852390E-05  5.052031E-04  5.000000E-01  6.922101E-05  4.408261E-04  0.000000E+00  1.565917E-02  4.903671E-02 -3.127366E-15 -2.922752E-01  0.000000E+00
  4.217600E-06  1.773802E-04  5.000000E-01  4.265277E-06  1.096925E-04  0.000000E+00  6.520711E-03  5.740436E-02 -4.226401E-15 -2.310228E-01  0.000000E+00
 -5.032520E-09  6.878442E-05  5.000000E-01  0.000000E+00  0.000000E+00  0.000000E+00 -1.563186E-03  7.517050E-02 -5.189451E-15 -2.977451E-01  0.000000E+00
  5.154440E-06 -4.005933E-05  5.000000E-01  5.211579E-06 -1.099430E-04  0.000000E+00 -1.193038E-02  8.419674E-02 -6.017215E-15 -6.348646E-02  0.000000E+00