 Title = "ADflow Slice Data"
Variables =  "CoordinateX"  "CoordinateY"  "CoordinateZ"  "XoC"  "YoC"  "ZoC" "VelocityX" "VelocityY" "VelocityZ" "CoefPressure" "Mach" 
Zone T= "Slice_0001 None Absolute Regular z = 0.50000000"
 Nodes =          192  Elements=          184  ZONETYPE=FELINESEG
 DATAPACKING=POINT
  5.653940E-01 -1.204334E-03  5.000000E-01  5.711040E-01 -1.297868E-03  0.000000E+00  9.536254E-03  6.345099E-04 -1.818726E-19  1.570000E-01  0.000000E+00
  5.859770E-01  2.449862E-04  5.000000E-01  5.918949E-01  1.660897E-04  0.000000E+00  9.238126E-03  6.832358E-04  6.319287E-19  1.636978E-01  0.000000E+00
  6.063060E-01  1.824217E-03  5.000000E-01  6.124292E-01  1.761270E-03  0.000000E+00  8.870398E-03  7.126166E-04  9.053015E-19  1.788927E-01  0.000000E+00
  6.263240E-01  3.487437E-03  5.000000E-01  6.326493E-01  3.441286E-03  0.000000E+00  8.478382E-03  7.116006E-04  3.418987E-19  1.987679E-01  0.000000E+00
  6.459860E-01  5.154968E-03  5.000000E-01  6.525099E-01  5.125658E-03  0.000000E+00  8.101408E-03  6.801402E-04  5.433397E-20  2.202471E-01  0.000000E+00
  6.652460E-01  6.753934E-03  5.000000E-01  6.719644E-01  6.740772E-03  0.000000E+00  7.757823E-03  6.300603E-04  1.248040E-19  2.403618E-01  0.000000E+00
  6.840650E-01  8.245355E-03  5.000000E-01  6.909735E-01  8.247255E-03  0.000000E+00  7.444789E-03  5.756764E-04 -5.695903E-19  2.573383E-01  0.000000E+00
  7.024070E-01  9.626270E-03  5.000000E-01  7.095007E-01  9.642116E-03  0.000000E+00  7.153013E-03  5.222819E-04 -1.559570E-18  2.720980E-01  0.000000E+00
  7.202400E-01  1.088718E-02  5.000000E-01  7.275138E-01  1.091576E-02  0.000000E+00  6.879501E-03  4.668291E-04 -2.014453E-18  2.866200E-01  0.000000E+00
  7.375350E-01  1.201017E-02  5.000000E-01  7.449835E-01  1.205010E-02  0.000000E+00  6.628235E-03  4.072999E-04 -1.354443E-18  3.011993E-01  0.000000E+00
  7.542690E-01  1.297811E-02  5.000000E-01  7.618865E-01  1.302781E-02  0.000000E+00  6.409026E-03  3.444016E-04 -2.639211E-19  3.150791E-01  0.000000E+00
  7.704220E-01  1.377693E-02  5.000000E-01  7.782026E-01  1.383469E-02  0.000000E+00  6.236796E-03  2.789138E-04 -1.368672E-19  3.273291E-01  0.000000E+00
  7.859770E-01  1.439709E-02  5.000000E-01  7.939147E-01  1.446112E-02  0.000000E+00  6.133307E-03  2.046633E-04 -3.378867E-19  3.382185E-01  0.000000E+00
  8.009220E-01  1.479958E-02  5.000000E-01  8.090106E-01  1.486768E-02  0.000000E+00  6.122942E-03  1.122985E-04 -3.308028E-19  3.481878E-01  0.000000E+00
  8.152480E-01  1.493980E-02  5.000000E-01  8.234813E-01  1.500931E-02  0.000000E+00  6.213291E-03  5.955089E-06  7.559175E-20  3.543668E-01  0.000000E+00
  8.289490E-01  1.483243E-02  5.000000E-01  8.373207E-01  1.490086E-02  0.000000E+00  6.387686E-03 -1.018290E-04 -4.578674E-19  3.542496E-01  0.000000E+00
  8.420260E-01  1.452098E-02  5.000000E-01  8.505297E-01  1.458626E-02  0.000000E+00  6.619115E-03 -2.042442E-04 -8.438686E-19  3.493233E-01  0.000000E+00
  8.544790E-01  1.405285E-02  5.000000E-01  8.631085E-01  1.411340E-02  0.000000E+00  6.880987E-03 -2.987323E-04 -5.990978E-19  3.419056E-01  0.000000E+00
  8.663160E-01  1.347294E-02  5.000000E-01  8.750650E-01  1.352764E-02  0.000000E+00  7.149206E-03 -3.835366E-04 -1.082940E-19  3.332345E-01  0.000000E+00
  8.775420E-01  1.282036E-02  5.000000E-01  8.864044E-01  1.286847E-02  0.000000E+00  7.403076E-03 -4.567727E-04 -3.150316E-19  3.239542E-01  0.000000E+00
  8.881660E-01  1.212808E-02  5.000000E-01  8.971357E-01  1.216919E-02  0.000000E+00  7.627470E-03 -5.169221E-04 -9.584320E-19  3.145854E-01  0.000000E+00
  8.981970E-01  1.142273E-02  5.000000E-01  9.072680E-01  1.145672E-02  0.000000E+00  7.815995E-03 -5.659878E-04 -9.620034E-19  3.058040E-01  0.000000E+00
  9.076460E-01  1.071940E-02  5.000000E-01  9.168124E-01  1.074629E-02  0.000000E+00  7.973554E-03 -6.111552E-04 -7.369547E-19  2.984298E-01  0.000000E+00
  9.165220E-01  1.002003E-02  5.000000E-01  9.257781E-01  1.003985E-02  0.000000E+00  8.112476E-03 -6.588301E-04 -1.073266E-19  2.923682E-01  0.000000E+00
  9.165220E-01  1.002003E-02  5.000000E-01  9.257781E-01  1.003985E-02  0.000000E+00  8.112476E-03 -6.588301E-04 -1.073266E-19  2.923682E-01  0.000000E+00
  9.248360E-01  9.324905E-03  5.000000E-01  9.341760E-01  9.337708E-03  0.000000E+00  8.244945E-03 -7.108758E-04 -2.490270E-19  2.866729E-01  0.000000E+00
  9.325990E-01  8.635501E-03  5.000000E-01  9.420174E-01  8.641341E-03  0.000000E+00  8.380414E-03 -7.677615E-04 -8.554812E-19  2.807982E-01  0.000000E+00
  9.398210E-01  7.953907E-03  5.000000E-01  9.493124E-01  7.952864E-03  0.000000E+00  8.526479E-03 -8.300299E-04 -7.813508E-19  2.746104E-01  0.000000E+00
  9.465130E-01  7.282928E-03  5.000000E-01  9.560720E-01  7.275109E-03  0.000000E+00  8.689172E-03 -8.980975E-04 -4.483779E-19  2.679856E-01  0.000000E+00
  9.526870E-01  6.626055E-03  5.000000E-01  9.623083E-01  6.611601E-03  0.000000E+00  8.872774E-03 -9.722305E-04  4.546342E-19  2.607768E-01  0.000000E+00
  9.583540E-01  5.987443E-03  5.000000E-01  9.680325E-01  5.966540E-03  0.000000E+00  9.080038E-03 -1.052533E-03  8.764608E-19  2.528667E-01  0.000000E+00
  9.635240E-01  5.371834E-03  5.000000E-01  9.732547E-01  5.344714E-03  0.000000E+00  9.312817E-03 -1.138806E-03  6.434355E-19  2.441531E-01  0.000000E+00
  9.682080E-01  4.784389E-03  5.000000E-01  9.779861E-01  4.751337E-03  0.000000E+00  9.573805E-03 -1.231056E-03  3.264121E-19  2.346072E-01  0.000000E+00
  9.724140E-01  4.230592E-03  5.000000E-01  9.822345E-01  4.191946E-03  0.000000E+00  9.868993E-03 -1.329586E-03 -1.408733E-19  2.242483E-01  0.000000E+00
  9.761510E-01  3.716051E-03  5.000000E-01  9.860093E-01  3.672209E-03  0.000000E+00  1.020791E-02 -1.434636E-03  4.769485E-20  2.130653E-01  0.000000E+00
  9.794290E-01  3.246288E-03  5.000000E-01  9.893204E-01  3.197702E-03  0.000000E+00  1.059682E-02 -1.546577E-03  6.590658E-19  2.010897E-01  0.000000E+00
  9.822540E-01  2.826701E-03  5.000000E-01  9.921739E-01  2.773877E-03  0.000000E+00  1.102072E-02 -1.663566E-03  7.611109E-19  1.885866E-01  0.000000E+00
  9.846330E-01  2.462281E-03  5.000000E-01  9.945769E-01  2.405777E-03  0.000000E+00  1.142481E-02 -1.774741E-03  1.034311E-18  1.768123E-01  0.000000E+00
  9.865710E-01  2.157526E-03  5.000000E-01  9.965345E-01  2.097945E-03  0.000000E+00  1.167629E-02 -1.846759E-03  1.786482E-18  1.646444E-01  0.000000E+00
  9.880740E-01  1.916282E-03  5.000000E-01  9.980527E-01  1.854264E-03  0.000000E+00  1.155920E-02 -1.872806E-03 -2.750142E-18  1.458349E-01  0.000000E+00
  9.891450E-01  1.741662E-03  5.000000E-01  9.991345E-01  1.677880E-03  0.000000E+00  1.174928E-02 -2.007329E-03 -2.581188E-17  1.471339E-01  0.000000E+00
  9.897860E-01  1.635964E-03  5.000000E-01  9.997820E-01  1.571115E-03  0.000000E+00  1.512374E-02 -2.021144E-03 -7.374509E-17  1.949367E-01  0.000000E+00
  9.900000E-01  1.600575E-03  5.000000E-01  9.999981E-01  1.535368E-03  0.000000E+00  1.055619E-02 -4.412325E-03 -7.796551E-17 -4.763920E-02  0.000000E+00
  9.900000E-01  1.679285E-03  5.000000E-01  9.999981E-01  1.614874E-03  0.000000E+00  1.057074E-03 -1.480666E-02  7.025917E-18 -1.849772E-01  0.000000E+00
  9.900000E-01  1.758005E-03  5.000000E-01  9.999981E-01  1.694389E-03  0.000000E+00 -5.260263E-04 -1.390936E-02  8.876126E-17 -9.449955E-03  0.000000E+00
  9.900000E-01  1.836725E-03  5.000000E-01  9.999981E-01  1.773904E-03  0.000000E+00 -2.998015E-04  2.457719E-03  1.045837E-16 -1.411230E-02  0.000000E+00
  9.900000E-01  1.915436E-03  5.000000E-01  9.999981E-01  1.853409E-03  0.000000E+00  7.114027E-04  3.862671E-03  1.320099E-16 -1.320132E-01  0.000000E+00
  9.900000E-01  1.994156E-03  5.000000E-01  9.999981E-01  1.932924E-03  0.000000E+00  5.891198E-03 -2.608912E-03  1.699800E-16 -3.822230E-02  0.000000E+00
  9.900000E-01  1.994156E-03  5.000000E-01  9.999981E-01  1.932924E-03  0.000000E+00  5.891198E-03 -2.608912E-03  1.699800E-16 -3.822230E-02  0.000000E+00
  9.897900E-01  2.039218E-03  5.000000E-01  9.997860E-01  1.978441E-03  0.000000E+00  7.672431E-03 -1.976837E-03  1.223990E-16  1.036489E-01  0.000000E+00
  9.891580E-01  2.174401E-03  5.000000E-01  9.991476E-01  2.114990E-03  0.000000E+00  4.758612E-03 -9.569612E-04  4.114663E-17  6.155531E-02  0.000000E+00
  9.881040E-01  2.399667E-03  5.000000E-01  9.980830E-01  2.342530E-03  0.000000E+00  3.995812E-03 -8.517186E-04  3.676270E-18  5.202962E-02  0.000000E+00
  9.866260E-01  2.714945E-03  5.000000E-01  9.965901E-01  2.660993E-03  0.000000E+00  3.803151E-03 -8.158871E-04 -4.595766E-18  5.403161E-02  0.000000E+00
  9.847200E-01  3.120122E-03  5.000000E-01  9.946648E-01  3.070261E-03  0.000000E+00  3.716728E-03 -7.879457E-04 -3.945164E-18  4.899453E-02  0.000000E+00
  9.823820E-01  3.614987E-03  5.000000E-01  9.923032E-01  3.570125E-03  0.000000E+00  3.761448E-03 -7.935299E-04 -1.798928E-18  4.120822E-02  0.000000E+00
  9.796080E-01  4.199193E-03  5.000000E-01  9.895012E-01  4.160231E-03  0.000000E+00  3.915551E-03 -8.219128E-04 -4.909885E-20  3.263682E-02  0.000000E+00
  9.763910E-01  4.872250E-03  5.000000E-01  9.862517E-01  4.840085E-03  0.000000E+00  4.137878E-03 -8.625989E-04  1.889877E-19  2.274731E-02  0.000000E+00
  9.727270E-01  5.633347E-03  5.000000E-01  9.825507E-01  5.608868E-03  0.000000E+00  4.401544E-03 -9.100522E-04  3.289850E-19  1.141796E-02  0.000000E+00
  9.686070E-01  6.481498E-03  5.000000E-01  9.783891E-01  6.465585E-03  0.000000E+00  4.691026E-03 -9.605836E-04  8.367465E-19 -1.141905E-03  0.000000E+00
  9.640240E-01  7.415284E-03  5.000000E-01  9.737598E-01  7.408801E-03  0.000000E+00  4.998353E-03 -1.012021E-03  2.739363E-19 -1.481146E-02  0.000000E+00
  9.589680E-01  8.432911E-03  5.000000E-01  9.686527E-01  8.436705E-03  0.000000E+00  5.320755E-03 -1.063357E-03  3.236947E-19 -2.949357E-02  0.000000E+00
  9.534310E-01  9.532057E-03  5.000000E-01  9.630598E-01  9.546951E-03  0.000000E+00  5.657679E-03 -1.113999E-03  7.843569E-19 -4.509249E-02  0.000000E+00
  9.474030E-01  1.070986E-02  5.000000E-01  9.569709E-01  1.073665E-02  0.000000E+00  6.008432E-03 -1.163041E-03  3.306407E-19 -6.141977E-02  0.000000E+00
  9.408720E-01  1.196284E-02  5.000000E-01  9.503740E-01  1.200229E-02  0.000000E+00  6.370920E-03 -1.209529E-03 -5.379234E-20 -7.833701E-02  0.000000E+00
  9.338280E-01  1.328681E-02  5.000000E-01  9.432588E-01  1.333963E-02  0.000000E+00  6.742017E-03 -1.252389E-03 -2.145827E-19 -9.570876E-02  0.000000E+00
  9.262600E-01  1.467690E-02  5.000000E-01  9.356144E-01  1.474375E-02  0.000000E+00  7.117587E-03 -1.290083E-03 -2.101700E-19 -1.133087E-01  0.000000E+00
  9.181550E-01  1.612723E-02  5.000000E-01  9.274276E-01  1.620873E-02  0.000000E+00  7.492079E-03 -1.321019E-03 -7.512898E-19 -1.309406E-01  0.000000E+00
  9.095020E-01  1.763124E-02  5.000000E-01  9.186872E-01  1.772793E-02  0.000000E+00  7.858608E-03 -1.343436E-03 -4.386858E-19 -1.482533E-01  0.000000E+00
  9.002880E-01  1.918122E-02  5.000000E-01  9.093801E-01  1.929356E-02  0.000000E+00  8.208154E-03 -1.355569E-03  2.786798E-19 -1.646348E-01  0.000000E+00
  8.905020E-01  2.076865E-02  5.000000E-01  8.994953E-01  2.089702E-02  0.000000E+00  8.529387E-03 -1.357145E-03  7.522757E-19 -1.796427E-01  0.000000E+00
  8.801320E-01  2.238765E-02  5.000000E-01  8.890206E-01  2.253237E-02  0.000000E+00  8.811496E-03 -1.349809E-03  1.217667E-18 -1.932229E-01  0.000000E+00
  8.691700E-01  2.403557E-02  5.000000E-01  8.779479E-01  2.419693E-02  0.000000E+00  9.047441E-03 -1.335400E-03  2.072400E-18 -2.054317E-01  0.000000E+00
  8.691700E-01  2.403557E-02  5.000000E-01  8.779479E-01  2.419693E-02  0.000000E+00  9.047441E-03 -1.335400E-03  2.072400E-18 -2.054317E-01  0.000000E+00
  8.576080E-01  2.571125E-02  5.000000E-01  8.662691E-01  2.588954E-02  0.000000E+00  9.234424E-03 -1.315443E-03  1.709082E-18 -2.162233E-01  0.000000E+00
  8.454380E-01  2.741522E-02  5.000000E-01  8.539762E-01  2.761072E-02  0.000000E+00  9.372894E-03 -1.292334E-03  5.347089E-19 -2.255806E-01  0.000000E+00
  8.326580E-01  2.915057E-02  5.000000E-01  8.410671E-01  2.936359E-02  0.000000E+00  9.466790E-03 -1.269304E-03  6.133691E-19 -2.336240E-01  0.000000E+00
  8.192630E-01  3.092416E-02  5.000000E-01  8.275368E-01  3.115509E-02  0.000000E+00  9.524537E-03 -1.250719E-03  3.853468E-19 -2.410081E-01  0.000000E+00
  8.052550E-01  3.274839E-02  5.000000E-01  8.133874E-01  3.299775E-02  0.000000E+00  9.561031E-03 -1.241170E-03  2.487586E-19 -2.491241E-01  0.000000E+00
  7.906370E-01  3.463968E-02  5.000000E-01  7.986217E-01  3.490813E-02  0.000000E+00  9.598423E-03 -1.242376E-03  2.631320E-20 -2.593957E-01  0.000000E+00
  7.754120E-01  3.661077E-02  5.000000E-01  7.832430E-01  3.689914E-02  0.000000E+00  9.661418E-03 -1.252216E-03 -5.412842E-19 -2.725181E-01  0.000000E+00
  7.595880E-01  3.866389E-02  5.000000E-01  7.672592E-01  3.897299E-02  0.000000E+00  9.769307E-03 -1.266512E-03 -1.834820E-19 -2.884085E-01  0.000000E+00
  7.431760E-01  4.078979E-02  5.000000E-01  7.506814E-01  4.112036E-02  0.000000E+00  9.930386E-03 -1.282139E-03 -5.344781E-19 -3.068390E-01  0.000000E+00
  7.261880E-01  4.297586E-02  5.000000E-01  7.335219E-01  4.332850E-02  0.000000E+00  1.014298E-02 -1.297280E-03 -3.565930E-19 -3.275252E-01  0.000000E+00
  7.086430E-01  4.520634E-02  5.000000E-01  7.157997E-01  4.558151E-02  0.000000E+00  1.039961E-02 -1.309631E-03  5.379016E-19 -3.497011E-01  0.000000E+00
  6.905640E-01  4.746233E-02  5.000000E-01  6.975381E-01  4.786028E-02  0.000000E+00  1.068973E-02 -1.317579E-03  6.992724E-19 -3.725899E-01  0.000000E+00
  6.719770E-01  4.972591E-02  5.000000E-01  6.787634E-01  5.014673E-02  0.000000E+00  1.100363E-02 -1.322603E-03  1.261111E-18 -3.964173E-01  0.000000E+00
  6.529150E-01  5.198755E-02  5.000000E-01  6.595089E-01  5.243121E-02  0.000000E+00  1.133917E-02 -1.326660E-03  6.320486E-19 -4.220721E-01  0.000000E+00
  6.334180E-01  5.423736E-02  5.000000E-01  6.398150E-01  5.470374E-02  0.000000E+00  1.170344E-02 -1.327986E-03 -1.736005E-18 -4.501721E-01  0.000000E+00
  6.135280E-01  5.645683E-02  5.000000E-01  6.197241E-01  5.694562E-02  0.000000E+00  1.210581E-02 -1.322837E-03 -2.102046E-18 -4.812084E-01  0.000000E+00
  5.932910E-01  5.862203E-02  5.000000E-01  5.992827E-01  5.913269E-02  0.000000E+00  1.255222E-02 -1.306593E-03 -5.674435E-19 -5.148868E-01  0.000000E+00
  5.727570E-01  6.070166E-02  5.000000E-01  5.785413E-01  6.123333E-02  0.000000E+00  1.304079E-02 -1.272738E-03  2.064555E-19 -5.489751E-01  0.000000E+00
  5.519810E-01  6.265702E-02  5.000000E-01  5.575555E-01  6.320843E-02  0.000000E+00  1.355648E-02 -1.215727E-03  8.426855E-19 -5.804190E-01  0.000000E+00
  5.310180E-01  6.444870E-02  5.000000E-01  5.363808E-01  6.501820E-02  0.000000E+00  1.407069E-02 -1.141170E-03 -4.888927E-19 -6.094033E-01  0.000000E+00
  5.099250E-01  6.606947E-02  5.000000E-01  5.150748E-01  6.665534E-02  0.000000E+00  1.456282E-02 -1.061918E-03 -1.407019E-18 -6.394186E-01  0.000000E+00
  4.887640E-01  6.753088E-02  5.000000E-01  4.937001E-01  6.813151E-02  0.000000E+00  1.504416E-02 -9.760508E-04  1.832778E-21 -6.714643E-01  0.000000E+00
  4.675910E-01  6.881921E-02  5.000000E-01  4.723133E-01  6.943285E-02  0.000000E+00  1.553993E-02 -8.694853E-04  5.612850E-19 -7.031612E-01  0.000000E+00
  7.860720E-05 -4.955303E-04  5.000000E-01  7.940615E-05 -5.819054E-04  0.000000E+00 -7.442976E-03  2.686665E-02 -1.601505E-17  8.740696E-01  0.000000E+00
  3.989240E-04 -1.168605E-03  5.000000E-01  4.029579E-04 -1.261778E-03  0.000000E+00 -6.292683E-03  1.131802E-02 -1.538346E-17  1.090340E+00  0.000000E+00
  1.196920E-03 -1.983336E-03  5.000000E-01  1.209013E-03 -2.084737E-03  0.000000E+00 -1.609880E-04  8.899529E-04 -5.434671E-18  1.066824E+00  0.000000E+00
  2.563580E-03 -2.835101E-03  5.000000E-01  2.589475E-03 -2.945104E-03  0.000000E+00  5.921179E-03 -2.936829E-03 -2.741019E-18  9.191398E-01  0.000000E+00
  4.492740E-03 -3.676393E-03  5.000000E-01  4.538118E-03 -3.794892E-03  0.000000E+00  9.600233E-03 -3.651887E-03 -1.545024E-18  7.903078E-01  0.000000E+00
  6.952190E-03 -4.501818E-03  5.000000E-01  7.022406E-03 -4.628653E-03  0.000000E+00  1.150071E-02 -3.530887E-03 -3.038285E-18  7.009729E-01  0.000000E+00
  9.910730E-03 -5.333928E-03  5.000000E-01  1.001082E-02 -5.469167E-03  0.000000E+00  1.256135E-02 -3.339793E-03 -6.002752E-18  6.321412E-01  0.000000E+00
  1.334950E-02 -6.199521E-03  5.000000E-01  1.348432E-02 -6.343501E-03  0.000000E+00  1.325871E-02 -3.132885E-03 -6.038104E-18  5.645340E-01  0.000000E+00
  1.728780E-02 -7.073956E-03  5.000000E-01  1.746240E-02 -7.226768E-03  0.000000E+00  1.370023E-02 -2.787485E-03 -4.665042E-18  4.905039E-01  0.000000E+00
  2.175590E-02 -7.902094E-03  5.000000E-01  2.197562E-02 -8.063268E-03  0.000000E+00  1.389101E-02 -2.315057E-03 -2.644443E-18  4.219210E-01  0.000000E+00
  2.676920E-02 -8.642788E-03  5.000000E-01  2.703955E-02 -8.811444E-03  0.000000E+00  1.388991E-02 -1.830325E-03 -7.404781E-19  3.719172E-01  0.000000E+00
  3.232800E-02 -9.284750E-03  5.000000E-01  3.265449E-02 -9.459889E-03  0.000000E+00  1.378350E-02 -1.419669E-03  4.815838E-19  3.414174E-01  0.000000E+00
  3.842930E-02 -9.836315E-03  5.000000E-01  3.881741E-02 -1.001702E-02  0.000000E+00  1.363213E-02 -1.107824E-03  6.088672E-19  3.231945E-01  0.000000E+00
  4.507220E-02 -1.031504E-02  5.000000E-01  4.552739E-02 -1.050058E-02  0.000000E+00  1.348175E-02 -9.006944E-04  4.018486E-20  3.117887E-01  0.000000E+00
  5.225680E-02 -1.075636E-02  5.000000E-01  5.278455E-02 -1.094636E-02  0.000000E+00  1.337728E-02 -7.931139E-04 -3.364227E-19  3.041482E-01  0.000000E+00
  5.998640E-02 -1.119843E-02  5.000000E-01  6.059221E-02 -1.139289E-02  0.000000E+00  1.332808E-02 -7.423882E-04 -8.460407E-19  2.945737E-01  0.000000E+00
  6.827110E-02 -1.164866E-02  5.000000E-01  6.896058E-02 -1.184767E-02  0.000000E+00  1.330685E-02 -7.028379E-04 -1.122032E-18  2.800396E-01  0.000000E+00
  7.712280E-02 -1.210257E-02  5.000000E-01  7.790168E-02 -1.230617E-02  0.000000E+00  1.328960E-02 -6.629065E-04 -8.368824E-19  2.636450E-01  0.000000E+00
  8.655260E-02 -1.255908E-02  5.000000E-01  8.742671E-02 -1.276728E-02  0.000000E+00  1.326384E-02 -6.219434E-04 -4.891009E-19  2.480267E-01  0.000000E+00
  9.657140E-02 -1.301373E-02  5.000000E-01  9.754669E-02 -1.322653E-02  0.000000E+00  1.321606E-02 -5.704275E-04 -9.891565E-20  2.326252E-01  0.000000E+00
  1.071900E-01 -1.344884E-02  5.000000E-01  1.082725E-01 -1.366604E-02  0.000000E+00  1.314232E-02 -5.063879E-04  4.064278E-19  2.176042E-01  0.000000E+00
  1.184180E-01 -1.385335E-02  5.000000E-01  1.196139E-01 -1.407463E-02  0.000000E+00  1.306508E-02 -4.467997E-04  4.554452E-19  2.051280E-01  0.000000E+00
  1.302610E-01 -1.423599E-02  5.000000E-01  1.315765E-01 -1.446113E-02  0.000000E+00  1.301889E-02 -4.075697E-04  2.562442E-19  1.952900E-01  0.000000E+00
  1.427230E-01 -1.461348E-02  5.000000E-01  1.441644E-01 -1.484244E-02  0.000000E+00  1.302580E-02 -3.920534E-04 -3.954304E-19  1.858573E-01  0.000000E+00
  1.427230E-01 -1.461348E-02  5.000000E-01  1.441644E-01 -1.484244E-02  0.000000E+00  1.302580E-02 -3.920534E-04 -3.954304E-19  1.858573E-01  0.000000E+00
  1.558070E-01 -1.500505E-02  5.000000E-01  1.573805E-01 -1.523796E-02  0.000000E+00  1.308098E-02 -3.894981E-04 -6.661513E-19  1.742115E-01  0.000000E+00
  1.695140E-01 -1.541181E-02  5.000000E-01  1.712259E-01 -1.564883E-02  0.000000E+00  1.315326E-02 -3.789258E-04 -8.680869E-19  1.588688E-01  0.000000E+00
  1.838420E-01 -1.581255E-02  5.000000E-01  1.856986E-01 -1.605361E-02  0.000000E+00  1.320248E-02 -3.409044E-04 -1.768098E-18  1.408456E-01  0.000000E+00
  1.987870E-01 -1.616673E-02  5.000000E-01  2.007946E-01 -1.641137E-02  0.000000E+00  1.319750E-02 -2.632032E-04 -1.352333E-18  1.222435E-01  0.000000E+00
  2.143420E-01 -1.641861E-02  5.000000E-01  2.165067E-01 -1.666580E-02  0.000000E+00  1.313497E-02 -1.555224E-04 -1.438527E-19  1.061343E-01  0.000000E+00
  2.304940E-01 -1.653769E-02  5.000000E-01  2.328218E-01 -1.678608E-02  0.000000E+00  1.304674E-02 -5.371413E-05  5.806654E-19  9.628678E-02  0.000000E+00
  2.472290E-01 -1.655020E-02  5.000000E-01  2.497258E-01 -1.679871E-02  0.000000E+00  1.296586E-02  1.978438E-05  8.677359E-19  9.188015E-02  0.000000E+00
  2.645310E-01 -1.648508E-02  5.000000E-01  2.672025E-01 -1.673293E-02  0.000000E+00  1.288937E-02  8.023261E-05  3.215987E-19  8.733114E-02  0.000000E+00
  2.823750E-01 -1.633173E-02  5.000000E-01  2.852267E-01 -1.657804E-02  0.000000E+00  1.278693E-02  1.539653E-04 -6.141453E-19  7.964219E-02  0.000000E+00
  3.007320E-01 -1.604739E-02  5.000000E-01  3.037691E-01 -1.629083E-02  0.000000E+00  1.263225E-02  2.490589E-04 -1.028202E-18  7.142197E-02  0.000000E+00
  3.195690E-01 -1.559442E-02  5.000000E-01  3.227964E-01 -1.583328E-02  0.000000E+00  1.241760E-02  3.545694E-04 -1.208492E-18  6.684375E-02  0.000000E+00
  3.388440E-01 -1.495447E-02  5.000000E-01  3.422660E-01 -1.518686E-02  0.000000E+00  1.214882E-02  4.541729E-04 -7.858355E-19  6.777018E-02  0.000000E+00
  3.585140E-01 -1.413442E-02  5.000000E-01  3.621347E-01 -1.435854E-02  0.000000E+00  1.183466E-02  5.372999E-04  2.852065E-19  7.334913E-02  0.000000E+00
  3.785290E-01 -1.314982E-02  5.000000E-01  3.823518E-01 -1.336399E-02  0.000000E+00  1.148142E-02  6.019960E-04  4.283793E-19  8.161265E-02  0.000000E+00
  3.988350E-01 -1.201743E-02  5.000000E-01  4.028629E-01 -1.222016E-02  0.000000E+00  1.109973E-02  6.492972E-04 -2.016613E-19  9.172227E-02  0.000000E+00
  4.193750E-01 -1.075794E-02  5.000000E-01  4.236103E-01 -1.094795E-02  0.000000E+00  1.070975E-02  6.844956E-04 -1.070248E-18  1.032685E-01  0.000000E+00
  4.400850E-01 -9.378982E-03  5.000000E-01  4.445295E-01 -9.555072E-03  0.000000E+00  1.034574E-02  7.111651E-04 -8.206609E-19  1.160214E-01  0.000000E+00
  4.609060E-01 -7.901304E-03  5.000000E-01  4.655607E-01 -8.062470E-03  0.000000E+00  1.005590E-02  7.193382E-04 -4.076897E-19  1.305210E-01  0.000000E+00
  4.818030E-01 -6.392289E-03  5.000000E-01  4.866688E-01 -6.538216E-03  0.000000E+00  9.884207E-03  6.895665E-04 -7.221609E-19  1.470702E-01  0.000000E+00
  5.027520E-01 -4.980961E-03  5.000000E-01  5.078294E-01 -5.112635E-03  0.000000E+00  9.827285E-03  6.271748E-04 -6.453404E-19  1.614631E-01  0.000000E+00
  5.237130E-01 -3.721460E-03  5.000000E-01  5.290020E-01 -3.840414E-03  0.000000E+00  9.809533E-03  5.795068E-04 -1.202706E-18  1.660107E-01  0.000000E+00
  5.446170E-01 -2.513423E-03  5.000000E-01  5.501172E-01 -2.620177E-03  0.000000E+00  9.729674E-03  5.871524E-04 -1.120899E-18  1.606570E-01  0.000000E+00
  5.653940E-01 -1.204334E-03  5.000000E-01  5.711040E-01 -1.297868E-03  0.000000E+00  9.536254E-03  6.345099E-04 -1.818726E-19  1.570000E-01  0.000000E+00
  4.675910E-01  6.881921E-02  5.000000E-01  4.723133E-01  6.943285E-02  0.000000E+00  1.553993E-02 -8.694853E-04  5.612850E-19 -7.031612E-01  0.000000E+00
  4.464640E-01  6.990172E-02  5.000000E-01  4.509729E-01  7.052629E-02  0.000000E+00  1.605654E-02 -7.395051E-04  3.495563E-19 -7.334585E-01  0.000000E+00
  4.254410E-01  7.076434E-02  5.000000E-01  4.297376E-01  7.139763E-02  0.000000E+00  1.658538E-02 -5.916412E-04  1.750741E-19 -7.630353E-01  0.000000E+00
  4.045840E-01  7.139969E-02  5.000000E-01  4.086699E-01  7.203939E-02  0.000000E+00  1.711799E-02 -4.268448E-04 -3.583757E-20 -7.923146E-01  0.000000E+00
  3.839530E-01  7.180310E-02  5.000000E-01  3.878306E-01  7.244688E-02  0.000000E+00  1.764876E-02 -2.417772E-04 -1.489623E-20 -8.208046E-01  0.000000E+00
  3.636060E-01  7.196604E-02  5.000000E-01  3.672781E-01  7.261147E-02  0.000000E+00  1.817177E-02 -3.243089E-05 -1.032313E-19 -8.467733E-01  0.000000E+00
  3.435960E-01  7.188125E-02  5.000000E-01  3.470660E-01  7.252582E-02  0.000000E+00  1.867462E-02  2.019746E-04 -2.127736E-19 -8.681571E-01  0.000000E+00
  3.239710E-01  7.154390E-02  5.000000E-01  3.272428E-01  7.218506E-02  0.000000E+00  1.913594E-02  4.527301E-04 -3.998236E-19 -8.849050E-01  0.000000E+00
  3.047740E-01  7.096786E-02  5.000000E-01  3.078520E-01  7.160320E-02  0.000000E+00  1.953923E-02  7.038238E-04 -2.815943E-19 -8.994740E-01  0.000000E+00
  2.860450E-01  7.018230E-02  5.000000E-01  2.889338E-01  7.080970E-02  0.000000E+00  1.989644E-02  9.538304E-04 -5.646679E-19 -9.130324E-01  0.000000E+00
  2.678190E-01  6.920144E-02  5.000000E-01  2.705237E-01  6.981894E-02  0.000000E+00  2.023555E-02  1.211705E-03 -1.214903E-18 -9.255588E-01  0.000000E+00
  2.501300E-01  6.803683E-02  5.000000E-01  2.526561E-01  6.864257E-02  0.000000E+00  2.057824E-02  1.480369E-03 -1.073234E-18 -9.384678E-01  0.000000E+00
  2.330040E-01  6.670164E-02  5.000000E-01  2.353571E-01  6.729390E-02  0.000000E+00  2.094197E-02  1.761891E-03 -2.548398E-20 -9.538618E-01  0.000000E+00
  2.164660E-01  6.520881E-02  5.000000E-01  2.186521E-01  6.578599E-02  0.000000E+00  2.134642E-02  2.062675E-03  9.461519E-20 -9.724078E-01  0.000000E+00
  2.005340E-01  6.356978E-02  5.000000E-01  2.025592E-01  6.413040E-02  0.000000E+00  2.181652E-02  2.406024E-03 -2.369997E-19 -9.899521E-01  0.000000E+00
  1.852230E-01  6.177197E-02  5.000000E-01  1.870936E-01  6.231444E-02  0.000000E+00  2.235080E-02  2.809719E-03 -7.797308E-20 -1.001586E+00  0.000000E+00
  1.705440E-01  5.980901E-02  5.000000E-01  1.722663E-01  6.033165E-02  0.000000E+00  2.290441E-02  3.254960E-03 -3.006648E-20 -1.009576E+00  0.000000E+00
  1.565000E-01  5.769722E-02  5.000000E-01  1.580805E-01  5.819854E-02  0.000000E+00  2.344106E-02  3.716331E-03  5.024670E-19 -1.021429E+00  0.000000E+00
  1.430940E-01  5.546223E-02  5.000000E-01  1.445391E-01  5.594098E-02  0.000000E+00  2.398224E-02  4.209688E-03  3.622777E-19 -1.040105E+00  0.000000E+00
  1.303270E-01  5.311020E-02  5.000000E-01  1.316432E-01  5.356519E-02  0.000000E+00  2.458269E-02  4.802994E-03 -6.832461E-19 -1.055792E+00  0.000000E+00
  1.182110E-01  5.061252E-02  5.000000E-01  1.194048E-01  5.104229E-02  0.000000E+00  2.522520E-02  5.534164E-03 -5.814043E-19 -1.052936E+00  0.000000E+00
  1.067560E-01  4.795453E-02  5.000000E-01  1.078341E-01  4.835745E-02  0.000000E+00  2.577551E-02  6.355020E-03  2.484806E-19 -1.022512E+00  0.000000E+00
  9.596750E-02  4.514237E-02  5.000000E-01  9.693669E-02  4.551690E-02  0.000000E+00  2.604745E-02  7.114779E-03 -1.195207E-18 -9.736846E-01  0.000000E+00
  8.582800E-02  4.224431E-02  5.000000E-01  8.669479E-02  4.258957E-02  0.000000E+00  2.597424E-02  7.678561E-03 -2.440039E-18 -9.265319E-01  0.000000E+00
  8.582800E-02  4.224431E-02  5.000000E-01  8.669479E-02  4.258957E-02  0.000000E+00  2.597424E-02  7.678561E-03 -2.440039E-18 -9.265319E-01  0.000000E+00
  7.631050E-02  3.933501E-02  5.000000E-01  7.708117E-02  3.965089E-02  0.000000E+00  2.570493E-02  8.123434E-03 -1.347382E-18 -8.855483E-01  0.000000E+00
  6.740780E-02  3.642896E-02  5.000000E-01  6.808856E-02  3.671549E-02  0.000000E+00  2.541897E-02  8.594583E-03  5.750715E-19 -8.434432E-01  0.000000E+00
  5.911740E-02  3.352845E-02  5.000000E-01  5.971444E-02  3.378569E-02  0.000000E+00  2.517356E-02  9.118980E-03  1.659684E-18 -7.971551E-01  0.000000E+00
  5.143150E-02  3.064857E-02  5.000000E-01  5.195092E-02  3.087673E-02  0.000000E+00  2.494385E-02  9.661895E-03 -5.538495E-19 -7.474069E-01  0.000000E+00
  4.433770E-02  2.781045E-02  5.000000E-01  4.478548E-02  2.800994E-02  0.000000E+00  2.468689E-02  1.019584E-02 -1.640839E-18 -6.968681E-01  0.000000E+00
  3.782240E-02  2.503440E-02  5.000000E-01  3.820438E-02  2.520585E-02  0.000000E+00  2.437807E-02  1.072121E-02 -1.878456E-18 -6.493649E-01  0.000000E+00
  3.187460E-02  2.233505E-02  5.000000E-01  3.219651E-02  2.247924E-02  0.000000E+00  2.402578E-02  1.126326E-02 -3.283170E-18 -6.076741E-01  0.000000E+00
  2.648400E-02  1.972514E-02  5.000000E-01  2.675147E-02  1.984298E-02  0.000000E+00  2.365988E-02  1.189116E-02 -4.837287E-18 -5.650271E-01  0.000000E+00
  2.164990E-02  1.720649E-02  5.000000E-01  2.186855E-02  1.729889E-02  0.000000E+00  2.324763E-02  1.265915E-02 -7.384458E-18 -5.034250E-01  0.000000E+00
  1.737670E-02  1.477947E-02  5.000000E-01  1.755219E-02  1.484736E-02  0.000000E+00  2.263416E-02  1.340998E-02 -1.234674E-17 -4.170167E-01  0.000000E+00
  1.364080E-02  1.247174E-02  5.000000E-01  1.377857E-02  1.251633E-02  0.000000E+00  2.169826E-02  1.384481E-02 -2.062390E-17 -3.263011E-01  0.000000E+00
  1.039090E-02  1.032687E-02  5.000000E-01  1.049584E-02  1.034979E-02  0.000000E+00  2.054059E-02  1.392557E-02 -2.853639E-17 -2.563623E-01  0.000000E+00
  7.586340E-03  8.371032E-03  5.000000E-01  7.662960E-03  8.374201E-03  0.000000E+00  1.943308E-02  1.405267E-02 -3.158129E-17 -2.103862E-01  0.000000E+00
  5.226210E-03  6.600604E-03  5.000000E-01  5.278995E-03  6.585894E-03  0.000000E+00  1.863885E-02  1.478611E-02 -3.046443E-17 -1.758351E-01  0.000000E+00
  3.324300E-03  5.006717E-03  5.000000E-01  3.357878E-03  4.975909E-03  0.000000E+00  1.829967E-02  1.663478E-02 -3.581667E-17 -1.412419E-01  0.000000E+00
  1.883580E-03  3.593966E-03  5.000000E-01  1.902608E-03  3.548891E-03  0.000000E+00  1.822664E-02  2.015428E-02 -5.844173E-17 -8.459945E-02  0.000000E+00
  8.951490E-04  2.378529E-03  5.000000E-01  9.041943E-04  2.321179E-03  0.000000E+00  1.742072E-02  2.555182E-02 -1.025598E-16  3.250348E-02  0.000000E+00
  3.201820E-04  1.389932E-03  5.000000E-01  3.234206E-04  1.322599E-03  0.000000E+00  1.422005E-02  3.137527E-02 -1.533779E-16  2.303652E-01  0.000000E+00
  6.852390E-05  6.636074E-04  5.000000E-01  6.922101E-05  5.889386E-04  0.000000E+00  8.506003E-03  3.425889E-02 -1.798034E-16  4.409641E-01  0.000000E+00
  4.217600E-06  2.258235E-04  5.000000E-01  4.265277E-06  1.467335E-04  0.000000E+00  3.056530E-03  3.383848E-02 -1.505308E-16  5.140372E-01  0.000000E+00
 -5.032520E-09  8.055711E-05  5.000000E-01  0.000000E+00  0.000000E+00  0.000000E+00 -4.554722E-04  3.669763E-02 -7.336373E-17  4.790277E-01  0.000000E+00
  5.154440E-06 -6.514516E-05  5.000000E-01  5.211579E-06 -1.471737E-04  0.000000E+00 -3.963574E-03  3.763519E-02 -1.873033E-17  5.839303E-01  0.000000E+00