 Title = "ADflow Slice Data"
Variables =  "CoordinateX"  "CoordinateY"  "CoordinateZ"  "XoC"  "YoC"  "ZoC" "VelocityX" "VelocityY" "VelocityZ" "CoefPressure" "Mach" 
Zone T= "Slice_0001 None Absolute Regular z = 0.50000000"
 Nodes =          192  Elements=          184  ZONETYPE=FELINESEG
 DATAPACKING=POINT
  5.653940E-01 -3.579837E-03  5.000000E-01  5.711040E-01 -3.689876E-03  0.000000E+00  1.034854E-02  4.723618E-04 -1.507373E-19  1.337776E-01  0.000000E+00
  5.859770E-01 -2.521601E-03  5.000000E-01  5.918949E-01 -2.620954E-03  0.000000E+00  1.007002E-02  5.688991E-04 -7.027042E-19  1.352948E-01  0.000000E+00
  6.063060E-01 -1.265212E-03  5.000000E-01  6.124292E-01 -1.351876E-03  0.000000E+00  9.703736E-03  6.378311E-04 -7.670609E-19  1.478633E-01  0.000000E+00
  6.263240E-01  1.316536E-04  5.000000E-01  6.326493E-01  5.909678E-05  0.000000E+00  9.308010E-03  6.670519E-04 -1.769999E-19  1.660930E-01  0.000000E+00
  6.459860E-01  1.579058E-03  5.000000E-01  6.525099E-01  1.521119E-03  0.000000E+00  8.928305E-03  6.575892E-04  2.450342E-19  1.861477E-01  0.000000E+00
  6.652460E-01  2.997618E-03  5.000000E-01  6.719644E-01  2.954005E-03  0.000000E+00  8.580549E-03  6.253699E-04  5.725890E-19  2.046755E-01  0.000000E+00
  6.840650E-01  4.352205E-03  5.000000E-01  6.909735E-01  4.322272E-03  0.000000E+00  8.252695E-03  5.901500E-04 -1.842940E-19  2.196668E-01  0.000000E+00
  7.024070E-01  5.654101E-03  5.000000E-01  7.095007E-01  5.637316E-03  0.000000E+00  7.927248E-03  5.582822E-04 -8.431308E-19  2.327019E-01  0.000000E+00
  7.202400E-01  6.901054E-03  5.000000E-01  7.275138E-01  6.896863E-03  0.000000E+00  7.599569E-03  5.234155E-04 -7.068482E-19  2.468033E-01  0.000000E+00
  7.375350E-01  8.074142E-03  5.000000E-01  7.449835E-01  8.081798E-03  0.000000E+00  7.277137E-03  4.808284E-04 -8.336054E-19  2.624714E-01  0.000000E+00
  7.542690E-01  9.149231E-03  5.000000E-01  7.618865E-01  9.167743E-03  0.000000E+00  6.975950E-03  4.302848E-04 -4.072643E-19  2.785509E-01  0.000000E+00
  7.704220E-01  1.010164E-02  5.000000E-01  7.782026E-01  1.012977E-02  0.000000E+00  6.717881E-03  3.730220E-04  8.377366E-20  2.936513E-01  0.000000E+00
  7.859770E-01  1.090986E-02  5.000000E-01  7.939147E-01  1.094616E-02  0.000000E+00  6.530904E-03  3.042371E-04  2.921074E-20  3.076513E-01  0.000000E+00
  8.009220E-01  1.152571E-02  5.000000E-01  8.090106E-01  1.156822E-02  0.000000E+00  6.443723E-03  2.163393E-04 -1.047141E-21  3.207275E-01  0.000000E+00
  8.152480E-01  1.189648E-02  5.000000E-01  8.234813E-01  1.194274E-02  0.000000E+00  6.465375E-03  1.150992E-04 -8.467540E-20  3.298711E-01  0.000000E+00
  8.289490E-01  1.202876E-02  5.000000E-01  8.373207E-01  1.207636E-02  0.000000E+00  6.578310E-03  1.384960E-05 -2.264092E-19  3.324908E-01  0.000000E+00
  8.420260E-01  1.195939E-02  5.000000E-01  8.505297E-01  1.200628E-02  0.000000E+00  6.753937E-03 -8.084838E-05 -8.282998E-20  3.301099E-01  0.000000E+00
  8.544790E-01  1.173026E-02  5.000000E-01  8.631085E-01  1.177484E-02  0.000000E+00  6.964201E-03 -1.670961E-04  4.167491E-19  3.251258E-01  0.000000E+00
  8.663160E-01  1.138235E-02  5.000000E-01  8.750650E-01  1.142342E-02  0.000000E+00  7.183912E-03 -2.437974E-04  5.774797E-19  3.188118E-01  0.000000E+00
  8.775420E-01  1.095192E-02  5.000000E-01  8.864044E-01  1.098864E-02  0.000000E+00  7.391803E-03 -3.096500E-04  4.656262E-19  3.118236E-01  0.000000E+00
  8.881660E-01  1.047008E-02  5.000000E-01  8.971357E-01  1.050193E-02  0.000000E+00  7.572823E-03 -3.636350E-04 -8.167970E-20  3.046690E-01  0.000000E+00
  8.981970E-01  9.962189E-03  5.000000E-01  9.072680E-01  9.988912E-03  0.000000E+00  7.721466E-03 -4.083020E-04 -6.716378E-19  2.980254E-01  0.000000E+00
  9.076460E-01  9.442006E-03  5.000000E-01  9.168124E-01  9.463476E-03  0.000000E+00  7.844319E-03 -4.512987E-04 -3.570389E-19  2.927224E-01  0.000000E+00
  9.165220E-01  8.909916E-03  5.000000E-01  9.257781E-01  8.926012E-03  0.000000E+00  7.955322E-03 -4.989107E-04 -1.627281E-19  2.885786E-01  0.000000E+00
  9.165220E-01  8.909916E-03  5.000000E-01  9.257781E-01  8.926012E-03  0.000000E+00  7.955322E-03 -4.989107E-04 -1.627281E-19  2.885786E-01  0.000000E+00
  9.248360E-01  8.365637E-03  5.000000E-01  9.341760E-01  8.376236E-03  0.000000E+00  8.067258E-03 -5.523565E-04 -3.206278E-20  2.845176E-01  0.000000E+00
  9.325990E-01  7.810967E-03  5.000000E-01  9.420174E-01  7.815965E-03  0.000000E+00  8.189193E-03 -6.114420E-04 -7.004038E-20  2.799580E-01  0.000000E+00
  9.398210E-01  7.248870E-03  5.000000E-01  9.493124E-01  7.248190E-03  0.000000E+00  8.327803E-03 -6.761806E-04 -3.958634E-19  2.748019E-01  0.000000E+00
  9.465130E-01  6.683384E-03  5.000000E-01  9.560720E-01  6.676994E-03  0.000000E+00  8.487938E-03 -7.465787E-04 -3.895927E-19  2.689709E-01  0.000000E+00
  9.526870E-01  6.119402E-03  5.000000E-01  9.623083E-01  6.107316E-03  0.000000E+00  8.672584E-03 -8.225935E-04 -2.065460E-19  2.623584E-01  0.000000E+00
  9.583540E-01  5.562471E-03  5.000000E-01  9.680325E-01  5.544761E-03  0.000000E+00  8.883199E-03 -9.040930E-04  3.527432E-19  2.548903E-01  0.000000E+00
  9.635240E-01  5.018620E-03  5.000000E-01  9.732548E-01  4.995417E-03  0.000000E+00  9.120435E-03 -9.906986E-04  2.297672E-19  2.465069E-01  0.000000E+00
  9.682080E-01  4.494171E-03  5.000000E-01  9.779861E-01  4.465672E-03  0.000000E+00  9.385911E-03 -1.082261E-03  2.461262E-19  2.372194E-01  0.000000E+00
  9.724140E-01  3.995543E-03  5.000000E-01  9.822345E-01  3.962008E-03  0.000000E+00  9.684605E-03 -1.178912E-03  5.553661E-20  2.270818E-01  0.000000E+00
  9.761510E-01  3.529120E-03  5.000000E-01  9.860093E-01  3.490875E-03  0.000000E+00  1.002504E-02 -1.280685E-03 -8.816061E-19  2.161118E-01  0.000000E+00
  9.794290E-01  3.101037E-03  5.000000E-01  9.893204E-01  3.058468E-03  0.000000E+00  1.041264E-02 -1.387818E-03 -7.418661E-19  2.043647E-01  0.000000E+00
  9.822540E-01  2.717095E-03  5.000000E-01  9.921739E-01  2.670649E-03  0.000000E+00  1.083238E-02 -1.498715E-03  1.026564E-18  1.921184E-01  0.000000E+00
  9.846330E-01  2.382582E-03  5.000000E-01  9.945769E-01  2.332758E-03  0.000000E+00  1.123147E-02 -1.603627E-03  4.204318E-18  1.806321E-01  0.000000E+00
  9.865710E-01  2.102167E-03  5.000000E-01  9.965345E-01  2.049510E-03  0.000000E+00  1.148266E-02 -1.671849E-03  5.252615E-18  1.688168E-01  0.000000E+00
  9.880740E-01  1.879811E-03  5.000000E-01  9.980527E-01  1.824909E-03  0.000000E+00  1.137672E-02 -1.699932E-03 -3.388950E-18  1.503716E-01  0.000000E+00
  9.891450E-01  1.718670E-03  5.000000E-01  9.991345E-01  1.662140E-03  0.000000E+00  1.158044E-02 -1.833297E-03 -3.250990E-17  1.515969E-01  0.000000E+00
  9.897860E-01  1.621050E-03  5.000000E-01  9.997820E-01  1.563535E-03  0.000000E+00  1.493828E-02 -1.809130E-03 -8.166319E-17  1.993816E-01  0.000000E+00
  9.900000E-01  1.588360E-03  5.000000E-01  9.999981E-01  1.530515E-03  0.000000E+00  1.043482E-02 -4.219052E-03 -7.524003E-17 -3.952594E-02  0.000000E+00
  9.900000E-01  1.667070E-03  5.000000E-01  9.999981E-01  1.610020E-03  0.000000E+00  1.043787E-03 -1.461234E-02  2.299493E-17 -1.748769E-01  0.000000E+00
  9.900000E-01  1.745790E-03  5.000000E-01  9.999981E-01  1.689535E-03  0.000000E+00 -5.206484E-04 -1.377453E-02  1.156903E-16 -9.286057E-04  0.000000E+00
  9.900000E-01  1.824510E-03  5.000000E-01  9.999981E-01  1.769050E-03  0.000000E+00 -2.984151E-04  2.415630E-03  1.381248E-16 -5.319530E-03  0.000000E+00
  9.900000E-01  1.903221E-03  5.000000E-01  9.999981E-01  1.848555E-03  0.000000E+00  7.073205E-04  3.826735E-03  1.581201E-16 -1.223919E-01  0.000000E+00
  9.900000E-01  1.981941E-03  5.000000E-01  9.999981E-01  1.928070E-03  0.000000E+00  5.832139E-03 -2.519897E-03  1.864477E-16 -2.864462E-02  0.000000E+00
  9.900000E-01  1.981941E-03  5.000000E-01  9.999981E-01  1.928070E-03  0.000000E+00  5.832139E-03 -2.519897E-03  1.864477E-16 -2.864462E-02  0.000000E+00
  9.897900E-01  2.024455E-03  5.000000E-01  9.997860E-01  1.971014E-03  0.000000E+00  7.577811E-03 -1.864487E-03  1.320586E-16  1.127813E-01  0.000000E+00
  9.891580E-01  2.152009E-03  5.000000E-01  9.991476E-01  2.099856E-03  0.000000E+00  4.693874E-03 -8.870206E-04  4.243806E-17  7.055255E-02  0.000000E+00
  9.881040E-01  2.364678E-03  5.000000E-01  9.980830E-01  2.314672E-03  0.000000E+00  3.958271E-03 -7.965510E-04  8.242276E-20  6.097184E-02  0.000000E+00
  9.866260E-01  2.662557E-03  5.000000E-01  9.965901E-01  2.615560E-03  0.000000E+00  3.779112E-03 -7.667480E-04 -8.306173E-18  6.332544E-02  0.000000E+00
  9.847200E-01  3.045752E-03  5.000000E-01  9.946648E-01  3.002625E-03  0.000000E+00  3.691241E-03 -7.405500E-04 -5.160090E-18  5.876707E-02  0.000000E+00
  9.823820E-01  3.514351E-03  5.000000E-01  9.923032E-01  3.475956E-03  0.000000E+00  3.723978E-03 -7.444540E-04 -1.250272E-18  5.151319E-02  0.000000E+00
  9.796080E-01  4.068382E-03  5.000000E-01  9.895012E-01  4.035582E-03  0.000000E+00  3.859582E-03 -7.689997E-04  6.972889E-19  4.356420E-02  0.000000E+00
  9.763910E-01  4.707773E-03  5.000000E-01  9.862517E-01  4.681431E-03  0.000000E+00  4.059555E-03 -8.047774E-04  7.372913E-19  3.438447E-02  0.000000E+00
  9.727270E-01  5.432248E-03  5.000000E-01  9.825507E-01  5.413222E-03  0.000000E+00  4.298747E-03 -8.469872E-04 -1.115101E-19  2.382855E-02  0.000000E+00
  9.686070E-01  6.241355E-03  5.000000E-01  9.783891E-01  6.230501E-03  0.000000E+00  4.562700E-03 -8.924030E-04 -1.289892E-19  1.208235E-02  0.000000E+00
  9.640240E-01  7.134299E-03  5.000000E-01  9.737598E-01  7.132463E-03  0.000000E+00  4.844121E-03 -9.391345E-04  3.243870E-19 -7.572548E-04  0.000000E+00
  9.589680E-01  8.109912E-03  5.000000E-01  9.686527E-01  8.117929E-03  0.000000E+00  5.140842E-03 -9.863638E-04 -9.819545E-20 -1.462414E-02  0.000000E+00
  9.534310E-01  9.166544E-03  5.000000E-01  9.630598E-01  9.185232E-03  0.000000E+00  5.453046E-03 -1.033664E-03 -5.406794E-19 -2.945865E-02  0.000000E+00
  9.474030E-01  1.030197E-02  5.000000E-01  9.569709E-01  1.033212E-02  0.000000E+00  5.780951E-03 -1.080293E-03 -5.225016E-19 -4.510751E-02  0.000000E+00
  9.408720E-01  1.151325E-02  5.000000E-01  9.503740E-01  1.155564E-02  0.000000E+00  6.123489E-03 -1.125438E-03  2.662497E-19 -6.146856E-02  0.000000E+00
  9.338280E-01  1.279667E-02  5.000000E-01  9.432589E-01  1.285202E-02  0.000000E+00  6.478583E-03 -1.168109E-03  4.197808E-19 -7.843916E-02  0.000000E+00
  9.262600E-01  1.414762E-02  5.000000E-01  9.356144E-01  1.421662E-02  0.000000E+00  6.843051E-03 -1.206746E-03 -5.118000E-19 -9.582237E-02  0.000000E+00
  9.181550E-01  1.556022E-02  5.000000E-01  9.274276E-01  1.564347E-02  0.000000E+00  7.212106E-03 -1.239603E-03 -6.910507E-19 -1.134448E-01  0.000000E+00
  9.095020E-01  1.702754E-02  5.000000E-01  9.186872E-01  1.712561E-02  0.000000E+00  7.579245E-03 -1.264600E-03 -4.527457E-19 -1.309473E-01  0.000000E+00
  9.002880E-01  1.854101E-02  5.000000E-01  9.093801E-01  1.865437E-02  0.000000E+00  7.935170E-03 -1.279469E-03 -3.114952E-20 -1.476630E-01  0.000000E+00
  8.905020E-01  2.009076E-02  5.000000E-01  8.994953E-01  2.021978E-02  0.000000E+00  8.267446E-03 -1.283398E-03 -2.895661E-20 -1.630717E-01  0.000000E+00
  8.801320E-01  2.166933E-02  5.000000E-01  8.890206E-01  2.181428E-02  0.000000E+00  8.563372E-03 -1.277561E-03 -3.971405E-19 -1.770431E-01  0.000000E+00
  8.691700E-01  2.327244E-02  5.000000E-01  8.779479E-01  2.343359E-02  0.000000E+00  8.813371E-03 -1.263377E-03 -4.278108E-19 -1.895303E-01  0.000000E+00
  8.691700E-01  2.327244E-02  5.000000E-01  8.779479E-01  2.343359E-02  0.000000E+00  8.813371E-03 -1.263377E-03 -4.278108E-19 -1.895303E-01  0.000000E+00
  8.576080E-01  2.489718E-02  5.000000E-01  8.662691E-01  2.507473E-02  0.000000E+00  9.011507E-03 -1.241939E-03 -7.020880E-19 -2.003703E-01  0.000000E+00
  8.454380E-01  2.654208E-02  5.000000E-01  8.539762E-01  2.673624E-02  0.000000E+00  9.154576E-03 -1.215312E-03 -4.793798E-19 -2.094304E-01  0.000000E+00
  8.326580E-01  2.820848E-02  5.000000E-01  8.410671E-01  2.841947E-02  0.000000E+00  9.242548E-03 -1.186614E-03 -3.877601E-19 -2.166421E-01  0.000000E+00
  8.192630E-01  2.990184E-02  5.000000E-01  8.275368E-01  3.012994E-02  0.000000E+00  9.279577E-03 -1.160421E-03  5.038037E-20 -2.224232E-01  0.000000E+00
  8.052550E-01  3.163456E-02  5.000000E-01  8.133874E-01  3.188016E-02  0.000000E+00  9.276320E-03 -1.141998E-03  6.954606E-19 -2.280265E-01  0.000000E+00
  7.906370E-01  3.342533E-02  5.000000E-01  7.986217E-01  3.368901E-02  0.000000E+00  9.251550E-03 -1.134278E-03  4.381120E-19 -2.350341E-01  0.000000E+00
  7.754120E-01  3.529296E-02  5.000000E-01  7.832430E-01  3.557550E-02  0.000000E+00  9.228727E-03 -1.136225E-03  1.003805E-18 -2.444998E-01  0.000000E+00
  7.595880E-01  3.724811E-02  5.000000E-01  7.672592E-01  3.755040E-02  0.000000E+00  9.228431E-03 -1.143514E-03  1.205627E-18 -2.563844E-01  0.000000E+00
  7.431760E-01  3.928759E-02  5.000000E-01  7.506814E-01  3.961048E-02  0.000000E+00  9.260965E-03 -1.153145E-03 -7.799687E-19 -2.703493E-01  0.000000E+00
  7.261880E-01  4.140690E-02  5.000000E-01  7.335219E-01  4.175119E-02  0.000000E+00  9.327230E-03 -1.165175E-03 -1.188785E-18 -2.861745E-01  0.000000E+00
  7.086430E-01  4.360185E-02  5.000000E-01  7.157997E-01  4.396830E-02  0.000000E+00  9.425224E-03 -1.180287E-03 -1.163445E-18 -3.033814E-01  0.000000E+00
  6.905640E-01  4.586886E-02  5.000000E-01  6.975381E-01  4.625821E-02  0.000000E+00  9.555121E-03 -1.200569E-03 -1.236490E-18 -3.221495E-01  0.000000E+00
  6.719770E-01  4.820897E-02  5.000000E-01  6.787634E-01  4.862195E-02  0.000000E+00  9.725477E-03 -1.231024E-03  6.267304E-19 -3.444853E-01  0.000000E+00
  6.529150E-01  5.063357E-02  5.000000E-01  6.595089E-01  5.107104E-02  0.000000E+00  9.960129E-03 -1.273928E-03  3.079002E-19 -3.727215E-01  0.000000E+00
  6.334180E-01  5.314042E-02  5.000000E-01  6.398150E-01  5.360321E-02  0.000000E+00  1.029314E-02 -1.323417E-03 -8.718546E-19 -4.076403E-01  0.000000E+00
  6.135280E-01  5.569712E-02  5.000000E-01  6.197241E-01  5.618572E-02  0.000000E+00  1.075135E-02 -1.371458E-03 -1.299278E-18 -4.496210E-01  0.000000E+00
  5.932910E-01  5.825807E-02  5.000000E-01  5.992827E-01  5.877254E-02  0.000000E+00  1.134542E-02 -1.409575E-03 -7.171319E-20 -4.981083E-01  0.000000E+00
  5.727570E-01  6.076367E-02  5.000000E-01  5.785414E-01  6.130344E-02  0.000000E+00  1.206627E-02 -1.424374E-03  1.283618E-18 -5.493897E-01  0.000000E+00
  5.519810E-01  6.314052E-02  5.000000E-01  5.575555E-01  6.370429E-02  0.000000E+00  1.287756E-02 -1.401018E-03 -5.608525E-20 -5.980053E-01  0.000000E+00
  5.310180E-01  6.531284E-02  5.000000E-01  5.363808E-01  6.589855E-02  0.000000E+00  1.371565E-02 -1.340126E-03 -8.119833E-19 -6.427231E-01  0.000000E+00
  5.099250E-01  6.725506E-02  5.000000E-01  5.150748E-01  6.786040E-02  0.000000E+00  1.452301E-02 -1.255289E-03  3.738638E-20 -6.867282E-01  0.000000E+00
  4.887640E-01  6.896939E-02  5.000000E-01  4.937001E-01  6.959203E-02  0.000000E+00  1.528483E-02 -1.145973E-03  5.266985E-19 -7.303950E-01  0.000000E+00
  4.675910E-01  7.043547E-02  5.000000E-01  4.723133E-01  7.107292E-02  0.000000E+00  1.601116E-02 -9.996222E-04 -1.372508E-19 -7.704415E-01  0.000000E+00
  7.860720E-05 -4.368047E-04  5.000000E-01  7.940615E-05 -5.151024E-04  0.000000E+00 -1.472308E-02  4.601676E-02 -4.104529E-16  6.423039E-01  0.000000E+00
  3.989240E-04 -1.033298E-03  5.000000E-01  4.029579E-04 -1.117620E-03  0.000000E+00 -1.506991E-02  2.244573E-02 -4.301718E-16  1.030038E+00  0.000000E+00
  1.196920E-03 -1.758614E-03  5.000000E-01  1.209013E-03 -1.850261E-03  0.000000E+00 -7.169421E-03  6.186326E-03 -3.307874E-16  1.101090E+00  0.000000E+00
  2.563580E-03 -2.524591E-03  5.000000E-01  2.589475E-03 -2.623974E-03  0.000000E+00  1.377634E-03 -4.056786E-04 -1.898636E-16  9.892113E-01  0.000000E+00
  4.492740E-03 -3.293660E-03  5.000000E-01  4.538118E-03 -3.400809E-03  0.000000E+00  6.810751E-03 -2.355533E-03 -5.844639E-17  8.765197E-01  0.000000E+00
  6.952190E-03 -4.064939E-03  5.000000E-01  7.022406E-03 -4.179878E-03  0.000000E+00  9.674777E-03 -2.799921E-03  1.655293E-17  7.940922E-01  0.000000E+00
  9.910730E-03 -4.862037E-03  5.000000E-01  1.001082E-02 -4.985026E-03  0.000000E+00  1.114565E-02 -2.872766E-03  3.317932E-17  7.269584E-01  0.000000E+00
  1.334950E-02 -5.712368E-03  5.000000E-01  1.348432E-02 -5.843944E-03  0.000000E+00  1.195102E-02 -2.813495E-03  2.061105E-17  6.605799E-01  0.000000E+00
  1.728780E-02 -6.596760E-03  5.000000E-01  1.746240E-02 -6.737268E-03  0.000000E+00  1.240678E-02 -2.598246E-03  4.469188E-18  5.888057E-01  0.000000E+00
  2.175590E-02 -7.466777E-03  5.000000E-01  2.197562E-02 -7.616071E-03  0.000000E+00  1.264100E-02 -2.262121E-03 -3.710116E-18  5.205114E-01  0.000000E+00
  2.676920E-02 -8.284467E-03  5.000000E-01  2.703955E-02 -8.442019E-03  0.000000E+00  1.274865E-02 -1.904134E-03 -4.031004E-18  4.663136E-01  0.000000E+00
  3.232800E-02 -9.037602E-03  5.000000E-01  3.265449E-02 -9.202760E-03  0.000000E+00  1.280423E-02 -1.595124E-03 -1.931619E-18  4.276806E-01  0.000000E+00
  3.842930E-02 -9.731404E-03  5.000000E-01  3.881741E-02 -9.903569E-03  0.000000E+00  1.284273E-02 -1.356457E-03 -1.075215E-18  3.994365E-01  0.000000E+00
  4.507220E-02 -1.037959E-02  5.000000E-01  4.552739E-02 -1.055830E-02  0.000000E+00  1.288538E-02 -1.197249E-03 -1.743868E-19  3.776131E-01  0.000000E+00
  5.225680E-02 -1.101320E-02  5.000000E-01  5.278455E-02 -1.119831E-02  0.000000E+00  1.296032E-02 -1.118885E-03  6.666628E-19  3.598821E-01  0.000000E+00
  5.998640E-02 -1.166656E-02  5.000000E-01  6.059222E-02 -1.185826E-02  0.000000E+00  1.307379E-02 -1.086443E-03  7.295438E-19  3.409620E-01  0.000000E+00
  6.827110E-02 -1.234439E-02  5.000000E-01  6.896058E-02 -1.254295E-02  0.000000E+00  1.320362E-02 -1.058253E-03  2.289778E-19  3.177043E-01  0.000000E+00
  7.712280E-02 -1.303916E-02  5.000000E-01  7.790168E-02 -1.324474E-02  0.000000E+00  1.333046E-02 -1.022881E-03 -2.160571E-19  2.927136E-01  0.000000E+00
  8.655260E-02 -1.374569E-02  5.000000E-01  8.742671E-02 -1.395840E-02  0.000000E+00  1.344399E-02 -9.789124E-04 -1.231433E-19  2.683623E-01  0.000000E+00
  9.657140E-02 -1.445436E-02  5.000000E-01  9.754669E-02 -1.467423E-02  0.000000E+00  1.353125E-02 -9.155300E-04  2.866566E-19  2.440912E-01  0.000000E+00
  1.071900E-01 -1.514082E-02  5.000000E-01  1.082725E-01 -1.536761E-02  0.000000E+00  1.358673E-02 -8.294512E-04  8.588615E-19  2.201399E-01  0.000000E+00
  1.184180E-01 -1.578555E-02  5.000000E-01  1.196139E-01 -1.601885E-02  0.000000E+00  1.362936E-02 -7.377447E-04  5.887823E-19  1.988473E-01  0.000000E+00
  1.302610E-01 -1.638716E-02  5.000000E-01  1.315765E-01 -1.662654E-02  0.000000E+00  1.368854E-02 -6.570871E-04  3.221633E-20  1.805764E-01  0.000000E+00
  1.427230E-01 -1.695058E-02  5.000000E-01  1.441644E-01 -1.719566E-02  0.000000E+00  1.377895E-02 -5.906461E-04  1.502937E-19  1.633818E-01  0.000000E+00
  1.427230E-01 -1.695058E-02  5.000000E-01  1.441644E-01 -1.719566E-02  0.000000E+00  1.377895E-02 -5.906461E-04  1.502937E-19  1.633818E-01  0.000000E+00
  1.558070E-01 -1.748127E-02  5.000000E-01  1.573805E-01 -1.773171E-02  0.000000E+00  1.388478E-02 -5.256242E-04  2.806716E-19  1.449298E-01  0.000000E+00
  1.695140E-01 -1.796410E-02  5.000000E-01  1.712259E-01 -1.821940E-02  0.000000E+00  1.396017E-02 -4.382648E-04  2.113799E-19  1.241312E-01  0.000000E+00
  1.838420E-01 -1.835960E-02  5.000000E-01  1.856986E-01 -1.861890E-02  0.000000E+00  1.394941E-02 -3.093240E-04  1.703028E-19  1.026728E-01  0.000000E+00
  1.987870E-01 -1.860978E-02  5.000000E-01  2.007946E-01 -1.887161E-02  0.000000E+00  1.381013E-02 -1.332469E-04  7.569795E-20  8.365265E-02  0.000000E+00
  2.143420E-01 -1.864785E-02  5.000000E-01  2.165067E-01 -1.891007E-02  0.000000E+00  1.353711E-02  6.777947E-05  7.601472E-20  7.116653E-02  0.000000E+00
  2.304940E-01 -1.844198E-02  5.000000E-01  2.328218E-01 -1.870212E-02  0.000000E+00  1.317009E-02  2.474955E-04 -4.469284E-19  6.916454E-02  0.000000E+00
  2.472290E-01 -1.802165E-02  5.000000E-01  2.497258E-01 -1.827754E-02  0.000000E+00  1.275944E-02  3.780581E-04 -9.001152E-19  7.634859E-02  0.000000E+00
  2.645310E-01 -1.742907E-02  5.000000E-01  2.672025E-01 -1.767898E-02  0.000000E+00  1.233203E-02  4.693118E-04 -6.146950E-19  8.668642E-02  0.000000E+00
  2.823750E-01 -1.668144E-02  5.000000E-01  2.852267E-01 -1.692379E-02  0.000000E+00  1.190028E-02  5.398962E-04 -6.563465E-19  9.647418E-02  0.000000E+00
  3.007320E-01 -1.578295E-02  5.000000E-01  3.037691E-01 -1.601623E-02  0.000000E+00  1.148634E-02  5.907946E-04 -4.540838E-19  1.069528E-01  0.000000E+00
  3.195690E-01 -1.476404E-02  5.000000E-01  3.227964E-01 -1.498703E-02  0.000000E+00  1.112314E-02  6.106044E-04  2.099708E-19  1.202482E-01  0.000000E+00
  3.388440E-01 -1.368895E-02  5.000000E-01  3.422660E-01 -1.390108E-02  0.000000E+00  1.083040E-02  5.993215E-04  2.475318E-19  1.346212E-01  0.000000E+00
  3.585140E-01 -1.261071E-02  5.000000E-01  3.621347E-01 -1.281195E-02  0.000000E+00  1.060002E-02  5.735051E-04  1.592887E-19  1.458110E-01  0.000000E+00
  3.785290E-01 -1.154383E-02  5.000000E-01  3.823518E-01 -1.173430E-02  0.000000E+00  1.041300E-02  5.458170E-04 -3.228673E-19  1.527354E-01  0.000000E+00
  3.988350E-01 -1.049731E-02  5.000000E-01  4.028629E-01 -1.067721E-02  0.000000E+00  1.025912E-02  5.185454E-04 -1.234204E-19  1.575637E-01  0.000000E+00
  4.193750E-01 -9.479383E-03  5.000000E-01  4.236103E-01 -9.649003E-03  0.000000E+00  1.013874E-02  4.957912E-04  2.713047E-19  1.613376E-01  0.000000E+00
  4.400850E-01 -8.480639E-03  5.000000E-01  4.445295E-01 -8.640173E-03  0.000000E+00  1.006443E-02  4.805901E-04 -3.184611E-19  1.641152E-01  0.000000E+00
  4.609060E-01 -7.496698E-03  5.000000E-01  4.655608E-01 -7.646295E-03  0.000000E+00  1.005986E-02  4.643561E-04  1.532869E-19  1.663601E-01  0.000000E+00
  4.818030E-01 -6.553289E-03  5.000000E-01  4.866688E-01 -6.693358E-03  0.000000E+00  1.014693E-02  4.253781E-04  5.522549E-19  1.692564E-01  0.000000E+00
  5.027520E-01 -5.739655E-03  5.000000E-01  5.078294E-01 -5.871507E-03  0.000000E+00  1.030781E-02  3.643557E-04  3.879458E-19  1.703519E-01  0.000000E+00
  5.237130E-01 -5.073752E-03  5.000000E-01  5.290020E-01 -5.198879E-03  0.000000E+00  1.045702E-02  3.319223E-04  8.197626E-20  1.627205E-01  0.000000E+00
  5.446170E-01 -4.416681E-03  5.000000E-01  5.501172E-01 -4.535172E-03  0.000000E+00  1.048621E-02  3.755282E-04 -2.244398E-19  1.462311E-01  0.000000E+00
  5.653940E-01 -3.579837E-03  5.000000E-01  5.711040E-01 -3.689876E-03  0.000000E+00  1.034854E-02  4.723618E-04 -1.507373E-19  1.337776E-01  0.000000E+00
  4.675910E-01  7.043547E-02  5.000000E-01  4.723133E-01  7.107292E-02  0.000000E+00  1.601116E-02 -9.996222E-04 -1.372508E-19 -7.704415E-01  0.000000E+00
  4.464640E-01  7.161767E-02  5.000000E-01  4.509729E-01  7.226706E-02  0.000000E+00  1.669902E-02 -8.169468E-04 -1.223256E-18 -8.051286E-01  0.000000E+00
  4.254410E-01  7.250409E-02  5.000000E-01  4.297376E-01  7.316243E-02  0.000000E+00  1.733314E-02 -6.107564E-04 -1.075054E-18 -8.353015E-01  0.000000E+00
  4.045840E-01  7.309908E-02  5.000000E-01  4.086700E-01  7.376343E-02  0.000000E+00  1.790511E-02 -3.904421E-04 -1.668982E-19 -8.622707E-01  0.000000E+00
  3.839530E-01  7.341398E-02  5.000000E-01  3.878306E-01  7.408151E-02  0.000000E+00  1.841968E-02 -1.576595E-04  4.695490E-19 -8.864874E-01  0.000000E+00
  3.636060E-01  7.345518E-02  5.000000E-01  3.672781E-01  7.412313E-02  0.000000E+00  1.888822E-02  8.937931E-05  9.063515E-19 -9.073283E-01  0.000000E+00
  3.435960E-01  7.322883E-02  5.000000E-01  3.470660E-01  7.389450E-02  0.000000E+00  1.931829E-02  3.505175E-04  1.974170E-19 -9.240801E-01  0.000000E+00
  3.239710E-01  7.274182E-02  5.000000E-01  3.272428E-01  7.340256E-02  0.000000E+00  1.970900E-02  6.193495E-04 -5.076096E-19 -9.375377E-01  0.000000E+00
  3.047740E-01  7.201351E-02  5.000000E-01  3.078520E-01  7.266689E-02  0.000000E+00  2.006088E-02  8.864406E-04  3.936403E-19 -9.499028E-01  0.000000E+00
  2.860450E-01  7.107047E-02  5.000000E-01  2.889338E-01  7.171433E-02  0.000000E+00  2.039161E-02  1.155578E-03  3.652789E-20 -9.617727E-01  0.000000E+00
  2.678190E-01  6.992455E-02  5.000000E-01  2.705237E-01  7.055684E-02  0.000000E+00  2.072303E-02  1.436624E-03 -9.538057E-19 -9.727382E-01  0.000000E+00
  2.501300E-01  6.858598E-02  5.000000E-01  2.526561E-01  6.920475E-02  0.000000E+00  2.106501E-02  1.731781E-03 -1.999641E-19 -9.836050E-01  0.000000E+00
  2.330040E-01  6.706749E-02  5.000000E-01  2.353571E-01  6.767092E-02  0.000000E+00  2.142207E-02  2.041659E-03  9.641679E-20 -9.955561E-01  0.000000E+00
  2.164660E-01  6.538245E-02  5.000000E-01  2.186521E-01  6.596887E-02  0.000000E+00  2.180147E-02  2.369868E-03 -6.903577E-20 -1.008481E+00  0.000000E+00
  2.005340E-01  6.354404E-02  5.000000E-01  2.025592E-01  6.411190E-02  0.000000E+00  2.221691E-02  2.732358E-03 -9.303522E-20 -1.018797E+00  0.000000E+00
  1.852230E-01  6.154842E-02  5.000000E-01  1.870936E-01  6.209612E-02  0.000000E+00  2.266463E-02  3.139072E-03  1.993468E-19 -1.023294E+00  0.000000E+00
  1.705440E-01  5.939879E-02  5.000000E-01  1.722664E-01  5.992477E-02  0.000000E+00  2.311310E-02  3.571835E-03  1.947960E-19 -1.025417E+00  0.000000E+00
  1.565000E-01  5.711578E-02  5.000000E-01  1.580805E-01  5.761872E-02  0.000000E+00  2.354644E-02  4.012233E-03 -1.224551E-18 -1.032937E+00  0.000000E+00
  1.430940E-01  5.472572E-02  5.000000E-01  1.445391E-01  5.520452E-02  0.000000E+00  2.400140E-02  4.483642E-03 -1.853623E-18 -1.048417E+00  0.000000E+00
  1.303270E-01  5.223314E-02  5.000000E-01  1.316432E-01  5.268676E-02  0.000000E+00  2.453634E-02  5.058649E-03 -1.188857E-18 -1.061293E+00  0.000000E+00
  1.182110E-01  4.960717E-02  5.000000E-01  1.194048E-01  5.003427E-02  0.000000E+00  2.512628E-02  5.773421E-03 -1.418382E-18 -1.055548E+00  0.000000E+00
  1.067560E-01  4.683226E-02  5.000000E-01  1.078341E-01  4.723133E-02  0.000000E+00  2.562547E-02  6.572855E-03 -1.346896E-18 -1.022243E+00  0.000000E+00
  9.596750E-02  4.391528E-02  5.000000E-01  9.693669E-02  4.428490E-02  0.000000E+00  2.584203E-02  7.299984E-03 -1.748488E-19 -9.708369E-01  0.000000E+00
  8.582800E-02  4.092605E-02  5.000000E-01  8.669479E-02  4.126548E-02  0.000000E+00  2.571064E-02  7.819515E-03 -1.780061E-19 -9.214447E-01  0.000000E+00
  8.582800E-02  4.092605E-02  5.000000E-01  8.669479E-02  4.126548E-02  0.000000E+00  2.571064E-02  7.819515E-03 -1.780061E-19 -9.214447E-01  0.000000E+00
  7.631050E-02  3.794013E-02  5.000000E-01  7.708117E-02  3.824940E-02  0.000000E+00  2.538169E-02  8.210407E-03  9.419571E-19 -8.784922E-01  0.000000E+00
  6.740780E-02  3.497294E-02  5.000000E-01  6.808857E-02  3.525225E-02  0.000000E+00  2.503447E-02  8.616701E-03  1.528447E-18 -8.349104E-01  0.000000E+00
  5.911740E-02  3.202843E-02  5.000000E-01  5.971444E-02  3.227800E-02  0.000000E+00  2.472910E-02  9.063811E-03  1.957318E-19 -7.880098E-01  0.000000E+00
  5.143150E-02  2.912340E-02  5.000000E-01  5.195092E-02  2.934364E-02  0.000000E+00  2.444703E-02  9.517769E-03  1.035430E-18 -7.388268E-01  0.000000E+00
  4.433770E-02  2.628037E-02  5.000000E-01  4.478548E-02  2.647189E-02  0.000000E+00  2.415352E-02  9.953749E-03  2.289303E-18 -6.902690E-01  0.000000E+00
  3.782240E-02  2.352061E-02  5.000000E-01  3.820438E-02  2.368426E-02  0.000000E+00  2.383285E-02  1.037541E-02  2.259388E-18 -6.464130E-01  0.000000E+00
  3.187460E-02  2.085947E-02  5.000000E-01  3.219651E-02  2.099624E-02  0.000000E+00  2.350199E-02  1.081137E-02  4.364618E-18 -6.104036E-01  0.000000E+00
  2.648400E-02  1.830988E-02  5.000000E-01  2.675147E-02  1.842090E-02  0.000000E+00  2.319810E-02  1.133137E-02  8.928640E-18 -5.763084E-01  0.000000E+00
  2.164990E-02  1.587407E-02  5.000000E-01  2.186855E-02  1.596050E-02  0.000000E+00  2.289477E-02  1.199011E-02  1.393289E-17 -5.274178E-01  0.000000E+00
  1.737670E-02  1.355250E-02  5.000000E-01  1.755219E-02  1.361549E-02  0.000000E+00  2.243587E-02  1.264497E-02  2.013733E-17 -4.582265E-01  0.000000E+00
  1.364080E-02  1.136940E-02  5.000000E-01  1.377857E-02  1.141033E-02  0.000000E+00  2.167343E-02  1.301502E-02  2.653109E-17 -3.882278E-01  0.000000E+00
  1.039090E-02  9.361561E-03  5.000000E-01  1.049584E-02  9.382219E-03  0.000000E+00  2.065558E-02  1.304526E-02  3.148238E-17 -3.424681E-01  0.000000E+00
  7.586340E-03  7.548758E-03  5.000000E-01  7.662960E-03  7.551108E-03  0.000000E+00  1.960971E-02  1.307841E-02  3.763620E-17 -3.275050E-01  0.000000E+00
  5.226210E-03  5.923742E-03  5.000000E-01  5.278995E-03  5.909680E-03  0.000000E+00  1.882573E-02  1.363689E-02  4.586897E-17 -3.372543E-01  0.000000E+00
  3.324300E-03  4.474587E-03  5.000000E-01  3.357878E-03  4.445890E-03  0.000000E+00  1.864552E-02  1.534079E-02  5.802689E-17 -3.662658E-01  0.000000E+00
  1.883580E-03  3.201190E-03  5.000000E-01  1.902608E-03  3.159633E-03  0.000000E+00  1.928025E-02  1.919522E-02  9.374152E-17 -3.906240E-01  0.000000E+00
  8.951490E-04  2.113595E-03  5.000000E-01  9.041943E-04  2.061054E-03  0.000000E+00  1.990277E-02  2.627552E-02  1.746362E-16 -3.520465E-01  0.000000E+00
  3.201820E-04  1.233758E-03  5.000000E-01  3.234206E-04  1.172331E-03  0.000000E+00  1.792034E-02  3.565871E-02  2.717038E-16 -1.960906E-01  0.000000E+00
  6.852390E-05  5.894846E-04  5.000000E-01  6.922101E-05  5.215515E-04  0.000000E+00  1.176635E-02  4.281940E-02  2.875467E-16  1.559276E-02  0.000000E+00
  4.217600E-06  2.017487E-04  5.000000E-01  4.265277E-06  1.298998E-04  0.000000E+00  4.590888E-03  4.638685E-02  1.641180E-16  8.673633E-02  0.000000E+00
 -5.032520E-09  7.314768E-05  5.000000E-01  0.000000E+00  0.000000E+00  0.000000E+00 -8.491905E-04  5.567537E-02 -3.960793E-17  3.536959E-02  0.000000E+00
  5.154440E-06 -5.582433E-05  5.000000E-01  5.211579E-06 -1.302745E-04  0.000000E+00 -7.340787E-03  6.098825E-02 -2.521375E-16  1.921901E-01  0.000000E+00