 Title = "ADflow Slice Data"
Variables =  "CoordinateX"  "CoordinateY"  "CoordinateZ"  "XoC"  "YoC"  "ZoC" "VelocityX" "VelocityY" "VelocityZ" "CoefPressure" "Mach" 
Zone T= "Slice_0001 None Absolute Regular z = 0.50000000"
 Nodes =          192  Elements=          184  ZONETYPE=FELINESEG
 DATAPACKING=POINT
  5.653940E-01  4.080715E-03  5.000000E-01  5.711040E-01  3.964395E-03  0.000000E+00  9.678409E-03  3.033876E-04  5.915459E-19  1.685327E-01  0.000000E+00
  5.859770E-01  4.869742E-03  5.000000E-01  5.918949E-01  4.761390E-03  0.000000E+00  9.638306E-03  4.343854E-04  6.633216E-22  1.601708E-01  0.000000E+00
  6.063060E-01  5.926810E-03  5.000000E-01  6.124292E-01  5.829134E-03  0.000000E+00  9.374270E-03  5.432541E-04 -4.006036E-20  1.670633E-01  0.000000E+00
  6.263240E-01  7.209497E-03  5.000000E-01  6.326494E-01  7.124774E-03  0.000000E+00  8.951518E-03  6.132739E-04  2.628099E-19  1.827485E-01  0.000000E+00
  6.459860E-01  8.647641E-03  5.000000E-01  6.525099E-01  8.577443E-03  0.000000E+00  8.436228E-03  6.436386E-04  1.239669E-19  2.031336E-01  0.000000E+00
  6.652460E-01  1.018072E-02  5.000000E-01  6.719645E-01  1.012601E-02  0.000000E+00  7.884848E-03  6.419951E-04 -4.352484E-19  2.258015E-01  0.000000E+00
  6.840650E-01  1.175007E-02  5.000000E-01  6.909735E-01  1.171120E-02  0.000000E+00  7.345223E-03  6.119689E-04 -6.428309E-19  2.502726E-01  0.000000E+00
  7.024070E-01  1.327742E-02  5.000000E-01  7.095007E-01  1.325398E-02  0.000000E+00  6.852756E-03  5.576675E-04  7.022805E-19  2.755205E-01  0.000000E+00
  7.202400E-01  1.469197E-02  5.000000E-01  7.275138E-01  1.468282E-02  0.000000E+00  6.425517E-03  4.875228E-04  7.443425E-19  2.992927E-01  0.000000E+00
  7.375350E-01  1.593999E-02  5.000000E-01  7.449835E-01  1.594344E-02  0.000000E+00  6.068886E-03  4.101258E-04 -4.487854E-19  3.201654E-01  0.000000E+00
  7.542690E-01  1.698980E-02  5.000000E-01  7.618865E-01  1.700385E-02  0.000000E+00  5.784101E-03  3.322172E-04 -2.679589E-19  3.378786E-01  0.000000E+00
  7.704220E-01  1.782748E-02  5.000000E-01  7.782026E-01  1.784999E-02  0.000000E+00  5.574301E-03  2.567595E-04  1.588223E-19  3.524302E-01  0.000000E+00
  7.859770E-01  1.845100E-02  5.000000E-01  7.939147E-01  1.847981E-02  0.000000E+00  5.450346E-03  1.771874E-04  1.460326E-19  3.648694E-01  0.000000E+00
  8.009220E-01  1.882444E-02  5.000000E-01  8.090107E-01  1.885702E-02  0.000000E+00  5.429226E-03  8.222121E-05 -9.944904E-20  3.761808E-01  0.000000E+00
  8.152480E-01  1.890111E-02  5.000000E-01  8.234814E-01  1.893446E-02  0.000000E+00  5.515472E-03 -2.689011E-05 -2.836493E-19  3.836712E-01  0.000000E+00
  8.289490E-01  1.869525E-02  5.000000E-01  8.373207E-01  1.872652E-02  0.000000E+00  5.692097E-03 -1.400168E-04  2.412823E-20  3.847614E-01  0.000000E+00
  8.420260E-01  1.825252E-02  5.000000E-01  8.505298E-01  1.827933E-02  0.000000E+00  5.932456E-03 -2.511195E-04  2.059854E-19  3.807587E-01  0.000000E+00
  8.544790E-01  1.762499E-02  5.000000E-01  8.631086E-01  1.764545E-02  0.000000E+00  6.210467E-03 -3.574927E-04  2.085063E-19  3.738764E-01  0.000000E+00
  8.663160E-01  1.686288E-02  5.000000E-01  8.750651E-01  1.687565E-02  0.000000E+00  6.502518E-03 -4.569742E-04  2.294984E-19  3.653440E-01  0.000000E+00
  8.775420E-01  1.601075E-02  5.000000E-01  8.864045E-01  1.601491E-02  0.000000E+00  6.788004E-03 -5.470876E-04 -5.039955E-21  3.558179E-01  0.000000E+00
  8.881660E-01  1.510659E-02  5.000000E-01  8.971358E-01  1.510163E-02  0.000000E+00  7.051246E-03 -6.255676E-04 -1.247049E-19  3.458474E-01  0.000000E+00
  8.981970E-01  1.418162E-02  5.000000E-01  9.072681E-01  1.416731E-02  0.000000E+00  7.284315E-03 -6.933399E-04 -4.252817E-19  3.361081E-01  0.000000E+00
  9.076460E-01  1.325527E-02  5.000000E-01  9.168125E-01  1.323160E-02  0.000000E+00  7.489534E-03 -7.563750E-04 -8.928424E-19  3.274171E-01  0.000000E+00
  9.165220E-01  1.233357E-02  5.000000E-01  9.257781E-01  1.230059E-02  0.000000E+00  7.676679E-03 -8.206687E-04 -5.996497E-19  3.197962E-01  0.000000E+00
  9.165220E-01  1.233357E-02  5.000000E-01  9.257781E-01  1.230059E-02  0.000000E+00  7.676679E-03 -8.206687E-04 -5.996497E-19  3.197962E-01  0.000000E+00
  9.248360E-01  1.141978E-02  5.000000E-01  9.341761E-01  1.137758E-02  0.000000E+00  7.856469E-03 -8.885536E-04 -2.448490E-19  3.124661E-01  0.000000E+00
  9.325990E-01  1.051748E-02  5.000000E-01  9.420175E-01  1.046616E-02  0.000000E+00  8.037890E-03 -9.610775E-04 -5.017139E-19  3.049494E-01  0.000000E+00
  9.398210E-01  9.630381E-03  5.000000E-01  9.493124E-01  9.570107E-03  0.000000E+00  8.228598E-03 -1.039255E-03 -4.582299E-19  2.971076E-01  0.000000E+00
  9.465130E-01  8.762541E-03  5.000000E-01  9.560720E-01  8.693503E-03  0.000000E+00  8.434924E-03 -1.123897E-03 -1.776219E-19  2.888021E-01  0.000000E+00
  9.526870E-01  7.918449E-03  5.000000E-01  9.623084E-01  7.840887E-03  0.000000E+00  8.661597E-03 -1.215571E-03  6.986139E-20  2.798822E-01  0.000000E+00
  9.583540E-01  7.103147E-03  5.000000E-01  9.680326E-01  7.017351E-03  0.000000E+00  8.911895E-03 -1.314619E-03  3.944880E-20  2.702251E-01  0.000000E+00
  9.635240E-01  6.322182E-03  5.000000E-01  9.732548E-01  6.228499E-03  0.000000E+00  9.188289E-03 -1.421045E-03  3.031798E-19  2.597196E-01  0.000000E+00
  9.682080E-01  5.581397E-03  5.000000E-01  9.779861E-01  5.480232E-03  0.000000E+00  9.494294E-03 -1.535093E-03  4.006493E-19  2.483298E-01  0.000000E+00
  9.724140E-01  4.886971E-03  5.000000E-01  9.822346E-01  4.778793E-03  0.000000E+00  9.837101E-03 -1.657471E-03 -3.229847E-19  2.360692E-01  0.000000E+00
  9.761510E-01  4.245094E-03  5.000000E-01  9.860093E-01  4.130434E-03  0.000000E+00  1.022781E-02 -1.789023E-03 -6.214895E-19  2.229193E-01  0.000000E+00
  9.794290E-01  3.661743E-03  5.000000E-01  9.893204E-01  3.541191E-03  0.000000E+00  1.067398E-02 -1.930577E-03 -6.710994E-19  2.089057E-01  0.000000E+00
  9.822540E-01  3.142818E-03  5.000000E-01  9.921740E-01  3.017026E-03  0.000000E+00  1.115995E-02 -2.079617E-03 -4.522569E-19  1.943096E-01  0.000000E+00
  9.846330E-01  2.693690E-03  5.000000E-01  9.945770E-01  2.563362E-03  0.000000E+00  1.162539E-02 -2.221995E-03  9.458836E-19  1.804058E-01  0.000000E+00
  9.865710E-01  2.319209E-03  5.000000E-01  9.965346E-01  2.185098E-03  0.000000E+00  1.192354E-02 -2.316621E-03  2.245259E-18  1.659842E-01  0.000000E+00
  9.880740E-01  2.023437E-03  5.000000E-01  9.980528E-01  1.886340E-03  0.000000E+00  1.182116E-02 -2.346308E-03 -2.351613E-18  1.450497E-01  0.000000E+00
  9.891450E-01  1.809720E-03  5.000000E-01  9.991346E-01  1.670464E-03  0.000000E+00  1.200108E-02 -2.487677E-03 -2.541515E-17  1.455129E-01  0.000000E+00
  9.897860E-01  1.680525E-03  5.000000E-01  9.997820E-01  1.539965E-03  0.000000E+00  1.535469E-02 -2.609922E-03 -7.269269E-17  1.915933E-01  0.000000E+00
  9.900000E-01  1.637275E-03  5.000000E-01  9.999982E-01  1.496278E-03  0.000000E+00  1.069082E-02 -4.943854E-03 -7.688142E-17 -5.788423E-02  0.000000E+00
  9.900000E-01  1.715985E-03  5.000000E-01  9.999982E-01  1.575783E-03  0.000000E+00  1.074952E-03 -1.520712E-02  7.177132E-18 -1.983373E-01  0.000000E+00
  9.900000E-01  1.794706E-03  5.000000E-01  9.999982E-01  1.655298E-03  0.000000E+00 -5.333153E-04 -1.425427E-02  8.819481E-17 -2.135867E-02  0.000000E+00
  9.900000E-01  1.873426E-03  5.000000E-01  9.999982E-01  1.734813E-03  0.000000E+00 -2.921031E-04  2.157857E-03  1.037829E-16 -2.665906E-02  0.000000E+00
  9.900000E-01  1.952136E-03  5.000000E-01  9.999982E-01  1.814319E-03  0.000000E+00  6.985635E-04  3.632624E-03  1.304091E-16 -1.426419E-01  0.000000E+00
  9.900000E-01  2.030857E-03  5.000000E-01  9.999982E-01  1.893834E-03  0.000000E+00  5.775429E-03 -2.819748E-03  1.671309E-16 -5.143962E-02  0.000000E+00
  9.900000E-01  2.030857E-03  5.000000E-01  9.999982E-01  1.893834E-03  0.000000E+00  5.775429E-03 -2.819748E-03  1.671309E-16 -5.143962E-02  0.000000E+00
  9.897900E-01  2.083598E-03  5.000000E-01  9.997861E-01  1.947108E-03  0.000000E+00  7.513710E-03 -2.207749E-03  1.202880E-16  8.635420E-02  0.000000E+00
  9.891580E-01  2.241833E-03  5.000000E-01  9.991477E-01  2.106941E-03  0.000000E+00  4.606405E-03 -1.092938E-03  4.094486E-17  4.526549E-02  0.000000E+00
  9.881040E-01  2.505346E-03  5.000000E-01  9.980831E-01  2.373115E-03  0.000000E+00  3.791631E-03 -9.455541E-04  4.044034E-18  3.556895E-02  0.000000E+00
  9.866260E-01  2.873837E-03  5.000000E-01  9.965901E-01  2.745328E-03  0.000000E+00  3.570960E-03 -8.941216E-04 -4.443120E-18  3.620297E-02  0.000000E+00
  9.847200E-01  3.346900E-03  5.000000E-01  9.946649E-01  3.223169E-03  0.000000E+00  3.496112E-03 -8.647659E-04 -3.687936E-18  2.956270E-02  0.000000E+00
  9.823820E-01  3.923885E-03  5.000000E-01  9.923033E-01  3.805980E-03  0.000000E+00  3.579711E-03 -8.797769E-04 -1.908331E-18  1.987332E-02  0.000000E+00
  9.796080E-01  4.603833E-03  5.000000E-01  9.895013E-01  4.492796E-03  0.000000E+00  3.791202E-03 -9.251973E-04 -1.037347E-18  8.968798E-03  0.000000E+00
  9.763910E-01  5.385562E-03  5.000000E-01  9.862518E-01  5.282419E-03  0.000000E+00  4.084683E-03 -9.876100E-04 -3.573633E-19 -3.701731E-03  0.000000E+00
  9.727270E-01  6.267241E-03  5.000000E-01  9.825508E-01  6.173003E-03  0.000000E+00  4.431030E-03 -1.059580E-03 -6.172929E-19 -1.826941E-02  0.000000E+00
  9.686070E-01  7.246782E-03  5.000000E-01  9.783892E-01  7.162436E-03  0.000000E+00  4.814351E-03 -1.136352E-03 -1.246366E-18 -3.453809E-02  0.000000E+00
  9.640240E-01  8.321290E-03  5.000000E-01  9.737599E-01  8.247796E-03  0.000000E+00  5.227302E-03 -1.215105E-03 -1.258842E-18 -5.239049E-02  0.000000E+00
  9.589680E-01  9.487251E-03  5.000000E-01  9.686528E-01  9.425532E-03  0.000000E+00  5.667916E-03 -1.294321E-03 -7.859572E-19 -7.171426E-02  0.000000E+00
  9.534310E-01  1.074014E-02  5.000000E-01  9.630599E-01  1.069107E-02  0.000000E+00  6.136176E-03 -1.372782E-03 -5.498380E-20 -9.238343E-02  0.000000E+00
  9.474030E-01  1.207448E-02  5.000000E-01  9.569710E-01  1.203889E-02  0.000000E+00  6.631573E-03 -1.448724E-03 -3.916916E-20 -1.141655E-01  0.000000E+00
  9.408720E-01  1.348369E-02  5.000000E-01  9.503741E-01  1.346233E-02  0.000000E+00  7.151804E-03 -1.520099E-03  4.732715E-19 -1.368553E-01  0.000000E+00
  9.338280E-01  1.495973E-02  5.000000E-01  9.432589E-01  1.495328E-02  0.000000E+00  7.693161E-03 -1.584524E-03  1.056463E-18 -1.602259E-01  0.000000E+00
  9.262600E-01  1.649322E-02  5.000000E-01  9.356145E-01  1.650226E-02  0.000000E+00  8.250523E-03 -1.638905E-03  8.443129E-19 -1.839241E-01  0.000000E+00
  9.181550E-01  1.807296E-02  5.000000E-01  9.274276E-01  1.809795E-02  0.000000E+00  8.816670E-03 -1.679893E-03  4.501608E-20 -2.075760E-01  0.000000E+00
  9.095020E-01  1.968605E-02  5.000000E-01  9.186872E-01  1.972733E-02  0.000000E+00  9.382135E-03 -1.703779E-03 -1.567193E-19 -2.305909E-01  0.000000E+00
  9.002880E-01  2.131745E-02  5.000000E-01  9.093802E-01  2.137520E-02  0.000000E+00  9.934041E-03 -1.706718E-03 -5.824863E-20 -2.520493E-01  0.000000E+00
  8.905020E-01  2.295013E-02  5.000000E-01  8.994954E-01  2.302437E-02  0.000000E+00  1.045523E-02 -1.686502E-03 -4.288192E-19 -2.711352E-01  0.000000E+00
  8.801320E-01  2.456819E-02  5.000000E-01  8.890206E-01  2.465877E-02  0.000000E+00  1.092643E-02 -1.643113E-03 -8.932825E-19 -2.873475E-01  0.000000E+00
  8.691700E-01  2.615704E-02  5.000000E-01  8.779479E-01  2.626367E-02  0.000000E+00  1.132891E-02 -1.576885E-03 -6.346139E-19 -3.002185E-01  0.000000E+00
  8.691700E-01  2.615704E-02  5.000000E-01  8.779479E-01  2.626367E-02  0.000000E+00  1.132891E-02 -1.576885E-03 -6.346139E-19 -3.002185E-01  0.000000E+00
  8.576080E-01  2.770188E-02  5.000000E-01  8.662692E-01  2.782412E-02  0.000000E+00  1.164410E-02 -1.488184E-03 -2.501378E-19 -3.090761E-01  0.000000E+00
  8.454380E-01  2.918806E-02  5.000000E-01  8.539762E-01  2.932530E-02  0.000000E+00  1.185195E-02 -1.379281E-03  4.208716E-19 -3.130572E-01  0.000000E+00
  8.326580E-01  3.060290E-02  5.000000E-01  8.410672E-01  3.075443E-02  0.000000E+00  1.193194E-02 -1.255331E-03  9.097112E-19 -3.109975E-01  0.000000E+00
  8.192630E-01  3.193908E-02  5.000000E-01  8.275369E-01  3.210411E-02  0.000000E+00  1.186619E-02 -1.126289E-03  2.190956E-19 -3.019425E-01  0.000000E+00
  8.052550E-01  3.320103E-02  5.000000E-01  8.133874E-01  3.337880E-02  0.000000E+00  1.164592E-02 -1.007527E-03 -7.362773E-20 -2.866355E-01  0.000000E+00
  7.906370E-01  3.441228E-02  5.000000E-01  7.986218E-01  3.460228E-02  0.000000E+00  1.128077E-02 -9.162594E-04 -2.045467E-19 -2.685973E-01  0.000000E+00
  7.754120E-01  3.562173E-02  5.000000E-01  7.832430E-01  3.582395E-02  0.000000E+00  1.080588E-02 -8.604037E-04 -9.566498E-20 -2.518651E-01  0.000000E+00
  7.595880E-01  3.688427E-02  5.000000E-01  7.672592E-01  3.709923E-02  0.000000E+00  1.027309E-02 -8.296123E-04 -8.187553E-20 -2.371637E-01  0.000000E+00
  7.431760E-01  3.822692E-02  5.000000E-01  7.506815E-01  3.845544E-02  0.000000E+00  9.724884E-03 -8.136842E-04 -5.075329E-19 -2.241146E-01  0.000000E+00
  7.261880E-01  3.968180E-02  5.000000E-01  7.335219E-01  3.992502E-02  0.000000E+00  9.188039E-03 -8.137826E-04 -8.130543E-19 -2.135378E-01  0.000000E+00
  7.086430E-01  4.129073E-02  5.000000E-01  7.157997E-01  4.155020E-02  0.000000E+00  8.686991E-03 -8.324754E-04 -1.371761E-18 -2.064122E-01  0.000000E+00
  6.905640E-01  4.310304E-02  5.000000E-01  6.975381E-01  4.338081E-02  0.000000E+00  8.251549E-03 -8.720897E-04 -2.943880E-19 -2.049321E-01  0.000000E+00
  6.719770E-01  4.517285E-02  5.000000E-01  6.787634E-01  4.547152E-02  0.000000E+00  7.922574E-03 -9.355409E-04  3.378786E-19 -2.131189E-01  0.000000E+00
  6.529150E-01  4.755433E-02  5.000000E-01  6.595089E-01  4.787706E-02  0.000000E+00  7.753740E-03 -1.021183E-03  3.831814E-20 -2.337742E-01  0.000000E+00
  6.334180E-01  5.025528E-02  5.000000E-01  6.398150E-01  5.060529E-02  0.000000E+00  7.797071E-03 -1.121550E-03  9.752488E-19 -2.665357E-01  0.000000E+00
  6.135280E-01  5.321949E-02  5.000000E-01  6.197241E-01  5.359943E-02  0.000000E+00  8.080368E-03 -1.232098E-03  1.074025E-18 -3.110828E-01  0.000000E+00
  5.932910E-01  5.636900E-02  5.000000E-01  5.992828E-01  5.678075E-02  0.000000E+00  8.602696E-03 -1.348152E-03  7.393664E-19 -3.667817E-01  0.000000E+00
  5.727570E-01  5.960570E-02  5.000000E-01  5.785414E-01  6.005013E-02  0.000000E+00  9.335329E-03 -1.454839E-03 -3.250628E-19 -4.289306E-01  0.000000E+00
  5.519810E-01  6.281200E-02  5.000000E-01  5.575556E-01  6.328882E-02  0.000000E+00  1.021351E-02 -1.530140E-03  6.061419E-19 -4.898181E-01  0.000000E+00
  5.310180E-01  6.586894E-02  5.000000E-01  5.363809E-01  6.637664E-02  0.000000E+00  1.113926E-02 -1.567427E-03  1.539442E-18 -5.463187E-01  0.000000E+00
  5.099250E-01  6.873712E-02  5.000000E-01  5.150748E-01  6.927378E-02  0.000000E+00  1.202814E-02 -1.578839E-03  4.928441E-20 -6.008306E-01  0.000000E+00
  4.887640E-01  7.142187E-02  5.000000E-01  4.937001E-01  7.198564E-02  0.000000E+00  1.285908E-02 -1.571003E-03 -6.718293E-19 -6.548073E-01  0.000000E+00
  4.675910E-01  7.391696E-02  5.000000E-01  4.723133E-01  7.450593E-02  0.000000E+00  1.366888E-02 -1.543958E-03 -2.313733E-19 -7.101067E-01  0.000000E+00
  7.860720E-05 -2.688511E-04  5.000000E-01  7.940615E-05 -4.290988E-04  0.000000E+00 -7.708923E-04  5.592212E-03  3.183679E-14  1.085012E+00  0.000000E+00
  3.989240E-04 -7.459885E-04  5.000000E-01  4.029579E-04 -9.110549E-04  0.000000E+00  5.791966E-03 -4.412311E-03  2.458798E-14  1.035508E+00  0.000000E+00
  1.196920E-03 -1.293975E-03  5.000000E-01  1.209013E-03 -1.464576E-03  0.000000E+00  1.197906E-02 -6.264129E-03  1.438952E-14  8.135291E-01  0.000000E+00
  2.563580E-03 -1.836793E-03  5.000000E-01  2.589475E-03 -2.012875E-03  0.000000E+00  1.398137E-02 -4.657883E-03  5.259685E-15  6.442423E-01  0.000000E+00
  4.492740E-03 -2.350343E-03  5.000000E-01  4.538118E-03 -2.531612E-03  0.000000E+00  1.388639E-02 -3.244733E-03 -9.591001E-17  5.667051E-01  0.000000E+00
  6.952190E-03 -2.843196E-03  5.000000E-01  7.022407E-03 -3.029443E-03  0.000000E+00  1.358717E-02 -2.510445E-03 -1.768486E-15  5.261865E-01  0.000000E+00
  9.910730E-03 -3.344229E-03  5.000000E-01  1.001083E-02 -3.535536E-03  0.000000E+00  1.359152E-02 -2.216505E-03 -1.454886E-15  4.917963E-01  0.000000E+00
  1.334950E-02 -3.884521E-03  5.000000E-01  1.348432E-02 -4.081284E-03  0.000000E+00  1.383202E-02 -2.077329E-03 -6.876608E-16  4.507269E-01  0.000000E+00
  1.728780E-02 -4.450786E-03  5.000000E-01  1.746240E-02 -4.653268E-03  0.000000E+00  1.408182E-02 -1.878140E-03 -1.633967E-16  4.002063E-01  0.000000E+00
  2.175590E-02 -5.000840E-03  5.000000E-01  2.197562E-02 -5.208877E-03  0.000000E+00  1.418144E-02 -1.581044E-03  4.117105E-17  3.519519E-01  0.000000E+00
  2.676920E-02 -5.500159E-03  5.000000E-01  2.703955E-02 -5.713238E-03  0.000000E+00  1.411606E-02 -1.259162E-03  6.635470E-17  3.174156E-01  0.000000E+00
  3.232800E-02 -5.936619E-03  5.000000E-01  3.265449E-02 -6.154107E-03  0.000000E+00  1.394644E-02 -9.790995E-04  3.774205E-17  2.974846E-01  0.000000E+00
  3.842930E-02 -6.313639E-03  5.000000E-01  3.881741E-02 -6.534934E-03  0.000000E+00  1.373409E-02 -7.647940E-04  1.249538E-17  2.863452E-01  0.000000E+00
  4.507220E-02 -6.642586E-03  5.000000E-01  4.552740E-02 -6.867203E-03  0.000000E+00  1.353382E-02 -6.273723E-04  1.399663E-18  2.799071E-01  0.000000E+00
  5.225680E-02 -6.952072E-03  5.000000E-01  5.278456E-02 -7.179815E-03  0.000000E+00  1.339470E-02 -5.680750E-04 -1.144052E-18  2.760434E-01  0.000000E+00
  5.998640E-02 -7.275043E-03  5.000000E-01  6.059222E-02 -7.506047E-03  0.000000E+00  1.332407E-02 -5.519782E-04 -5.669836E-19  2.697667E-01  0.000000E+00
  6.827110E-02 -7.616401E-03  5.000000E-01  6.896059E-02 -7.850853E-03  0.000000E+00  1.328872E-02 -5.387367E-04  2.516563E-19  2.583013E-01  0.000000E+00
  7.712280E-02 -7.969353E-03  5.000000E-01  7.790168E-02 -8.207369E-03  0.000000E+00  1.325657E-02 -5.182766E-04  1.686999E-19  2.447348E-01  0.000000E+00
  8.655260E-02 -8.330024E-03  5.000000E-01  8.742672E-02 -8.571683E-03  0.000000E+00  1.320617E-02 -4.905177E-04  1.197864E-19  2.319159E-01  0.000000E+00
  9.657140E-02 -8.691175E-03  5.000000E-01  9.754670E-02 -8.936481E-03  0.000000E+00  1.311424E-02 -4.468957E-04  3.212864E-19  2.196369E-01  0.000000E+00
  1.071900E-01 -9.032396E-03  5.000000E-01  1.082725E-01 -9.281149E-03  0.000000E+00  1.296616E-02 -3.867976E-04  2.080392E-19  2.083922E-01  0.000000E+00
  1.184180E-01 -9.340637E-03  5.000000E-01  1.196139E-01 -9.592502E-03  0.000000E+00  1.277462E-02 -3.293558E-04 -1.500754E-19  2.006832E-01  0.000000E+00
  1.302610E-01 -9.625226E-03  5.000000E-01  1.315765E-01 -9.879966E-03  0.000000E+00  1.256929E-02 -2.937313E-04 -2.689954E-19  1.968913E-01  0.000000E+00
  1.427230E-01 -9.907908E-03  5.000000E-01  1.441644E-01 -1.016550E-02  0.000000E+00  1.237914E-02 -2.877105E-04 -1.976932E-19  1.949186E-01  0.000000E+00
  1.427230E-01 -9.907908E-03  5.000000E-01  1.441644E-01 -1.016550E-02  0.000000E+00  1.237914E-02 -2.877105E-04 -1.976932E-19  1.949186E-01  0.000000E+00
  1.558070E-01 -1.021960E-02  5.000000E-01  1.573805E-01 -1.048034E-02  0.000000E+00  1.222707E-02 -3.072353E-04 -1.520048E-19  1.920722E-01  0.000000E+00
  1.695140E-01 -1.058261E-02  5.000000E-01  1.712260E-01 -1.084702E-02  0.000000E+00  1.213739E-02 -3.422031E-04 -2.340110E-19  1.863453E-01  0.000000E+00
  1.838420E-01 -1.101133E-02  5.000000E-01  1.856987E-01 -1.128007E-02  0.000000E+00  1.215195E-02 -3.895762E-04 -3.514103E-19  1.774144E-01  0.000000E+00
  1.987870E-01 -1.152182E-02  5.000000E-01  2.007946E-01 -1.179571E-02  0.000000E+00  1.233475E-02 -4.565739E-04  3.778642E-20  1.653578E-01  0.000000E+00
  2.143420E-01 -1.214024E-02  5.000000E-01  2.165067E-01 -1.242038E-02  0.000000E+00  1.275453E-02 -5.541552E-04  3.545008E-19  1.490759E-01  0.000000E+00
  2.304940E-01 -1.289896E-02  5.000000E-01  2.328218E-01 -1.318676E-02  0.000000E+00  1.344214E-02 -6.788896E-04  1.240855E-19  1.250097E-01  0.000000E+00
  2.472290E-01 -1.380021E-02  5.000000E-01  2.497258E-01 -1.409711E-02  0.000000E+00  1.434202E-02 -7.998316E-04 -5.511520E-19  8.933918E-02  0.000000E+00
  2.645310E-01 -1.479726E-02  5.000000E-01  2.672026E-01 -1.510424E-02  0.000000E+00  1.526985E-02 -8.412802E-04 -8.376068E-19  3.997717E-02  0.000000E+00
  2.823750E-01 -1.574011E-02  5.000000E-01  2.852268E-01 -1.605661E-02  0.000000E+00  1.591178E-02 -6.904869E-04 -6.984821E-19 -2.078230E-02  0.000000E+00
  3.007320E-01 -1.636934E-02  5.000000E-01  3.037692E-01 -1.669219E-02  0.000000E+00  1.591419E-02 -2.706993E-04 -4.845437E-19 -8.196899E-02  0.000000E+00
  3.195690E-01 -1.635888E-02  5.000000E-01  3.227964E-01 -1.668162E-02  0.000000E+00  1.504340E-02  3.722075E-04 -1.236013E-19 -1.271588E-01  0.000000E+00
  3.388440E-01 -1.536995E-02  5.000000E-01  3.422661E-01 -1.568271E-02  0.000000E+00  1.339728E-02  9.992543E-04  2.390538E-19 -1.312657E-01  0.000000E+00
  3.585140E-01 -1.335802E-02  5.000000E-01  3.621347E-01 -1.365046E-02  0.000000E+00  1.141472E-02  1.347651E-03  6.066133E-19 -7.652680E-02  0.000000E+00
  3.785290E-01 -1.061026E-02  5.000000E-01  3.823518E-01 -1.087495E-02  0.000000E+00  9.560686E-03  1.389254E-03 -1.854758E-19  1.684963E-02  0.000000E+00
  3.988350E-01 -7.474223E-03  5.000000E-01  4.028629E-01 -7.707239E-03  0.000000E+00  8.123774E-03  1.250342E-03  3.277168E-19  1.122543E-01  0.000000E+00
  4.193750E-01 -4.334661E-03  5.000000E-01  4.236104E-01 -4.535971E-03  0.000000E+00  7.236814E-03  1.037512E-03  7.662378E-19  1.899348E-01  0.000000E+00
  4.400850E-01 -1.578448E-03  5.000000E-01  4.445295E-01 -1.751921E-03  0.000000E+00  6.917955E-03  8.060242E-04 -4.370885E-19  2.447860E-01  0.000000E+00
  4.609060E-01  4.949691E-04  5.000000E-01  4.655608E-01  3.424353E-04  0.000000E+00  7.081574E-03  5.929392E-04 -3.317443E-19  2.708850E-01  0.000000E+00
  4.818030E-01  1.923514E-03  5.000000E-01  4.866688E-01  1.785408E-03  0.000000E+00  7.581702E-03  4.104902E-04 -4.740358E-19  2.700819E-01  0.000000E+00
  5.027520E-01  2.788041E-03  5.000000E-01  5.078294E-01  2.658665E-03  0.000000E+00  8.261582E-03  2.559266E-04 -6.491618E-19  2.544774E-01  0.000000E+00
  5.237130E-01  3.240691E-03  5.000000E-01  5.290021E-01  3.115887E-03  0.000000E+00  8.942232E-03  1.670220E-04 -7.693680E-20  2.285665E-01  0.000000E+00
  5.446170E-01  3.568674E-03  5.000000E-01  5.501172E-01  3.447182E-03  0.000000E+00  9.446784E-03  1.911131E-04  5.007326E-19  1.952564E-01  0.000000E+00
  5.653940E-01  4.080715E-03  5.000000E-01  5.711040E-01  3.964395E-03  0.000000E+00  9.678409E-03  3.033876E-04  5.915459E-19  1.685327E-01  0.000000E+00
  4.675910E-01  7.391696E-02  5.000000E-01  4.723133E-01  7.450593E-02  0.000000E+00  1.366888E-02 -1.543958E-03 -2.313733E-19 -7.101067E-01  0.000000E+00
  4.464640E-01  7.620557E-02  5.000000E-01  4.509729E-01  7.681765E-02  0.000000E+00  1.452721E-02 -1.504236E-03  6.991365E-19 -7.734201E-01  0.000000E+00
  4.254410E-01  7.828536E-02  5.000000E-01  4.297376E-01  7.891844E-02  0.000000E+00  1.553222E-02 -1.442883E-03  1.555756E-19 -8.508937E-01  0.000000E+00
  4.045840E-01  8.010296E-02  5.000000E-01  4.086700E-01  8.075440E-02  0.000000E+00  1.677659E-02 -1.321943E-03 -3.334867E-19 -9.423449E-01  0.000000E+00
  3.839530E-01  8.156645E-02  5.000000E-01  3.878306E-01  8.223267E-02  0.000000E+00  1.828587E-02 -1.095156E-03 -5.260855E-19 -1.040394E+00  0.000000E+00
  3.636060E-01  8.257742E-02  5.000000E-01  3.672781E-01  8.325385E-02  0.000000E+00  1.998525E-02 -7.168486E-04 -7.156984E-19 -1.127656E+00  0.000000E+00
  3.435960E-01  8.304535E-02  5.000000E-01  3.470660E-01  8.372651E-02  0.000000E+00  2.168469E-02 -1.542350E-04 -2.228270E-19 -1.180435E+00  0.000000E+00
  3.239710E-01  8.289534E-02  5.000000E-01  3.272429E-01  8.357498E-02  0.000000E+00  2.307308E-02  5.463950E-04 -1.224579E-19 -1.186481E+00  0.000000E+00
  3.047740E-01  8.214933E-02  5.000000E-01  3.078520E-01  8.282144E-02  0.000000E+00  2.383957E-02  1.221858E-03 -1.856389E-19 -1.157503E+00  0.000000E+00
  2.860450E-01  8.095963E-02  5.000000E-01  2.889338E-01  8.161972E-02  0.000000E+00  2.392350E-02  1.742685E-03 -3.185167E-19 -1.111835E+00  0.000000E+00
  2.678190E-01  7.946038E-02  5.000000E-01  2.705238E-01  8.010534E-02  0.000000E+00  2.353250E-02  2.098158E-03  1.723581E-19 -1.062247E+00  0.000000E+00
  2.501300E-01  7.775818E-02  5.000000E-01  2.526561E-01  7.838595E-02  0.000000E+00  2.295600E-02  2.325272E-03  1.267098E-18 -1.021493E+00  0.000000E+00
  2.330040E-01  7.593320E-02  5.000000E-01  2.353572E-01  7.654253E-02  0.000000E+00  2.245219E-02  2.477995E-03  3.969407E-19 -1.002242E+00  0.000000E+00
  2.164660E-01  7.403957E-02  5.000000E-01  2.186521E-01  7.462978E-02  0.000000E+00  2.221822E-02  2.620291E-03 -5.451890E-19 -1.012124E+00  0.000000E+00
  2.005340E-01  7.210347E-02  5.000000E-01  2.025592E-01  7.267412E-02  0.000000E+00  2.241140E-02  2.869336E-03 -3.789375E-19 -1.040780E+00  0.000000E+00
  1.852230E-01  7.004828E-02  5.000000E-01  1.870936E-01  7.059818E-02  0.000000E+00  2.305827E-02  3.329258E-03 -2.081154E-19 -1.067365E+00  0.000000E+00
  1.705440E-01  6.778756E-02  5.000000E-01  1.722664E-01  6.831463E-02  0.000000E+00  2.397442E-02  3.974438E-03  6.240356E-19 -1.083346E+00  0.000000E+00
  1.565000E-01  6.530029E-02  5.000000E-01  1.580805E-01  6.580224E-02  0.000000E+00  2.490676E-02  4.714889E-03 -1.291140E-18 -1.091795E+00  0.000000E+00
  1.430940E-01  6.260279E-02  5.000000E-01  1.445391E-01  6.307750E-02  0.000000E+00  2.569798E-02  5.504710E-03 -2.785353E-18 -1.093892E+00  0.000000E+00
  1.303270E-01  5.970610E-02  5.000000E-01  1.316432E-01  6.015155E-02  0.000000E+00  2.630843E-02  6.369168E-03 -9.575996E-19 -1.080541E+00  0.000000E+00
  1.182110E-01  5.659364E-02  5.000000E-01  1.194048E-01  5.700766E-02  0.000000E+00  2.670895E-02  7.313437E-03  5.003356E-19 -1.039398E+00  0.000000E+00
  1.067560E-01  5.326788E-02  5.000000E-01  1.078342E-01  5.364831E-02  0.000000E+00  2.681598E-02  8.259643E-03 -4.053921E-19 -9.659827E-01  0.000000E+00
  9.596750E-02  4.975498E-02  5.000000E-01  9.693670E-02  5.009993E-02  0.000000E+00  2.653161E-02  9.038866E-03 -1.859489E-18 -8.730149E-01  0.000000E+00
  8.582800E-02  4.614261E-02  5.000000E-01  8.669480E-02  4.645108E-02  0.000000E+00  2.586988E-02  9.523062E-03 -9.216569E-20 -7.817978E-01  0.000000E+00
  8.582800E-02  4.614261E-02  5.000000E-01  8.669480E-02  4.645108E-02  0.000000E+00  2.586988E-02  9.523062E-03 -9.216569E-20 -7.817978E-01  0.000000E+00
  7.631050E-02  4.252132E-02  5.000000E-01  7.708118E-02  4.279322E-02  0.000000E+00  2.501013E-02  9.810928E-03  3.026746E-18 -6.971876E-01  0.000000E+00
  6.740780E-02  3.892092E-02  5.000000E-01  6.808857E-02  3.915646E-02  0.000000E+00  2.412690E-02  1.005677E-02  3.617529E-18 -6.131972E-01  0.000000E+00
  5.911740E-02  3.535910E-02  5.000000E-01  5.971444E-02  3.555867E-02  0.000000E+00  2.328087E-02  1.028853E-02  1.731331E-18 -5.283012E-01  0.000000E+00
  5.143150E-02  3.186476E-02  5.000000E-01  5.195092E-02  3.202903E-02  0.000000E+00  2.246515E-02  1.047701E-02  6.637168E-19 -4.437520E-01  0.000000E+00
  4.433770E-02  2.847044E-02  5.000000E-01  4.478548E-02  2.860044E-02  0.000000E+00  2.165624E-02  1.060269E-02  9.289060E-19 -3.614135E-01  0.000000E+00
  3.782240E-02  2.520567E-02  5.000000E-01  3.820438E-02  2.530269E-02  0.000000E+00  2.083883E-02  1.066896E-02  3.466584E-18 -2.836307E-01  0.000000E+00
  3.187460E-02  2.209270E-02  5.000000E-01  3.219651E-02  2.215828E-02  0.000000E+00  2.001459E-02  1.069497E-02  1.169560E-17 -2.127488E-01  0.000000E+00
  2.648400E-02  1.914985E-02  5.000000E-01  2.675147E-02  1.918572E-02  0.000000E+00  1.919653E-02  1.072665E-02  2.796944E-17 -1.454938E-01  0.000000E+00
  2.164990E-02  1.638482E-02  5.000000E-01  2.186855E-02  1.639276E-02  0.000000E+00  1.837044E-02  1.080090E-02  3.940540E-17 -7.095755E-02  0.000000E+00
  1.737670E-02  1.380271E-02  5.000000E-01  1.755220E-02  1.378457E-02  0.000000E+00  1.748046E-02  1.083641E-02 -8.640654E-18  1.438641E-02  0.000000E+00
  1.364080E-02  1.142519E-02  5.000000E-01  1.377857E-02  1.138304E-02  0.000000E+00  1.651594E-02  1.069924E-02 -2.197625E-16  9.832602E-02  0.000000E+00
  1.039090E-02  9.279192E-03  5.000000E-01  1.049584E-02  9.215372E-03  0.000000E+00  1.559315E-02  1.043641E-02 -6.990925E-16  1.673763E-01  0.000000E+00
  7.586340E-03  7.374983E-03  5.000000E-01  7.662961E-03  7.291932E-03  0.000000E+00  1.490807E-02  1.034241E-02 -1.375287E-15  2.223257E-01  0.000000E+00
  5.226210E-03  5.701985E-03  5.000000E-01  5.278996E-03  5.602038E-03  0.000000E+00  1.462615E-02  1.077842E-02 -1.697999E-15  2.722483E-01  0.000000E+00
  3.324300E-03  4.246559E-03  5.000000E-01  3.357878E-03  4.131913E-03  0.000000E+00  1.481094E-02  1.206418E-02 -4.739922E-16  3.234905E-01  0.000000E+00
  1.883580E-03  3.003637E-03  5.000000E-01  1.902608E-03  2.876438E-03  0.000000E+00  1.525093E-02  1.454307E-02  3.694396E-15  3.902478E-01  0.000000E+00
  8.951490E-04  1.975223E-03  5.000000E-01  9.041944E-04  1.837638E-03  0.000000E+00  1.500087E-02  1.825630E-02  1.120200E-14  5.018227E-01  0.000000E+00
  3.201820E-04  1.170568E-03  5.000000E-01  3.234207E-04  1.024857E-03  0.000000E+00  1.235542E-02  2.173491E-02  2.043294E-14  6.748918E-01  0.000000E+00
  6.852390E-05  5.999108E-04  5.000000E-01  6.922102E-05  4.484368E-04  0.000000E+00  7.100236E-03  2.154567E-02  2.845135E-14  8.455241E-01  0.000000E+00
  4.217600E-06  2.652947E-04  5.000000E-01  4.265278E-06  1.104414E-04  0.000000E+00  2.234555E-03  1.783866E-02  3.297143E-14  8.783933E-01  0.000000E+00
 -5.032520E-09  1.559575E-04  5.000000E-01  0.000000E+00  0.000000E+00  0.000000E+00 -5.318367E-04  1.843745E-02  3.444943E-14  8.277777E-01  0.000000E+00
  5.154440E-06  4.718323E-05  5.000000E-01  5.211579E-06 -1.098728E-04  0.000000E+00 -2.275678E-03  1.712233E-02  3.447950E-14  9.204527E-01  0.000000E+00