 Title = "ADflow Slice Data"
Variables =  "CoordinateX"  "CoordinateY"  "CoordinateZ"  "XoC"  "YoC"  "ZoC" "VelocityX" "VelocityY" "VelocityZ" "CoefPressure" "Mach" 
Zone T= "Slice_0001 None Absolute Regular z = 0.50000000"
 Nodes =          192  Elements=          184  ZONETYPE=FELINESEG
 DATAPACKING=POINT
  5.653940E-01 -2.782301E-03  5.000000E-01  5.711040E-01 -2.864324E-03  0.000000E+00  9.443072E-03  6.848236E-04  4.486852E-19  1.463442E-01  0.000000E+00
  5.859770E-01 -1.226755E-03  5.000000E-01  5.918948E-01 -1.293069E-03  0.000000E+00  9.062408E-03  7.033270E-04  2.273279E-19  1.597232E-01  0.000000E+00
  6.063060E-01  3.950128E-04  5.000000E-01  6.124291E-01  3.450774E-04  0.000000E+00  8.711938E-03  6.998503E-04  3.455561E-19  1.790507E-01  0.000000E+00
  6.263240E-01  2.013865E-03  5.000000E-01  6.326493E-01  1.980278E-03  0.000000E+00  8.440212E-03  6.669224E-04  4.555721E-19  1.998236E-01  0.000000E+00
  6.459860E-01  3.530253E-03  5.000000E-01  6.525099E-01  3.511980E-03  0.000000E+00  8.271979E-03  6.040067E-04  1.902498E-19  2.188936E-01  0.000000E+00
  6.652460E-01  4.856279E-03  5.000000E-01  6.719644E-01  4.851398E-03  0.000000E+00  8.185525E-03  5.296237E-04  1.271236E-18  2.327433E-01  0.000000E+00
  6.840650E-01  5.991385E-03  5.000000E-01  6.909734E-01  5.997968E-03  0.000000E+00  8.109978E-03  4.789695E-04  9.496862E-19  2.380275E-01  0.000000E+00
  7.024070E-01  7.048972E-03  5.000000E-01  7.095007E-01  7.066236E-03  0.000000E+00  7.969669E-03  4.649110E-04 -6.346105E-19  2.387312E-01  0.000000E+00
  7.202400E-01  8.104483E-03  5.000000E-01  7.275138E-01  8.132406E-03  0.000000E+00  7.728062E-03  4.681298E-04 -4.424940E-19  2.433256E-01  0.000000E+00
  7.375350E-01  9.179528E-03  5.000000E-01  7.449834E-01  9.218308E-03  0.000000E+00  7.389460E-03  4.678705E-04  2.314686E-19  2.548612E-01  0.000000E+00
  7.542690E-01  1.026018E-02  5.000000E-01  7.618864E-01  1.030987E-02  0.000000E+00  6.988335E-03  4.534744E-04 -7.384516E-20  2.717133E-01  0.000000E+00
  7.704220E-01  1.131240E-02  5.000000E-01  7.782025E-01  1.137272E-02  0.000000E+00  6.577329E-03  4.223152E-04  1.964881E-20  2.907794E-01  0.000000E+00
  7.859770E-01  1.229534E-02  5.000000E-01  7.939146E-01  1.236559E-02  0.000000E+00  6.222131E-03  3.663677E-04  3.056871E-19  3.110977E-01  0.000000E+00
  8.009220E-01  1.311070E-02  5.000000E-01  8.090106E-01  1.318918E-02  0.000000E+00  5.988659E-03  2.761224E-04  6.826593E-19  3.323037E-01  0.000000E+00
  8.152480E-01  1.364627E-02  5.000000E-01  8.234812E-01  1.373016E-02  0.000000E+00  5.907694E-03  1.625885E-04  7.540493E-19  3.488385E-01  0.000000E+00
  8.289490E-01  1.388426E-02  5.000000E-01  8.373206E-01  1.397056E-02  0.000000E+00  5.964204E-03  4.548014E-05  1.548795E-19  3.560710E-01  0.000000E+00
  8.420260E-01  1.385828E-02  5.000000E-01  8.505297E-01  1.394431E-02  0.000000E+00  6.123176E-03 -6.652971E-05 -2.504316E-19  3.559616E-01  0.000000E+00
  8.544790E-01  1.361684E-02  5.000000E-01  8.631084E-01  1.370043E-02  0.000000E+00  6.349051E-03 -1.714196E-04 -5.842176E-19  3.518800E-01  0.000000E+00
  8.663160E-01  1.321108E-02  5.000000E-01  8.750650E-01  1.329058E-02  0.000000E+00  6.609746E-03 -2.681510E-04 -1.015187E-19  3.455459E-01  0.000000E+00
  8.775420E-01  1.268791E-02  5.000000E-01  8.864044E-01  1.276212E-02  0.000000E+00  6.877364E-03 -3.549865E-04  5.958333E-19  3.377329E-01  0.000000E+00
  8.881660E-01  1.208819E-02  5.000000E-01  8.971356E-01  1.215635E-02  0.000000E+00  7.130514E-03 -4.300148E-04  1.713535E-19  3.290736E-01  0.000000E+00
  8.981970E-01  1.144580E-02  5.000000E-01  9.072679E-01  1.150747E-02  0.000000E+00  7.357499E-03 -4.943386E-04  4.105880E-19  3.203869E-01  0.000000E+00
  9.076460E-01  1.078235E-02  5.000000E-01  9.168124E-01  1.083732E-02  0.000000E+00  7.558586E-03 -5.538539E-04  6.336641E-19  3.126110E-01  0.000000E+00
  9.165220E-01  1.010571E-02  5.000000E-01  9.257780E-01  1.015385E-02  0.000000E+00  7.742155E-03 -6.140128E-04  1.246857E-19  3.057869E-01  0.000000E+00
  9.165220E-01  1.010571E-02  5.000000E-01  9.257780E-01  1.015385E-02  0.000000E+00  7.742155E-03 -6.140128E-04  1.246857E-19  3.057869E-01  0.000000E+00
  9.248360E-01  9.421215E-03  5.000000E-01  9.341760E-01  9.462435E-03  0.000000E+00  7.917454E-03 -6.764312E-04  1.379714E-19  2.991416E-01  0.000000E+00
  9.325990E-01  8.734277E-03  5.000000E-01  9.420174E-01  8.768560E-03  0.000000E+00  8.092096E-03 -7.416933E-04 -4.387409E-19  2.922662E-01  0.000000E+00
  9.398210E-01  8.049940E-03  5.000000E-01  9.493123E-01  8.077312E-03  0.000000E+00  8.272754E-03 -8.106099E-04 -7.886793E-19  2.851043E-01  0.000000E+00
  9.465130E-01  7.373092E-03  5.000000E-01  9.560719E-01  7.393628E-03  0.000000E+00  8.465235E-03 -8.839428E-04 -4.455698E-19  2.775736E-01  0.000000E+00
  9.526870E-01  6.708619E-03  5.000000E-01  9.623082E-01  6.722445E-03  0.000000E+00  8.674106E-03 -9.623177E-04 -2.274772E-19  2.695470E-01  0.000000E+00
  9.583540E-01  6.061567E-03  5.000000E-01  9.680325E-01  6.068858E-03  0.000000E+00  8.902728E-03 -1.046183E-03  5.223162E-20  2.609107E-01  0.000000E+00
  9.635240E-01  5.437220E-03  5.000000E-01  9.732547E-01  5.438206E-03  0.000000E+00  9.153773E-03 -1.135659E-03 -4.423366E-21  2.515560E-01  0.000000E+00
  9.682080E-01  4.841055E-03  5.000000E-01  9.779860E-01  4.836020E-03  0.000000E+00  9.430852E-03 -1.231030E-03  1.347587E-20  2.414387E-01  0.000000E+00
  9.724140E-01  4.278752E-03  5.000000E-01  9.822345E-01  4.268039E-03  0.000000E+00  9.740892E-03 -1.332845E-03 -7.109380E-20  2.305599E-01  0.000000E+00
  9.761510E-01  3.756057E-03  5.000000E-01  9.860092E-01  3.740065E-03  0.000000E+00  1.009431E-02 -1.441566E-03 -4.428858E-19  2.188927E-01  0.000000E+00
  9.794290E-01  3.278602E-03  5.000000E-01  9.893203E-01  3.257788E-03  0.000000E+00  1.049807E-02 -1.557707E-03 -5.668261E-19  2.064507E-01  0.000000E+00
  9.822540E-01  2.851918E-03  5.000000E-01  9.921738E-01  2.826795E-03  0.000000E+00  1.093753E-02 -1.679420E-03 -8.113043E-20  1.934868E-01  0.000000E+00
  9.846330E-01  2.481135E-03  5.000000E-01  9.945769E-01  2.452267E-03  0.000000E+00  1.135780E-02 -1.795608E-03  1.127302E-18  1.812494E-01  0.000000E+00
  9.865710E-01  2.170900E-03  5.000000E-01  9.965344E-01  2.138900E-03  0.000000E+00  1.162544E-02 -1.872347E-03  2.173771E-18  1.686015E-01  0.000000E+00
  9.880740E-01  1.925203E-03  5.000000E-01  9.980526E-01  1.890721E-03  0.000000E+00  1.152320E-02 -1.901839E-03 -2.329294E-18  1.493273E-01  0.000000E+00
  9.891450E-01  1.747292E-03  5.000000E-01  9.991344E-01  1.711014E-03  0.000000E+00  1.172293E-02 -2.039200E-03 -2.539895E-17  1.502548E-01  0.000000E+00
  9.897860E-01  1.639576E-03  5.000000E-01  9.997819E-01  1.602210E-03  0.000000E+00  1.508687E-02 -2.063342E-03 -7.296535E-17  1.975017E-01  0.000000E+00
  9.900000E-01  1.603505E-03  5.000000E-01  9.999981E-01  1.565774E-03  0.000000E+00  1.052792E-02 -4.451923E-03 -7.742002E-17 -4.495424E-02  0.000000E+00
  9.900000E-01  1.682215E-03  5.000000E-01  9.999981E-01  1.645279E-03  0.000000E+00  1.054377E-03 -1.481323E-02  6.729644E-18 -1.820363E-01  0.000000E+00
  9.900000E-01  1.760935E-03  5.000000E-01  9.999981E-01  1.724794E-03  0.000000E+00 -5.249876E-04 -1.394175E-02  8.816614E-17 -6.989760E-03  0.000000E+00
  9.900000E-01  1.839656E-03  5.000000E-01  9.999981E-01  1.804310E-03  0.000000E+00 -2.964922E-04  2.328873E-03  1.038738E-16 -1.166097E-02  0.000000E+00
  9.900000E-01  1.918366E-03  5.000000E-01  9.999981E-01  1.883815E-03  0.000000E+00  7.046616E-04  3.766025E-03  1.308368E-16 -1.284282E-01  0.000000E+00
  9.900000E-01  1.997086E-03  5.000000E-01  9.999981E-01  1.963330E-03  0.000000E+00  5.816310E-03 -2.612885E-03  1.681621E-16 -3.547131E-02  0.000000E+00
  9.900000E-01  1.997086E-03  5.000000E-01  9.999981E-01  1.963330E-03  0.000000E+00  5.816310E-03 -2.612885E-03  1.681621E-16 -3.547131E-02  0.000000E+00
  9.897900E-01  2.042741E-03  5.000000E-01  9.997860E-01  2.009446E-03  0.000000E+00  7.560667E-03 -1.970861E-03  1.212803E-16  1.048016E-01  0.000000E+00
  9.891580E-01  2.179662E-03  5.000000E-01  9.991476E-01  2.147750E-03  0.000000E+00  4.669832E-03 -9.509859E-04  4.164348E-17  6.289966E-02  0.000000E+00
  9.881040E-01  2.407669E-03  5.000000E-01  9.980829E-01  2.378059E-03  0.000000E+00  3.912202E-03 -8.436196E-04  4.505325E-18  5.330691E-02  0.000000E+00
  9.866260E-01  2.726465E-03  5.000000E-01  9.965900E-01  2.700075E-03  0.000000E+00  3.723517E-03 -8.072173E-04 -3.850289E-18  5.515482E-02  0.000000E+00
  9.847200E-01  3.135626E-03  5.000000E-01  9.946647E-01  3.113368E-03  0.000000E+00  3.643744E-03 -7.794458E-04 -3.319555E-18  4.999775E-02  0.000000E+00
  9.823820E-01  3.634549E-03  5.000000E-01  9.923031E-01  3.617330E-03  0.000000E+00  3.696672E-03 -7.854908E-04 -2.053411E-18  4.208627E-02  0.000000E+00
  9.796080E-01  4.222418E-03  5.000000E-01  9.895011E-01  4.211136E-03  0.000000E+00  3.859754E-03 -8.143685E-04 -9.058851E-19  3.339960E-02  0.000000E+00
  9.763910E-01  4.898222E-03  5.000000E-01  9.862516E-01  4.893765E-03  0.000000E+00  4.091072E-03 -8.552552E-04 -2.407848E-19  2.343538E-02  0.000000E+00
  9.727270E-01  5.660577E-03  5.000000E-01  9.825506E-01  5.663819E-03  0.000000E+00  4.362878E-03 -9.023341E-04  1.815388E-20  1.209728E-02  0.000000E+00
  9.686070E-01  6.507916E-03  5.000000E-01  9.783890E-01  6.519715E-03  0.000000E+00  4.658689E-03 -9.517001E-04 -7.588190E-19 -3.753156E-04  0.000000E+00
  9.640240E-01  7.438245E-03  5.000000E-01  9.737597E-01  7.459439E-03  0.000000E+00  4.969425E-03 -1.000994E-03 -9.701663E-19 -1.382477E-02  0.000000E+00
  9.589680E-01  8.449259E-03  5.000000E-01  9.686527E-01  8.480664E-03  0.000000E+00  5.291055E-03 -1.049054E-03 -2.471737E-19 -2.811282E-02  0.000000E+00
  9.534310E-01  9.538224E-03  5.000000E-01  9.630598E-01  9.580627E-03  0.000000E+00  5.621635E-03 -1.095180E-03  6.096437E-19 -4.310064E-02  0.000000E+00
  9.474030E-01  1.070205E-02  5.000000E-01  9.569709E-01  1.075621E-02  0.000000E+00  5.959031E-03 -1.138446E-03  1.045607E-18 -5.856162E-02  0.000000E+00
  9.408720E-01  1.193728E-02  5.000000E-01  9.503739E-01  1.200391E-02  0.000000E+00  6.299743E-03 -1.177982E-03  2.045496E-20 -7.432449E-02  0.000000E+00
  9.338280E-01  1.324008E-02  5.000000E-01  9.432588E-01  1.331987E-02  0.000000E+00  6.639362E-03 -1.212935E-03 -6.853668E-19 -9.023180E-02  0.000000E+00
  9.262600E-01  1.460639E-02  5.000000E-01  9.356144E-01  1.469998E-02  0.000000E+00  6.972702E-03 -1.242166E-03  2.447812E-19 -1.060522E-01  0.000000E+00
  9.181550E-01  1.603173E-02  5.000000E-01  9.274275E-01  1.613971E-02  0.000000E+00  7.293566E-03 -1.264651E-03  6.373374E-19 -1.216103E-01  0.000000E+00
  9.095020E-01  1.751155E-02  5.000000E-01  9.186871E-01  1.763447E-02  0.000000E+00  7.595019E-03 -1.279388E-03  4.803922E-20 -1.366189E-01  0.000000E+00
  9.002880E-01  1.904093E-02  5.000000E-01  9.093801E-01  1.917930E-02  0.000000E+00  7.868805E-03 -1.285510E-03  5.749664E-20 -1.505758E-01  0.000000E+00
  8.905020E-01  2.061500E-02  5.000000E-01  8.994952E-01  2.076927E-02  0.000000E+00  8.105379E-03 -1.283652E-03 -4.940288E-19 -1.631766E-01  0.000000E+00
  8.801320E-01  2.223231E-02  5.000000E-01  8.890205E-01  2.240291E-02  0.000000E+00  8.296867E-03 -1.276307E-03 -1.114300E-18 -1.745297E-01  0.000000E+00
  8.691700E-01  2.389565E-02  5.000000E-01  8.779478E-01  2.408305E-02  0.000000E+00  8.440537E-03 -1.266217E-03 -5.501531E-19 -1.849054E-01  0.000000E+00
  8.691700E-01  2.389565E-02  5.000000E-01  8.779478E-01  2.408305E-02  0.000000E+00  8.440537E-03 -1.266217E-03 -5.501531E-19 -1.849054E-01  0.000000E+00
  8.576080E-01  2.561053E-02  5.000000E-01  8.662690E-01  2.581525E-02  0.000000E+00  8.539826E-03 -1.255956E-03  1.838467E-19 -1.945104E-01  0.000000E+00
  8.454380E-01  2.738543E-02  5.000000E-01  8.539761E-01  2.760807E-02  0.000000E+00  8.603918E-03 -1.249070E-03  1.318770E-18 -2.036372E-01  0.000000E+00
  8.326580E-01  2.923265E-02  5.000000E-01  8.410671E-01  2.947395E-02  0.000000E+00  8.648389E-03 -1.249943E-03  1.051991E-18 -2.129568E-01  0.000000E+00
  8.192630E-01  3.116880E-02  5.000000E-01  8.275368E-01  3.142965E-02  0.000000E+00  8.696577E-03 -1.263724E-03 -2.087670E-19 -2.240818E-01  0.000000E+00
  8.052550E-01  3.321463E-02  5.000000E-01  8.133873E-01  3.349614E-02  0.000000E+00  8.781162E-03 -1.294570E-03 -1.771080E-18 -2.394176E-01  0.000000E+00
  7.906370E-01  3.538874E-02  5.000000E-01  7.986217E-01  3.569221E-02  0.000000E+00  8.941601E-03 -1.341116E-03 -2.653447E-18 -2.604714E-01  0.000000E+00
  7.754120E-01  3.769073E-02  5.000000E-01  7.832429E-01  3.801744E-02  0.000000E+00  9.212103E-03 -1.396195E-03 -1.200335E-18 -2.869947E-01  0.000000E+00
  7.595880E-01  4.009446E-02  5.000000E-01  7.672591E-01  4.044546E-02  0.000000E+00  9.607747E-03 -1.452250E-03 -3.959324E-19 -3.183070E-01  0.000000E+00
  7.431760E-01  4.256289E-02  5.000000E-01  7.506814E-01  4.293881E-02  0.000000E+00  1.012174E-02 -1.502015E-03 -7.880723E-19 -3.536336E-01  0.000000E+00
  7.261880E-01  4.505088E-02  5.000000E-01  7.335218E-01  4.545193E-02  0.000000E+00  1.072881E-02 -1.535575E-03 -1.276225E-18 -3.910971E-01  0.000000E+00
  7.086430E-01  4.750686E-02  5.000000E-01  7.157996E-01  4.793271E-02  0.000000E+00  1.138725E-02 -1.541930E-03 -1.377438E-18 -4.274894E-01  0.000000E+00
  6.905640E-01  4.987780E-02  5.000000E-01  6.975381E-01  5.032759E-02  0.000000E+00  1.204328E-02 -1.514685E-03 -3.206015E-19 -4.594680E-01  0.000000E+00
  6.719770E-01  5.212172E-02  5.000000E-01  6.787633E-01  5.259417E-02  0.000000E+00  1.264175E-02 -1.458705E-03 -3.855663E-19 -4.859119E-01  0.000000E+00
  6.529150E-01  5.422398E-02  5.000000E-01  6.595088E-01  5.471766E-02  0.000000E+00  1.314608E-02 -1.386678E-03 -1.397393E-18 -5.081749E-01  0.000000E+00
  6.334180E-01  5.618988E-02  5.000000E-01  6.398149E-01  5.670342E-02  0.000000E+00  1.355241E-02 -1.307435E-03 -1.287815E-19 -5.280108E-01  0.000000E+00
  6.135280E-01  5.802397E-02  5.000000E-01  6.197241E-01  5.855603E-02  0.000000E+00  1.388178E-02 -1.224044E-03  8.026774E-20 -5.468292E-01  0.000000E+00
  5.932910E-01  5.972780E-02  5.000000E-01  5.992827E-01  6.027707E-02  0.000000E+00  1.416394E-02 -1.137200E-03 -2.694788E-19 -5.653490E-01  0.000000E+00
  5.727570E-01  6.129743E-02  5.000000E-01  5.785413E-01  6.186255E-02  0.000000E+00  1.442508E-02 -1.045382E-03 -8.204592E-20 -5.827647E-01  0.000000E+00
  5.519810E-01  6.272290E-02  5.000000E-01  5.575555E-01  6.330242E-02  0.000000E+00  1.467851E-02 -9.471028E-04 -2.738636E-19 -5.976905E-01  0.000000E+00
  5.310180E-01  6.399213E-02  5.000000E-01  5.363808E-01  6.458446E-02  0.000000E+00  1.492226E-02 -8.483915E-04 -1.578945E-19 -6.112726E-01  0.000000E+00
  5.099250E-01  6.511362E-02  5.000000E-01  5.150748E-01  6.571728E-02  0.000000E+00  1.515545E-02 -7.593137E-04  1.069502E-19 -6.271779E-01  0.000000E+00
  4.887640E-01  6.610850E-02  5.000000E-01  4.937001E-01  6.672221E-02  0.000000E+00  1.539813E-02 -6.744814E-04  5.945657E-20 -6.463800E-01  0.000000E+00
  4.675910E-01  6.696942E-02  5.000000E-01  4.723132E-01  6.759183E-02  0.000000E+00  1.567505E-02 -5.772074E-04 -5.905947E-19 -6.663122E-01  0.000000E+00
  7.860720E-05 -6.044805E-04  5.000000E-01  7.940614E-05 -6.645099E-04  0.000000E+00 -5.653560E-03  2.324816E-02  9.690659E-17  8.811606E-01  0.000000E+00
  3.989240E-04 -1.380308E-03  5.000000E-01  4.029578E-04 -1.448173E-03  0.000000E+00 -4.844004E-03  1.003276E-02  5.872691E-17  1.079394E+00  0.000000E+00
  1.196920E-03 -2.329530E-03  5.000000E-01  1.209013E-03 -2.406980E-03  0.000000E+00  2.581965E-04  5.258560E-04  3.032371E-17  1.069922E+00  0.000000E+00
  2.563580E-03 -3.330171E-03  5.000000E-01  2.589475E-03 -3.417727E-03  0.000000E+00  5.888732E-03 -3.427866E-03  6.541092E-18  9.294470E-01  0.000000E+00
  4.492740E-03 -4.321506E-03  5.000000E-01  4.538118E-03 -4.419074E-03  0.000000E+00  9.672507E-03 -4.319998E-03 -3.163542E-18  7.904679E-01  0.000000E+00
  6.952190E-03 -5.290390E-03  5.000000E-01  7.022406E-03 -5.397743E-03  0.000000E+00  1.182070E-02 -4.233569E-03 -4.296789E-18  6.872194E-01  0.000000E+00
  9.910730E-03 -6.255695E-03  5.000000E-01  1.001082E-02 -6.372796E-03  0.000000E+00  1.311601E-02 -4.007665E-03 -3.909487E-18  6.072526E-01  0.000000E+00
  1.334950E-02 -7.241331E-03  5.000000E-01  1.348432E-02 -7.368387E-03  0.000000E+00  1.400864E-02 -3.728157E-03 -3.435836E-18  5.298261E-01  0.000000E+00
  1.728780E-02 -8.215225E-03  5.000000E-01  1.746240E-02 -8.352116E-03  0.000000E+00  1.458336E-02 -3.264379E-03 -3.829403E-18  4.456743E-01  0.000000E+00
  2.175590E-02 -9.113705E-03  5.000000E-01  2.197562E-02 -9.259670E-03  0.000000E+00  1.482671E-02 -2.641548E-03 -3.095698E-18  3.686681E-01  0.000000E+00
  2.676920E-02 -9.890744E-03  5.000000E-01  2.703955E-02 -1.004456E-02  0.000000E+00  1.480587E-02 -2.007752E-03 -1.328026E-18  3.144384E-01  0.000000E+00
  3.232800E-02 -1.053438E-02  5.000000E-01  3.265449E-02 -1.069469E-02  0.000000E+00  1.463316E-02 -1.472360E-03 -4.975672E-19  2.839907E-01  0.000000E+00
  3.842930E-02 -1.105442E-02  5.000000E-01  3.881740E-02 -1.121999E-02  0.000000E+00  1.439264E-02 -1.065017E-03 -2.634627E-19  2.684565E-01  0.000000E+00
  4.507220E-02 -1.147035E-02  5.000000E-01  4.552739E-02 -1.164012E-02  0.000000E+00  1.414666E-02 -7.879075E-04 -1.135367E-19  2.608909E-01  0.000000E+00
  5.225680E-02 -1.181954E-02  5.000000E-01  5.278455E-02 -1.199283E-02  0.000000E+00  1.394936E-02 -6.286901E-04 -1.019482E-19  2.573872E-01  0.000000E+00
  5.998640E-02 -1.214078E-02  5.000000E-01  6.059221E-02 -1.231732E-02  0.000000E+00  1.381057E-02 -5.359830E-04 -1.870448E-19  2.517474E-01  0.000000E+00
  6.827110E-02 -1.244052E-02  5.000000E-01  6.896058E-02 -1.262008E-02  0.000000E+00  1.369917E-02 -4.590319E-04  4.635173E-20  2.410089E-01  0.000000E+00
  7.712280E-02 -1.271318E-02  5.000000E-01  7.790167E-02 -1.289550E-02  0.000000E+00  1.358884E-02 -3.854843E-04  2.163761E-19  2.286958E-01  0.000000E+00
  8.655260E-02 -1.295683E-02  5.000000E-01  8.742670E-02 -1.314161E-02  0.000000E+00  1.346568E-02 -3.148860E-04 -5.869931E-20  2.176874E-01  0.000000E+00
  9.657140E-02 -1.316643E-02  5.000000E-01  9.754669E-02 -1.335332E-02  0.000000E+00  1.331432E-02 -2.382882E-04 -3.876952E-19  2.074857E-01  0.000000E+00
  1.071900E-01 -1.332442E-02  5.000000E-01  1.082725E-01 -1.351291E-02  0.000000E+00  1.312864E-02 -1.544197E-04 -3.768153E-19  1.983000E-01  0.000000E+00
  1.184180E-01 -1.342047E-02  5.000000E-01  1.196139E-01 -1.360993E-02  0.000000E+00  1.292840E-02 -7.964512E-05 -2.085557E-19  1.922976E-01  0.000000E+00
  1.302610E-01 -1.346407E-02  5.000000E-01  1.315765E-01 -1.365397E-02  0.000000E+00  1.274426E-02 -2.819123E-05 -4.600549E-20  1.895812E-01  0.000000E+00
  1.427230E-01 -1.347301E-02  5.000000E-01  1.441644E-01 -1.366300E-02  0.000000E+00  1.259483E-02 -2.378484E-06  3.690204E-19  1.880405E-01  0.000000E+00
  1.427230E-01 -1.347301E-02  5.000000E-01  1.441644E-01 -1.366300E-02  0.000000E+00  1.259483E-02 -2.378484E-06  3.690204E-19  1.880405E-01  0.000000E+00
  1.558070E-01 -1.346879E-02  5.000000E-01  1.573805E-01 -1.365874E-02  0.000000E+00  1.247574E-02  6.939895E-06  5.053254E-19  1.853281E-01  0.000000E+00
  1.695140E-01 -1.345858E-02  5.000000E-01  1.712259E-01 -1.364842E-02  0.000000E+00  1.236313E-02  1.548101E-05  2.423269E-19  1.802176E-01  0.000000E+00
  1.838420E-01 -1.343355E-02  5.000000E-01  1.856986E-01 -1.362314E-02  0.000000E+00  1.223140E-02  3.479292E-05  1.588193E-19  1.736615E-01  0.000000E+00
  1.987870E-01 -1.337453E-02  5.000000E-01  2.007946E-01 -1.356353E-02  0.000000E+00  1.206862E-02  6.893135E-05  5.314750E-21  1.673378E-01  0.000000E+00
  2.143420E-01 -1.325785E-02  5.000000E-01  2.165067E-01 -1.344567E-02  0.000000E+00  1.188822E-02  1.073542E-04 -1.831407E-19  1.631430E-01  0.000000E+00
  2.304940E-01 -1.308578E-02  5.000000E-01  2.328218E-01 -1.327186E-02  0.000000E+00  1.172989E-02  1.253827E-04 -2.462873E-19  1.628032E-01  0.000000E+00
  2.472290E-01 -1.290515E-02  5.000000E-01  2.497258E-01 -1.308940E-02  0.000000E+00  1.163383E-02  1.099846E-04  7.058686E-20  1.646126E-01  0.000000E+00
  2.645310E-01 -1.276558E-02  5.000000E-01  2.672025E-01 -1.294843E-02  0.000000E+00  1.161405E-02  7.502038E-05  3.880306E-19  1.636436E-01  0.000000E+00
  2.823750E-01 -1.268058E-02  5.000000E-01  2.852267E-01 -1.286257E-02  0.000000E+00  1.166205E-02  4.350693E-05  3.137482E-19  1.569553E-01  0.000000E+00
  3.007320E-01 -1.263149E-02  5.000000E-01  3.037691E-01 -1.281298E-02  0.000000E+00  1.176582E-02  2.610755E-05 -9.951546E-22  1.459730E-01  0.000000E+00
  3.195690E-01 -1.259745E-02  5.000000E-01  3.227964E-01 -1.277859E-02  0.000000E+00  1.191435E-02  2.131764E-05 -1.645327E-19  1.334987E-01  0.000000E+00
  3.388440E-01 -1.256270E-02  5.000000E-01  3.422660E-01 -1.274349E-02  0.000000E+00  1.208452E-02  3.019535E-05 -5.347941E-20  1.203280E-01  0.000000E+00
  3.585140E-01 -1.250062E-02  5.000000E-01  3.621347E-01 -1.268079E-02  0.000000E+00  1.223050E-02  6.297267E-05 -3.863864E-19  1.056238E-01  0.000000E+00
  3.785290E-01 -1.235900E-02  5.000000E-01  3.823518E-01 -1.253774E-02  0.000000E+00  1.229195E-02  1.291411E-04 -4.671081E-19  8.999469E-02  0.000000E+00
  3.988350E-01 -1.207591E-02  5.000000E-01  4.028629E-01 -1.225179E-02  0.000000E+00  1.221502E-02  2.303973E-04 -3.835267E-19  7.642790E-02  0.000000E+00
  4.193750E-01 -1.158605E-02  5.000000E-01  4.236103E-01 -1.175698E-02  0.000000E+00  1.197087E-02  3.667830E-04 -1.122391E-19  6.750727E-02  0.000000E+00
  4.400850E-01 -1.080788E-02  5.000000E-01  4.445294E-01 -1.097096E-02  0.000000E+00  1.157828E-02  5.243035E-04  6.648242E-19  6.555927E-02  0.000000E+00
  4.609060E-01 -9.696540E-03  5.000000E-01  4.655607E-01 -9.848391E-03  0.000000E+00  1.112124E-02  6.537522E-04  5.740333E-19  7.515952E-02  0.000000E+00
  4.818030E-01 -8.345819E-03  5.000000E-01  4.866688E-01 -8.484028E-03  0.000000E+00  1.070740E-02  7.052667E-04  5.980324E-19  9.709800E-02  0.000000E+00
  5.027520E-01 -6.938100E-03  5.000000E-01  5.078293E-01 -7.062093E-03  0.000000E+00  1.038399E-02  6.858996E-04  6.736969E-19  1.218448E-01  0.000000E+00
  5.237130E-01 -5.583224E-03  5.000000E-01  5.290020E-01 -5.693535E-03  0.000000E+00  1.010761E-02  6.544889E-04  4.447898E-19  1.371703E-01  0.000000E+00
  5.446170E-01 -4.233415E-03  5.000000E-01  5.501171E-01 -4.330093E-03  0.000000E+00  9.802437E-03  6.579909E-04  2.707009E-19  1.415425E-01  0.000000E+00
  5.653940E-01 -2.782301E-03  5.000000E-01  5.711040E-01 -2.864324E-03  0.000000E+00  9.443072E-03  6.848236E-04  4.486852E-19  1.463442E-01  0.000000E+00
  4.675910E-01  6.696942E-02  5.000000E-01  4.723132E-01  6.759183E-02  0.000000E+00  1.567505E-02 -5.772074E-04 -5.905947E-19 -6.663122E-01  0.000000E+00
  4.464640E-01  6.766836E-02  5.000000E-01  4.509729E-01  6.829783E-02  0.000000E+00  1.598676E-02 -4.643739E-04 -6.777101E-19 -6.856641E-01  0.000000E+00
  4.254410E-01  6.819580E-02  5.000000E-01  4.297376E-01  6.883059E-02  0.000000E+00  1.631811E-02 -3.425452E-04 -5.242054E-19 -7.048483E-01  0.000000E+00
  4.045840E-01  6.854975E-02  5.000000E-01  4.086699E-01  6.918811E-02  0.000000E+00  1.665775E-02 -2.144934E-04 -5.488673E-19 -7.242408E-01  0.000000E+00
  3.839530E-01  6.873252E-02  5.000000E-01  3.878306E-01  6.937273E-02  0.000000E+00  1.700360E-02 -7.897578E-05 -3.211925E-19 -7.439533E-01  0.000000E+00
  3.636060E-01  6.874310E-02  5.000000E-01  3.672781E-01  6.938341E-02  0.000000E+00  1.736131E-02  6.676609E-05  1.158084E-19 -7.639316E-01  0.000000E+00
  3.435960E-01  6.858073E-02  5.000000E-01  3.470660E-01  6.921940E-02  0.000000E+00  1.773893E-02  2.243849E-04 -5.509757E-20 -7.846299E-01  0.000000E+00
  3.239710E-01  6.824512E-02  5.000000E-01  3.272428E-01  6.888040E-02  0.000000E+00  1.814507E-02  3.947660E-04 -6.430822E-20 -8.071578E-01  0.000000E+00
  3.047740E-01  6.773945E-02  5.000000E-01  3.078519E-01  6.836963E-02  0.000000E+00  1.859083E-02  5.828428E-04  3.401245E-19 -8.319351E-01  0.000000E+00
  2.860450E-01  6.706059E-02  5.000000E-01  2.889338E-01  6.768391E-02  0.000000E+00  1.908581E-02  8.008660E-04  5.621715E-19 -8.572917E-01  0.000000E+00
  2.678190E-01  6.619466E-02  5.000000E-01  2.705237E-01  6.680924E-02  0.000000E+00  1.962219E-02  1.056538E-03  5.304912E-19 -8.811554E-01  0.000000E+00
  2.501300E-01  6.513322E-02  5.000000E-01  2.526561E-01  6.573708E-02  0.000000E+00  2.017221E-02  1.346617E-03 -1.182421E-19 -9.024807E-01  0.000000E+00
  2.330040E-01  6.387720E-02  5.000000E-01  2.353571E-01  6.446837E-02  0.000000E+00  2.070328E-02  1.664552E-03 -2.531006E-19 -9.202901E-01  0.000000E+00
  2.164660E-01  6.243353E-02  5.000000E-01  2.186521E-01  6.301012E-02  0.000000E+00  2.118965E-02  2.003874E-03 -1.018795E-19 -9.329332E-01  0.000000E+00
  2.005340E-01  6.081399E-02  5.000000E-01  2.025592E-01  6.137423E-02  0.000000E+00  2.161652E-02  2.357587E-03 -4.191160E-19 -9.385707E-01  0.000000E+00
  1.852230E-01  5.903372E-02  5.000000E-01  1.870936E-01  5.957598E-02  0.000000E+00  2.197756E-02  2.713100E-03  2.911025E-19 -9.379333E-01  0.000000E+00
  1.705440E-01  5.711842E-02  5.000000E-01  1.722663E-01  5.764133E-02  0.000000E+00  2.228059E-02  3.055395E-03  9.200130E-19 -9.366299E-01  0.000000E+00
  1.565000E-01  5.509921E-02  5.000000E-01  1.580805E-01  5.560173E-02  0.000000E+00  2.256432E-02  3.383143E-03  9.327065E-19 -9.432729E-01  0.000000E+00
  1.430940E-01  5.300519E-02  5.000000E-01  1.445391E-01  5.348656E-02  0.000000E+00  2.290744E-02  3.731109E-03  1.377142E-18 -9.618602E-01  0.000000E+00
  1.303270E-01  5.084072E-02  5.000000E-01  1.316432E-01  5.130024E-02  0.000000E+00  2.339521E-02  4.176131E-03  7.386039E-19 -9.837264E-01  0.000000E+00
  1.182110E-01  4.857291E-02  5.000000E-01  1.194048E-01  4.900952E-02  0.000000E+00  2.402450E-02  4.765607E-03 -5.684437E-19 -9.935173E-01  0.000000E+00
  1.067560E-01  4.617898E-02  5.000000E-01  1.078341E-01  4.659142E-02  0.000000E+00  2.466430E-02  5.468728E-03 -8.481904E-19 -9.808379E-01  0.000000E+00
  9.596750E-02  4.365445E-02  5.000000E-01  9.693669E-02  4.404139E-02  0.000000E+00  2.511722E-02  6.156609E-03 -1.088138E-18 -9.526108E-01  0.000000E+00
  8.582800E-02  4.105557E-02  5.000000E-01  8.669479E-02  4.141627E-02  0.000000E+00  2.529071E-02  6.704757E-03 -1.816634E-18 -9.272508E-01  0.000000E+00
  8.582800E-02  4.105557E-02  5.000000E-01  8.669479E-02  4.141627E-02  0.000000E+00  2.529071E-02  6.704757E-03 -1.816634E-18 -9.272508E-01  0.000000E+00
  7.631050E-02  3.844720E-02  5.000000E-01  7.708117E-02  3.878155E-02  0.000000E+00  2.530702E-02  7.180242E-03 -1.306290E-18 -9.086523E-01  0.000000E+00
  6.740780E-02  3.583580E-02  5.000000E-01  6.808856E-02  3.614378E-02  0.000000E+00  2.533042E-02  7.718905E-03  5.292723E-19 -8.888798E-01  0.000000E+00
  5.911740E-02  3.321573E-02  5.000000E-01  5.971444E-02  3.349725E-02  0.000000E+00  2.540855E-02  8.348683E-03  1.409135E-18 -8.638959E-01  0.000000E+00
  5.143150E-02  3.059466E-02  5.000000E-01  5.195091E-02  3.084972E-02  0.000000E+00  2.550452E-02  9.036552E-03  1.786269E-18 -8.337719E-01  0.000000E+00
  4.433770E-02  2.798750E-02  5.000000E-01  4.478547E-02  2.821622E-02  0.000000E+00  2.556062E-02  9.753749E-03  1.105330E-18 -8.011335E-01  0.000000E+00
  3.782240E-02  2.540959E-02  5.000000E-01  3.820438E-02  2.561228E-02  0.000000E+00  2.554017E-02  1.049911E-02 -7.770042E-19 -7.699619E-01  0.000000E+00
  3.187460E-02  2.287157E-02  5.000000E-01  3.219651E-02  2.304863E-02  0.000000E+00  2.544639E-02  1.129869E-02 -8.357945E-19 -7.424281E-01  0.000000E+00
  2.648400E-02  2.038333E-02  5.000000E-01  2.675147E-02  2.053526E-02  0.000000E+00  2.530783E-02  1.222919E-02  2.799243E-19 -7.092385E-01  0.000000E+00
  2.164990E-02  1.794383E-02  5.000000E-01  2.186855E-02  1.807112E-02  0.000000E+00  2.507371E-02  1.334954E-02  1.243018E-18 -6.486116E-01  0.000000E+00
  1.737670E-02  1.555128E-02  5.000000E-01  1.755219E-02  1.565441E-02  0.000000E+00  2.453886E-02  1.446159E-02  2.078258E-18 -5.538468E-01  0.000000E+00
  1.364080E-02  1.323657E-02  5.000000E-01  1.377856E-02  1.331633E-02  0.000000E+00  2.354466E-02  1.518434E-02  2.261445E-18 -4.497319E-01  0.000000E+00
  1.039090E-02  1.105197E-02  5.000000E-01  1.049584E-02  1.110966E-02  0.000000E+00  2.221847E-02  1.544675E-02  2.440402E-18 -3.662635E-01  0.000000E+00
  7.586340E-03  9.032161E-03  5.000000E-01  7.662960E-03  9.069452E-03  0.000000E+00  2.089041E-02  1.571108E-02  3.918503E-18 -3.065705E-01  0.000000E+00
  5.226210E-03  7.177675E-03  5.000000E-01  5.278995E-03  7.196238E-03  0.000000E+00  1.983598E-02  1.660845E-02  4.785088E-18 -2.537510E-01  0.000000E+00
  3.324300E-03  5.482744E-03  5.000000E-01  3.357877E-03  5.484190E-03  0.000000E+00  1.911542E-02  1.861327E-02  2.910183E-18 -1.920874E-01  0.000000E+00
  1.883580E-03  3.957549E-03  5.000000E-01  1.902607E-03  3.943592E-03  0.000000E+00  1.839441E-02  2.208042E-02  5.470008E-18 -9.909079E-02  0.000000E+00
  8.951490E-04  2.626130E-03  5.000000E-01  9.041942E-04  2.598727E-03  0.000000E+00  1.668985E-02  2.686089E-02  2.232036E-17  5.536576E-02  0.000000E+00
  3.201820E-04  1.528780E-03  5.000000E-01  3.234206E-04  1.490294E-03  0.000000E+00  1.284010E-02  3.135734E-02  5.097387E-17  2.753731E-01  0.000000E+00
  6.852390E-05  7.136282E-04  5.000000E-01  6.922101E-05  6.669105E-04  0.000000E+00  7.297895E-03  3.282685E-02  7.990578E-17  4.880219E-01  0.000000E+00
  4.217600E-06  2.184011E-04  5.000000E-01  4.265277E-06  1.666821E-04  0.000000E+00  2.524181E-03  3.144724E-02  1.081644E-16  5.621162E-01  0.000000E+00
 -5.032520E-09  5.338558E-05  5.000000E-01  0.000000E+00  0.000000E+00  0.000000E+00 -3.347527E-04  3.268607E-02  1.357633E-16  5.362025E-01  0.000000E+00
  5.154440E-06 -1.124800E-04  5.000000E-01  5.211578E-06 -1.675406E-04  0.000000E+00 -2.980994E-03  3.248589E-02  1.349479E-16  6.297589E-01  0.000000E+00