 Title = "ADflow Slice Data"
Variables =  "CoordinateX"  "CoordinateY"  "CoordinateZ"  "XoC"  "YoC"  "ZoC" "VelocityX" "VelocityY" "VelocityZ" "CoefPressure" "Mach" 
Zone T= "Slice_0001 None Absolute Regular z = 0.50000000"
 Nodes =          192  Elements=          184  ZONETYPE=FELINESEG
 DATAPACKING=POINT
  5.653940E-01 -3.583337E-03  5.000000E-01  5.711040E-01 -3.682020E-03  0.000000E+00  9.690236E-03  6.809206E-04 -5.666333E-19  1.298365E-01  0.000000E+00
  5.859770E-01 -2.020594E-03  5.000000E-01  5.918948E-01 -2.103495E-03  0.000000E+00  9.195797E-03  7.257811E-04  2.535914E-19  1.475265E-01  0.000000E+00
  6.063060E-01 -3.506421E-04  5.000000E-01  6.124291E-01 -4.166778E-04  0.000000E+00  8.761440E-03  7.225146E-04  3.375841E-19  1.739163E-01  0.000000E+00
  6.263240E-01  1.304468E-03  5.000000E-01  6.326493E-01  1.255147E-03  0.000000E+00  8.466521E-03  6.734308E-04 -1.735528E-19  2.000709E-01  0.000000E+00
  6.459860E-01  2.804551E-03  5.000000E-01  6.525099E-01  2.770380E-03  0.000000E+00  8.343703E-03  5.850019E-04 -8.095587E-19  2.212992E-01  0.000000E+00
  6.652460E-01  4.035385E-03  5.000000E-01  6.719644E-01  4.013644E-03  0.000000E+00  8.356249E-03  4.841699E-04 -7.943073E-19  2.338232E-01  0.000000E+00
  6.840650E-01  5.009272E-03  5.000000E-01  6.909734E-01  4.997366E-03  0.000000E+00  8.396597E-03  4.218503E-04 -9.285939E-19  2.337294E-01  0.000000E+00
  7.024070E-01  5.899981E-03  5.000000E-01  7.095007E-01  5.897071E-03  0.000000E+00  8.348030E-03  4.193329E-04 -1.250521E-18  2.268035E-01  0.000000E+00
  7.202400E-01  6.829660E-03  5.000000E-01  7.275138E-01  6.836138E-03  0.000000E+00  8.147505E-03  4.502769E-04 -1.044925E-19  2.252153E-01  0.000000E+00
  7.375350E-01  7.844944E-03  5.000000E-01  7.449834E-01  7.861676E-03  0.000000E+00  7.791391E-03  4.823025E-04  2.560714E-19  2.338653E-01  0.000000E+00
  7.542690E-01  8.938502E-03  5.000000E-01  7.618864E-01  8.966278E-03  0.000000E+00  7.322324E-03  4.954746E-04 -3.396943E-19  2.510255E-01  0.000000E+00
  7.704220E-01  1.007026E-02  5.000000E-01  7.782026E-01  1.010946E-02  0.000000E+00  6.811093E-03  4.828297E-04 -2.941695E-19  2.726283E-01  0.000000E+00
  7.859770E-01  1.118630E-02  5.000000E-01  7.939146E-01  1.123678E-02  0.000000E+00  6.345846E-03  4.351901E-04 -8.710761E-20  2.969541E-01  0.000000E+00
  8.009220E-01  1.216402E-02  5.000000E-01  8.090106E-01  1.222437E-02  0.000000E+00  6.012960E-03  3.447309E-04  2.469051E-19  3.230032E-01  0.000000E+00
  8.152480E-01  1.286365E-02  5.000000E-01  8.234813E-01  1.293107E-02  0.000000E+00  5.853982E-03  2.273412E-04  7.173063E-19  3.439732E-01  0.000000E+00
  8.289490E-01  1.325250E-02  5.000000E-01  8.373206E-01  1.332384E-02  0.000000E+00  5.854530E-03  1.065538E-04  4.838186E-19  3.543876E-01  0.000000E+00
  8.420260E-01  1.335810E-02  5.000000E-01  8.505297E-01  1.343051E-02  0.000000E+00  5.976011E-03 -8.223604E-06 -1.430184E-19  3.564377E-01  0.000000E+00
  8.544790E-01  1.322761E-02  5.000000E-01  8.631085E-01  1.329871E-02  0.000000E+00  6.179005E-03 -1.155010E-04 -8.108092E-19  3.539448E-01  0.000000E+00
  8.663160E-01  1.291327E-02  5.000000E-01  8.750650E-01  1.298119E-02  0.000000E+00  6.428140E-03 -2.148765E-04 -7.867003E-19  3.488281E-01  0.000000E+00
  8.775420E-01  1.246402E-02  5.000000E-01  8.864044E-01  1.252740E-02  0.000000E+00  6.692682E-03 -3.049673E-04 -7.544819E-20  3.419072E-01  0.000000E+00
  8.881660E-01  1.192315E-02  5.000000E-01  8.971357E-01  1.198107E-02  0.000000E+00  6.948882E-03 -3.839242E-04  2.246277E-19  3.338528E-01  0.000000E+00
  8.981970E-01  1.132687E-02  5.000000E-01  9.072680E-01  1.137877E-02  0.000000E+00  7.183201E-03 -4.526705E-04 -7.734713E-20  3.255342E-01  0.000000E+00
  9.076460E-01  1.069898E-02  5.000000E-01  9.168124E-01  1.074454E-02  0.000000E+00  7.394434E-03 -5.167409E-04 -2.571055E-19  3.179308E-01  0.000000E+00
  9.165220E-01  1.004931E-02  5.000000E-01  9.257780E-01  1.008830E-02  0.000000E+00  7.589755E-03 -5.812661E-04  2.635109E-19  3.111217E-01  0.000000E+00
  9.165220E-01  1.004931E-02  5.000000E-01  9.257780E-01  1.008830E-02  0.000000E+00  7.589755E-03 -5.812661E-04  2.635109E-19  3.111217E-01  0.000000E+00
  9.248360E-01  9.384933E-03  5.000000E-01  9.341760E-01  9.417217E-03  0.000000E+00  7.777478E-03 -6.477129E-04  6.150307E-19  3.043789E-01  0.000000E+00
  9.325990E-01  8.712760E-03  5.000000E-01  9.420174E-01  8.738257E-03  0.000000E+00  7.964554E-03 -7.166164E-04 -1.500100E-19  2.973339E-01  0.000000E+00
  9.398210E-01  8.039046E-03  5.000000E-01  9.493123E-01  8.057738E-03  0.000000E+00  8.157236E-03 -7.887925E-04 -6.003033E-19  2.899586E-01  0.000000E+00
  9.465130E-01  7.369648E-03  5.000000E-01  9.560719E-01  7.381580E-03  0.000000E+00  8.361105E-03 -8.650449E-04 -2.583351E-20  2.821896E-01  0.000000E+00
  9.526870E-01  6.710209E-03  5.000000E-01  9.623083E-01  6.715481E-03  0.000000E+00  8.580644E-03 -9.460607E-04  2.129705E-22  2.739123E-01  0.000000E+00
  9.583540E-01  6.066361E-03  5.000000E-01  9.680325E-01  6.065131E-03  0.000000E+00  8.819240E-03 -1.032357E-03  9.060732E-20  2.650206E-01  0.000000E+00
  9.635240E-01  5.443838E-03  5.000000E-01  9.732547E-01  5.436321E-03  0.000000E+00  9.079665E-03 -1.124125E-03  2.705359E-19  2.554100E-01  0.000000E+00
  9.682080E-01  4.848467E-03  5.000000E-01  9.779860E-01  4.834937E-03  0.000000E+00  9.365685E-03 -1.221714E-03  3.866394E-19  2.450375E-01  0.000000E+00
  9.724140E-01  4.286204E-03  5.000000E-01  9.822345E-01  4.266996E-03  0.000000E+00  9.684412E-03 -1.325736E-03  9.581758E-19  2.339039E-01  0.000000E+00
  9.761510E-01  3.763017E-03  5.000000E-01  9.860092E-01  3.738526E-03  0.000000E+00  1.004647E-02 -1.436710E-03  1.008661E-18  2.219817E-01  0.000000E+00
  9.794290E-01  3.284721E-03  5.000000E-01  9.893203E-01  3.255399E-03  0.000000E+00  1.045901E-02 -1.555198E-03  7.691307E-19  2.092825E-01  0.000000E+00
  9.822540E-01  2.857000E-03  5.000000E-01  9.921739E-01  2.823358E-03  0.000000E+00  1.090758E-02 -1.679376E-03  4.034275E-21  1.960584E-01  0.000000E+00
  9.846330E-01  2.485113E-03  5.000000E-01  9.945769E-01  2.447716E-03  0.000000E+00  1.133743E-02 -1.798125E-03 -1.101265E-18  1.835584E-01  0.000000E+00
  9.865710E-01  2.173822E-03  5.000000E-01  9.965345E-01  2.133281E-03  0.000000E+00  1.161510E-02 -1.877402E-03 -1.105023E-18  1.706451E-01  0.000000E+00
  9.880740E-01  1.927204E-03  5.000000E-01  9.980526E-01  1.884172E-03  0.000000E+00  1.152295E-02 -1.909156E-03 -2.594902E-18  1.511051E-01  0.000000E+00
  9.891450E-01  1.748583E-03  5.000000E-01  9.991345E-01  1.703747E-03  0.000000E+00  1.173187E-02 -2.048690E-03 -1.916117E-17  1.517987E-01  0.000000E+00
  9.897860E-01  1.640419E-03  5.000000E-01  9.997819E-01  1.594492E-03  0.000000E+00  1.510233E-02 -2.076304E-03 -6.342333E-17  1.988441E-01  0.000000E+00
  9.900000E-01  1.604194E-03  5.000000E-01  9.999981E-01  1.557901E-03  0.000000E+00  1.053773E-02 -4.463326E-03 -7.567133E-17 -4.397552E-02  0.000000E+00
  9.900000E-01  1.682905E-03  5.000000E-01  9.999981E-01  1.637406E-03  0.000000E+00  1.055071E-03 -1.482591E-02 -8.522962E-20 -1.812317E-01  0.000000E+00
  9.900000E-01  1.761625E-03  5.000000E-01  9.999981E-01  1.716921E-03  0.000000E+00 -5.252114E-04 -1.396015E-02  7.228580E-17 -6.095907E-03  0.000000E+00
  9.900000E-01  1.840345E-03  5.000000E-01  9.999981E-01  1.796437E-03  0.000000E+00 -2.961513E-04  2.308762E-03  7.451760E-17 -1.076442E-02  0.000000E+00
  9.900000E-01  1.919056E-03  5.000000E-01  9.999981E-01  1.875942E-03  0.000000E+00  7.040075E-04  3.753746E-03  9.717770E-17 -1.274410E-01  0.000000E+00
  9.900000E-01  1.997776E-03  5.000000E-01  9.999981E-01  1.955457E-03  0.000000E+00  5.807056E-03 -2.615577E-03  1.407998E-16 -3.456509E-02  0.000000E+00
  9.900000E-01  1.997776E-03  5.000000E-01  9.999981E-01  1.955457E-03  0.000000E+00  5.807056E-03 -2.615577E-03  1.407998E-16 -3.456509E-02  0.000000E+00
  9.897900E-01  2.043569E-03  5.000000E-01  9.997860E-01  2.001712E-03  0.000000E+00  7.545661E-03 -1.972157E-03  1.076982E-16  1.055195E-01  0.000000E+00
  9.891580E-01  2.180891E-03  5.000000E-01  9.991476E-01  2.140421E-03  0.000000E+00  4.657566E-03 -9.512299E-04  4.188631E-17  6.356237E-02  0.000000E+00
  9.881040E-01  2.409519E-03  5.000000E-01  9.980829E-01  2.371358E-03  0.000000E+00  3.902960E-03 -8.437950E-04  1.032444E-17  5.387604E-02  0.000000E+00
  9.866260E-01  2.729086E-03  5.000000E-01  9.965900E-01  2.694153E-03  0.000000E+00  3.718705E-03 -8.079520E-04  6.385191E-20  5.560145E-02  0.000000E+00
  9.847200E-01  3.139071E-03  5.000000E-01  9.946648E-01  3.108279E-03  0.000000E+00  3.644600E-03 -7.810027E-04 -2.599267E-18  5.030679E-02  0.000000E+00
  9.823820E-01  3.638748E-03  5.000000E-01  9.923032E-01  3.613002E-03  0.000000E+00  3.703943E-03 -7.879826E-04 -2.400288E-18  4.223993E-02  0.000000E+00
  9.796080E-01  4.227149E-03  5.000000E-01  9.895011E-01  4.207345E-03  0.000000E+00  3.873909E-03 -8.177986E-04 -1.037080E-18  3.338180E-02  0.000000E+00
  9.763910E-01  4.903092E-03  5.000000E-01  9.862516E-01  4.890114E-03  0.000000E+00  4.112426E-03 -8.595393E-04 -1.656152E-19  2.323489E-02  0.000000E+00
  9.727270E-01  5.664994E-03  5.000000E-01  9.825506E-01  5.659711E-03  0.000000E+00  4.391632E-03 -9.073246E-04  1.921412E-19  1.170870E-02  0.000000E+00
  9.686070E-01  6.511078E-03  5.000000E-01  9.783890E-01  6.514340E-03  0.000000E+00  4.694928E-03 -9.571996E-04  6.180626E-19 -9.500716E-04  0.000000E+00
  9.640240E-01  7.439122E-03  5.000000E-01  9.737598E-01  7.451756E-03  0.000000E+00  5.013074E-03 -1.006759E-03  1.115472E-18 -1.457509E-02  0.000000E+00
  9.589680E-01  8.446589E-03  5.000000E-01  9.686527E-01  8.469398E-03  0.000000E+00  5.341831E-03 -1.054794E-03  6.751629E-19 -2.901826E-02  0.000000E+00
  9.534310E-01  9.530511E-03  5.000000E-01  9.630598E-01  9.564266E-03  0.000000E+00  5.679009E-03 -1.100564E-03 -9.446763E-20 -4.413047E-02  0.000000E+00
  9.474030E-01  1.068757E-02  5.000000E-01  9.569709E-01  1.073301E-02  0.000000E+00  6.022214E-03 -1.143111E-03  4.295698E-19 -5.967491E-02  0.000000E+00
  9.408720E-01  1.191411E-02  5.000000E-01  9.503739E-01  1.197194E-02  0.000000E+00  6.367694E-03 -1.181555E-03  9.582922E-19 -7.547107E-02  0.000000E+00
  9.338280E-01  1.320612E-02  5.000000E-01  9.432588E-01  1.327700E-02  0.000000E+00  6.710827E-03 -1.215056E-03  9.387934E-19 -9.135417E-02  0.000000E+00
  9.262600E-01  1.455940E-02  5.000000E-01  9.356144E-01  1.464394E-02  0.000000E+00  7.046279E-03 -1.242516E-03 -1.615237E-19 -1.070882E-01  0.000000E+00
  9.181550E-01  1.596937E-02  5.000000E-01  9.274275E-01  1.606816E-02  0.000000E+00  7.367800E-03 -1.262984E-03 -1.102280E-18 -1.224975E-01  0.000000E+00
  9.095020E-01  1.743146E-02  5.000000E-01  9.186871E-01  1.754501E-02  0.000000E+00  7.668513E-03 -1.275543E-03  6.865705E-20 -1.372979E-01  0.000000E+00
  9.002880E-01  1.894075E-02  5.000000E-01  9.093801E-01  1.906954E-02  0.000000E+00  7.940340E-03 -1.279431E-03  1.070721E-19 -1.509923E-01  0.000000E+00
  8.905020E-01  2.049237E-02  5.000000E-01  8.994953E-01  2.063683E-02  0.000000E+00  8.174039E-03 -1.275402E-03 -9.714968E-19 -1.632834E-01  0.000000E+00
  8.801320E-01  2.208494E-02  5.000000E-01  8.890205E-01  2.224548E-02  0.000000E+00  8.362191E-03 -1.266086E-03  8.345839E-20 -1.742926E-01  0.000000E+00
  8.691700E-01  2.372129E-02  5.000000E-01  8.779478E-01  2.389835E-02  0.000000E+00  8.502726E-03 -1.254352E-03  8.281662E-19 -1.843036E-01  0.000000E+00
  8.691700E-01  2.372129E-02  5.000000E-01  8.779478E-01  2.389835E-02  0.000000E+00  8.502726E-03 -1.254352E-03  8.281662E-19 -1.843036E-01  0.000000E+00
  8.576080E-01  2.540699E-02  5.000000E-01  8.662691E-01  2.560108E-02  0.000000E+00  8.599958E-03 -1.242873E-03  8.848545E-19 -1.935289E-01  0.000000E+00
  8.454380E-01  2.715056E-02  5.000000E-01  8.539761E-01  2.736226E-02  0.000000E+00  8.664078E-03 -1.235260E-03  1.010854E-18 -2.022696E-01  0.000000E+00
  8.326580E-01  2.896420E-02  5.000000E-01  8.410671E-01  2.919422E-02  0.000000E+00  8.711597E-03 -1.235855E-03  4.651701E-19 -2.112412E-01  0.000000E+00
  8.192630E-01  3.086410E-02  5.000000E-01  8.275368E-01  3.111331E-02  0.000000E+00  8.766339E-03 -1.249499E-03 -1.043829E-19 -2.221576E-01  0.000000E+00
  8.052550E-01  3.286982E-02  5.000000E-01  8.133873E-01  3.313928E-02  0.000000E+00  8.860254E-03 -1.279389E-03 -9.134201E-19 -2.374575E-01  0.000000E+00
  7.906370E-01  3.499708E-02  5.000000E-01  7.986217E-01  3.528802E-02  0.000000E+00  9.029254E-03 -1.322000E-03 -2.080936E-18 -2.583256E-01  0.000000E+00
  7.754120E-01  3.723920E-02  5.000000E-01  7.832429E-01  3.755278E-02  0.000000E+00  9.298702E-03 -1.367246E-03 -1.087434E-18 -2.838424E-01  0.000000E+00
  7.595880E-01  3.956222E-02  5.000000E-01  7.672591E-01  3.989927E-02  0.000000E+00  9.668392E-03 -1.405811E-03 -3.722321E-19 -3.126830E-01  0.000000E+00
  7.431760E-01  4.192584E-02  5.000000E-01  7.506814E-01  4.228676E-02  0.000000E+00  1.011273E-02 -1.430507E-03 -1.425503E-19 -3.432935E-01  0.000000E+00
  7.261880E-01  4.428697E-02  5.000000E-01  7.335218E-01  4.467173E-02  0.000000E+00  1.058900E-02 -1.434140E-03  9.710692E-19 -3.727633E-01  0.000000E+00
  7.086430E-01  4.660448E-02  5.000000E-01  7.157996E-01  4.701265E-02  0.000000E+00  1.104566E-02 -1.413467E-03 -2.906505E-19 -3.975321E-01  0.000000E+00
  6.905640E-01  4.884840E-02  5.000000E-01  6.975381E-01  4.927923E-02  0.000000E+00  1.143545E-02 -1.375382E-03 -7.787958E-19 -4.161321E-01  0.000000E+00
  6.719770E-01  5.101545E-02  5.000000E-01  6.787634E-01  5.146817E-02  0.000000E+00  1.173524E-02 -1.339641E-03  7.168753E-19 -4.321400E-01  0.000000E+00
  6.529150E-01  5.314465E-02  5.000000E-01  6.595088E-01  5.361887E-02  0.000000E+00  1.196982E-02 -1.322262E-03  6.631551E-19 -4.511968E-01  0.000000E+00
  6.334180E-01  5.527408E-02  5.000000E-01  6.398149E-01  5.576980E-02  0.000000E+00  1.220719E-02 -1.317416E-03  4.473122E-19 -4.757446E-01  0.000000E+00
  6.135280E-01  5.739486E-02  5.000000E-01  6.197241E-01  5.791200E-02  0.000000E+00  1.251517E-02 -1.312207E-03  6.979379E-19 -5.066737E-01  0.000000E+00
  5.932910E-01  5.947995E-02  5.000000E-01  5.992827E-01  6.001815E-02  0.000000E+00  1.293298E-02 -1.297075E-03  3.432431E-19 -5.438361E-01  0.000000E+00
  5.727570E-01  6.148404E-02  5.000000E-01  5.785413E-01  6.204248E-02  0.000000E+00  1.346572E-02 -1.257794E-03 -1.868717E-19 -5.829923E-01  0.000000E+00
  5.519810E-01  6.334323E-02  5.000000E-01  5.575555E-01  6.392044E-02  0.000000E+00  1.407694E-02 -1.179751E-03 -3.589880E-19 -6.176051E-01  0.000000E+00
  5.310180E-01  6.498826E-02  5.000000E-01  5.363808E-01  6.558209E-02  0.000000E+00  1.469161E-02 -1.070187E-03 -1.608833E-19 -6.461850E-01  0.000000E+00
  5.099250E-01  6.640968E-02  5.000000E-01  5.150748E-01  6.701786E-02  0.000000E+00  1.524215E-02 -9.523212E-04  1.050198E-19 -6.725674E-01  0.000000E+00
  4.887640E-01  6.763026E-02  5.000000E-01  4.937001E-01  6.825077E-02  0.000000E+00  1.571655E-02 -8.305729E-04 -2.018938E-19 -6.981284E-01  0.000000E+00
  4.675910E-01  6.865041E-02  5.000000E-01  4.723132E-01  6.928122E-02  0.000000E+00  1.613990E-02 -6.953029E-04 -3.925249E-19 -7.216142E-01  0.000000E+00
  7.860720E-05 -4.134994E-04  5.000000E-01  7.940614E-05 -4.801699E-04  0.000000E+00 -1.635502E-02  4.849051E-02 -1.383142E-15  6.655843E-01  0.000000E+00
  3.989240E-04 -9.707410E-04  5.000000E-01  4.029578E-04 -1.043039E-03  0.000000E+00 -1.566885E-02  2.220040E-02 -1.216491E-15  1.053673E+00  0.000000E+00
  1.196920E-03 -1.650042E-03  5.000000E-01  1.209013E-03 -1.729201E-03  0.000000E+00 -6.412549E-03  5.340305E-03 -8.380474E-16  1.094329E+00  0.000000E+00
  2.563580E-03 -2.368810E-03  5.000000E-01  2.589475E-03 -2.455228E-03  0.000000E+00  2.613198E-03 -9.404084E-04 -4.230084E-16  9.624823E-01  0.000000E+00
  4.492740E-03 -3.090830E-03  5.000000E-01  4.538118E-03 -3.184539E-03  0.000000E+00  7.984888E-03 -2.605254E-03 -1.017838E-16  8.432168E-01  0.000000E+00
  6.952190E-03 -3.813863E-03  5.000000E-01  7.022406E-03 -3.914874E-03  0.000000E+00  1.066542E-02 -2.891670E-03  5.603605E-17  7.581962E-01  0.000000E+00
  9.910730E-03 -4.558399E-03  5.000000E-01  1.001082E-02 -4.666929E-03  0.000000E+00  1.198099E-02 -2.877704E-03  8.050951E-17  6.891366E-01  0.000000E+00
  1.334950E-02 -5.348393E-03  5.000000E-01  1.348432E-02 -5.464901E-03  0.000000E+00  1.268210E-02 -2.765472E-03  4.668055E-17  6.212817E-01  0.000000E+00
  1.728780E-02 -6.164588E-03  5.000000E-01  1.746240E-02 -6.289339E-03  0.000000E+00  1.307342E-02 -2.517159E-03  1.148285E-17  5.489005E-01  0.000000E+00
  2.175590E-02 -6.960671E-03  5.000000E-01  2.197562E-02 -7.093462E-03  0.000000E+00  1.326892E-02 -2.161414E-03 -5.044276E-18  4.809069E-01  0.000000E+00
  2.676920E-02 -7.700120E-03  5.000000E-01  2.703955E-02 -7.840379E-03  0.000000E+00  1.335071E-02 -1.790245E-03 -7.406004E-18  4.274923E-01  0.000000E+00
  3.232800E-02 -8.370215E-03  5.000000E-01  3.265449E-02 -8.517241E-03  0.000000E+00  1.338205E-02 -1.468830E-03 -4.333927E-18  3.897468E-01  0.000000E+00
  3.842930E-02 -8.974229E-03  5.000000E-01  3.881741E-02 -9.127355E-03  0.000000E+00  1.339143E-02 -1.215841E-03 -1.095758E-18  3.624159E-01  0.000000E+00
  4.507220E-02 -9.523032E-03  5.000000E-01  4.552739E-02 -9.681700E-03  0.000000E+00  1.339843E-02 -1.038807E-03  8.836659E-19  3.415322E-01  0.000000E+00
  5.225680E-02 -1.004305E-02  5.000000E-01  5.278455E-02 -1.020697E-02  0.000000E+00  1.343089E-02 -9.377074E-04  7.375870E-19  3.247975E-01  0.000000E+00
  5.998640E-02 -1.056328E-02  5.000000E-01  6.059221E-02 -1.073245E-02  0.000000E+00  1.349418E-02 -8.782703E-04 -2.774308E-19  3.072523E-01  0.000000E+00
  6.827110E-02 -1.108520E-02  5.000000E-01  6.896058E-02 -1.125965E-02  0.000000E+00  1.356510E-02 -8.208250E-04  1.219349E-19  2.860634E-01  0.000000E+00
  7.712280E-02 -1.159886E-02  5.000000E-01  7.790167E-02 -1.177849E-02  0.000000E+00  1.362256E-02 -7.548624E-04  8.824633E-21  2.638579E-01  0.000000E+00
  8.655260E-02 -1.209624E-02  5.000000E-01  8.742671E-02 -1.228090E-02  0.000000E+00  1.365274E-02 -6.794990E-04 -5.653581E-19  2.430587E-01  0.000000E+00
  9.657140E-02 -1.256524E-02  5.000000E-01  9.754669E-02 -1.275463E-02  0.000000E+00  1.363719E-02 -5.856782E-04 -2.896667E-19  2.233730E-01  0.000000E+00
  1.071900E-01 -1.298054E-02  5.000000E-01  1.082725E-01 -1.317412E-02  0.000000E+00  1.356235E-02 -4.718232E-04  1.278906E-19  2.052674E-01  0.000000E+00
  1.184180E-01 -1.332184E-02  5.000000E-01  1.196139E-01 -1.351887E-02  0.000000E+00  1.343621E-02 -3.549360E-04  1.422845E-19  1.911418E-01  0.000000E+00
  1.302610E-01 -1.358651E-02  5.000000E-01  1.315765E-01 -1.378621E-02  0.000000E+00  1.327752E-02 -2.517921E-04 -1.566447E-20  1.815827E-01  0.000000E+00
  1.427230E-01 -1.378001E-02  5.000000E-01  1.441644E-01 -1.398167E-02  0.000000E+00  1.309819E-02 -1.682585E-04  7.927713E-20  1.750885E-01  0.000000E+00
  1.427230E-01 -1.378001E-02  5.000000E-01  1.441644E-01 -1.398167E-02  0.000000E+00  1.309819E-02 -1.682585E-04  7.927713E-20  1.750885E-01  0.000000E+00
  1.558070E-01 -1.391272E-02  5.000000E-01  1.573805E-01 -1.411572E-02  0.000000E+00  1.289716E-02 -9.911949E-05 -1.015019E-19  1.698135E-01  0.000000E+00
  1.695140E-01 -1.398434E-02  5.000000E-01  1.712259E-01 -1.418806E-02  0.000000E+00  1.266736E-02 -3.401559E-05  1.427552E-19  1.647736E-01  0.000000E+00
  1.838420E-01 -1.398591E-02  5.000000E-01  1.856986E-01 -1.418965E-02  0.000000E+00  1.241318E-02  2.965516E-05  2.484098E-19  1.607929E-01  0.000000E+00
  1.987870E-01 -1.391181E-02  5.000000E-01  2.007946E-01 -1.411480E-02  0.000000E+00  1.216086E-02  8.330482E-05  3.735724E-20  1.592802E-01  0.000000E+00
  2.143420E-01 -1.377445E-02  5.000000E-01  2.165067E-01 -1.397606E-02  0.000000E+00  1.195433E-02  1.118536E-04  1.711647E-19  1.607369E-01  0.000000E+00
  2.304940E-01 -1.361425E-02  5.000000E-01  2.328218E-01 -1.381423E-02  0.000000E+00  1.183392E-02  1.070214E-04  3.807425E-19  1.632149E-01  0.000000E+00
  2.472290E-01 -1.347773E-02  5.000000E-01  2.497258E-01 -1.367634E-02  0.000000E+00  1.181581E-02  7.349631E-05  1.341791E-19  1.634446E-01  0.000000E+00
  2.645310E-01 -1.340416E-02  5.000000E-01  2.672025E-01 -1.360203E-02  0.000000E+00  1.188197E-02  3.090173E-05 -5.782179E-20  1.584530E-01  0.000000E+00
  2.823750E-01 -1.338837E-02  5.000000E-01  2.852267E-01 -1.358607E-02  0.000000E+00  1.198573E-02  7.408814E-06  2.614383E-19  1.470323E-01  0.000000E+00
  3.007320E-01 -1.338242E-02  5.000000E-01  3.037691E-01 -1.358006E-02  0.000000E+00  1.207633E-02  1.991380E-05 -9.428300E-20  1.317604E-01  0.000000E+00
  3.195690E-01 -1.332636E-02  5.000000E-01  3.227964E-01 -1.352344E-02  0.000000E+00  1.211634E-02  6.974282E-05 -1.930078E-20  1.165783E-01  0.000000E+00
  3.388440E-01 -1.316131E-02  5.000000E-01  3.422660E-01 -1.335672E-02  0.000000E+00  1.208965E-02  1.435055E-04  7.206245E-19  1.048067E-01  0.000000E+00
  3.585140E-01 -1.286135E-02  5.000000E-01  3.621347E-01 -1.305373E-02  0.000000E+00  1.199876E-02  2.213075E-04  5.340662E-19  9.817060E-02  0.000000E+00
  3.785290E-01 -1.242747E-02  5.000000E-01  3.823518E-01 -1.261547E-02  0.000000E+00  1.184994E-02  2.937948E-04 -1.797931E-19  9.543735E-02  0.000000E+00
  3.988350E-01 -1.186026E-02  5.000000E-01  4.028629E-01 -1.204253E-02  0.000000E+00  1.165051E-02  3.606501E-04 -4.186484E-19  9.499576E-02  0.000000E+00
  4.193750E-01 -1.116151E-02  5.000000E-01  4.236103E-01 -1.133673E-02  0.000000E+00  1.141411E-02  4.264190E-04 -6.168791E-19  9.626719E-02  0.000000E+00
  4.400850E-01 -1.031750E-02  5.000000E-01  4.445295E-01 -1.048419E-02  0.000000E+00  1.116542E-02  4.934149E-04 -3.964620E-19  9.946826E-02  0.000000E+00
  4.609060E-01 -9.324291E-03  5.000000E-01  4.655607E-01 -9.480953E-03  0.000000E+00  1.093983E-02  5.486532E-04  1.390378E-19  1.056775E-01  0.000000E+00
  4.818030E-01 -8.222124E-03  5.000000E-01  4.866688E-01 -8.367654E-03  0.000000E+00  1.076776E-02  5.662830E-04 -6.568290E-19  1.160486E-01  0.000000E+00
  5.027520E-01 -7.121682E-03  5.000000E-01  5.078293E-01 -7.256099E-03  0.000000E+00  1.063373E-02  5.481695E-04 -1.002410E-18  1.271476E-01  0.000000E+00
  5.237130E-01 -6.065350E-03  5.000000E-01  5.290020E-01 -6.189099E-03  0.000000E+00  1.045459E-02  5.464348E-04 -7.314928E-19  1.310855E-01  0.000000E+00
  5.446170E-01 -4.939257E-03  5.000000E-01  5.501171E-01 -5.051634E-03  0.000000E+00  1.014001E-02  6.023601E-04 -9.353843E-19  1.274407E-01  0.000000E+00
  5.653940E-01 -3.583337E-03  5.000000E-01  5.711040E-01 -3.682020E-03  0.000000E+00  9.690236E-03  6.809206E-04 -5.666333E-19  1.298365E-01  0.000000E+00
  4.675910E-01  6.865041E-02  5.000000E-01  4.723132E-01  6.928122E-02  0.000000E+00  1.613990E-02 -6.953029E-04 -3.925249E-19 -7.216142E-01  0.000000E+00
  4.464640E-01  6.945565E-02  5.000000E-01  4.509729E-01  7.009460E-02  0.000000E+00  1.653544E-02 -5.496309E-04  2.219513E-21 -7.440848E-01  0.000000E+00
  4.254410E-01  7.005366E-02  5.000000E-01  4.297376E-01  7.069865E-02  0.000000E+00  1.692521E-02 -3.993394E-04 -6.002956E-19 -7.674720E-01  0.000000E+00
  4.045840E-01  7.044657E-02  5.000000E-01  4.086699E-01  7.109552E-02  0.000000E+00  1.733402E-02 -2.392897E-04 -5.260763E-19 -7.920440E-01  0.000000E+00
  3.839530E-01  7.062978E-02  5.000000E-01  3.878306E-01  7.128058E-02  0.000000E+00  1.777808E-02 -6.198013E-05 -4.726842E-19 -8.172796E-01  0.000000E+00
  3.636060E-01  7.059371E-02  5.000000E-01  3.672781E-01  7.124415E-02  0.000000E+00  1.826161E-02  1.384218E-04 -7.166075E-19 -8.421199E-01  0.000000E+00
  3.435960E-01  7.032918E-02  5.000000E-01  3.470660E-01  7.097695E-02  0.000000E+00  1.877716E-02  3.651584E-04 -5.142981E-19 -8.655210E-01  0.000000E+00
  3.239710E-01  6.982873E-02  5.000000E-01  3.272428E-01  7.047144E-02  0.000000E+00  1.930865E-02  6.169944E-04 -2.924146E-19 -8.873582E-01  0.000000E+00
  3.047740E-01  6.909427E-02  5.000000E-01  3.078519E-01  6.972957E-02  0.000000E+00  1.984081E-02  8.914966E-04 -1.160212E-19 -9.078530E-01  0.000000E+00
  2.860450E-01  6.813087E-02  5.000000E-01  2.889338E-01  6.875643E-02  0.000000E+00  2.036651E-02  1.193640E-03 -4.998473E-19 -9.257007E-01  0.000000E+00
  2.678190E-01  6.693554E-02  5.000000E-01  2.705237E-01  6.754904E-02  0.000000E+00  2.087411E-02  1.526450E-03 -6.565547E-19 -9.392315E-01  0.000000E+00
  2.501300E-01  6.551164E-02  5.000000E-01  2.526561E-01  6.611075E-02  0.000000E+00  2.134075E-02  1.882456E-03 -1.435525E-19 -9.478675E-01  0.000000E+00
  2.330040E-01  6.387138E-02  5.000000E-01  2.353571E-01  6.445393E-02  0.000000E+00  2.174421E-02  2.251963E-03 -1.640095E-19 -9.510535E-01  0.000000E+00
  2.164660E-01  6.203198E-02  5.000000E-01  2.186521E-01  6.259595E-02  0.000000E+00  2.207073E-02  2.626532E-03 -5.621147E-19 -9.477121E-01  0.000000E+00
  2.005340E-01  6.001414E-02  5.000000E-01  2.025592E-01  6.055774E-02  0.000000E+00  2.231621E-02  2.996489E-03  5.443509E-19 -9.371664E-01  0.000000E+00
  1.852230E-01  5.784343E-02  5.000000E-01  1.870936E-01  5.836510E-02  0.000000E+00  2.248612E-02  3.348343E-03  6.052585E-19 -9.213386E-01  0.000000E+00
  1.705440E-01  5.555391E-02  5.000000E-01  1.722663E-01  5.605245E-02  0.000000E+00  2.260185E-02  3.672054E-03 -2.790313E-21 -9.059358E-01  0.000000E+00
  1.565000E-01  5.318040E-02  5.000000E-01  1.580805E-01  5.365498E-02  0.000000E+00  2.270923E-02  3.973532E-03  3.816062E-19 -8.986143E-01  0.000000E+00
  1.430940E-01  5.075282E-02  5.000000E-01  1.445391E-01  5.120288E-02  0.000000E+00  2.288053E-02  4.291274E-03  5.527007E-20 -9.023574E-01  0.000000E+00
  1.303270E-01  4.827560E-02  5.000000E-01  1.316432E-01  4.870065E-02  0.000000E+00  2.318357E-02  4.698471E-03  3.103734E-19 -9.085957E-01  0.000000E+00
  1.182110E-01  4.571824E-02  5.000000E-01  1.194048E-01  4.611745E-02  0.000000E+00  2.360129E-02  5.232157E-03  1.299451E-19 -9.033236E-01  0.000000E+00
  1.067560E-01  4.306217E-02  5.000000E-01  1.078341E-01  4.343456E-02  0.000000E+00  2.400746E-02  5.851158E-03 -4.192057E-19 -8.776045E-01  0.000000E+00
  9.596750E-02  4.030830E-02  5.000000E-01  9.693669E-02  4.065288E-02  0.000000E+00  2.423031E-02  6.428842E-03 -4.490256E-19 -8.381141E-01  0.000000E+00
  8.582800E-02  3.751436E-02  5.000000E-01  8.669479E-02  3.783073E-02  0.000000E+00  2.419802E-02  6.853321E-03 -5.511040E-19 -8.014107E-01  0.000000E+00
  8.582800E-02  3.751436E-02  5.000000E-01  8.669479E-02  3.783073E-02  0.000000E+00  2.419802E-02  6.853321E-03 -5.511040E-19 -8.014107E-01  0.000000E+00
  7.631050E-02  3.474401E-02  5.000000E-01  7.708117E-02  3.503239E-02  0.000000E+00  2.401935E-02  7.187791E-03  7.759499E-19 -7.708743E-01  0.000000E+00
  6.740780E-02  3.200713E-02  5.000000E-01  6.808856E-02  3.226787E-02  0.000000E+00  2.383382E-02  7.549645E-03  2.724399E-18 -7.400108E-01  0.000000E+00
  5.911740E-02  2.930356E-02  5.000000E-01  5.971444E-02  2.953700E-02  0.000000E+00  2.368742E-02  7.958520E-03  2.208608E-18 -7.062129E-01  0.000000E+00
  5.143150E-02  2.664523E-02  5.000000E-01  5.195092E-02  2.685183E-02  0.000000E+00  2.356287E-02  8.385181E-03  3.178580E-19 -6.701258E-01  0.000000E+00
  4.433770E-02  2.404974E-02  5.000000E-01  4.478547E-02  2.423013E-02  0.000000E+00  2.342898E-02  8.808481E-03 -6.915243E-20 -6.341788E-01  0.000000E+00
  3.782240E-02  2.153407E-02  5.000000E-01  3.820438E-02  2.168905E-02  0.000000E+00  2.327091E-02  9.231830E-03  2.453807E-18 -6.021407E-01  0.000000E+00
  3.187460E-02  1.911017E-02  5.000000E-01  3.219651E-02  1.924067E-02  0.000000E+00  2.310472E-02  9.681096E-03  5.356006E-18 -5.771493E-01  0.000000E+00
  2.648400E-02  1.678821E-02  5.000000E-01  2.675147E-02  1.689526E-02  0.000000E+00  2.296703E-02  1.022065E-02  8.491885E-18 -5.537313E-01  0.000000E+00
  2.164990E-02  1.456878E-02  5.000000E-01  2.186855E-02  1.465342E-02  0.000000E+00  2.283168E-02  1.090290E-02  1.393150E-17 -5.157706E-01  0.000000E+00
  1.737670E-02  1.245109E-02  5.000000E-01  1.755219E-02  1.251434E-02  0.000000E+00  2.253670E-02  1.159661E-02  1.827099E-17 -4.574085E-01  0.000000E+00
  1.364080E-02  1.045684E-02  5.000000E-01  1.377856E-02  1.049995E-02  0.000000E+00  2.191668E-02  1.203255E-02  2.047454E-17 -3.969891E-01  0.000000E+00
  1.039090E-02  8.619997E-03  5.000000E-01  1.049584E-02  8.644556E-03  0.000000E+00  2.100400E-02  1.214515E-02  1.962254E-17 -3.591189E-01  0.000000E+00
  7.586340E-03  6.959139E-03  5.000000E-01  7.662960E-03  6.966925E-03  0.000000E+00  2.003131E-02  1.225109E-02  4.960470E-18 -3.514205E-01  0.000000E+00
  5.226210E-03  5.467748E-03  5.000000E-01  5.278995E-03  5.460473E-03  0.000000E+00  1.932525E-02  1.286235E-02 -3.810994E-17 -3.698219E-01  0.000000E+00
  3.324300E-03  4.134946E-03  5.000000E-01  3.357877E-03  4.114211E-03  0.000000E+00  1.931809E-02  1.464155E-02 -1.092133E-16 -4.105666E-01  0.000000E+00
  1.883580E-03  2.961004E-03  5.000000E-01  1.902607E-03  2.928413E-03  0.000000E+00  2.036729E-02  1.874637E-02 -1.885960E-16 -4.489354E-01  0.000000E+00
  8.951490E-04  1.955808E-03  5.000000E-01  9.041943E-04  1.913065E-03  0.000000E+00  2.166615E-02  2.655838E-02 -2.659925E-16 -4.203760E-01  0.000000E+00
  3.201820E-04  1.140585E-03  5.000000E-01  3.234206E-04  1.089609E-03  0.000000E+00  2.012747E-02  3.731580E-02 -3.767367E-16 -2.601871E-01  0.000000E+00
  6.852390E-05  5.422859E-04  5.000000E-01  6.922101E-05  4.852680E-04  0.000000E+00  1.351852E-02  4.587312E-02 -5.720346E-16 -3.179121E-02  0.000000E+00
  4.217600E-06  1.816070E-04  5.000000E-01  4.265277E-06  1.209465E-04  0.000000E+00  5.330729E-03  5.038594E-02 -8.205426E-16  4.584823E-02  0.000000E+00
 -5.032520E-09  6.186972E-05  5.000000E-01  0.000000E+00  0.000000E+00  0.000000E+00 -1.043074E-03  6.125145E-02 -1.056643E-15 -7.335736E-03  0.000000E+00
  5.154440E-06 -5.827055E-05  5.000000E-01  5.211578E-06 -1.213536E-04  0.000000E+00 -8.532324E-03  6.660173E-02 -1.277300E-15  1.752730E-01  0.000000E+00