 Title = "ADflow Slice Data"
Variables =  "CoordinateX"  "CoordinateY"  "CoordinateZ"  "XoC"  "YoC"  "ZoC" "VelocityX" "VelocityY" "VelocityZ" "CoefPressure" "Mach" 
Zone T= "Slice_0001 None Absolute Regular z = 0.50000000"
 Nodes =          192  Elements=          184  ZONETYPE=FELINESEG
 DATAPACKING=POINT
  5.653940E-01 -2.668551E-03  5.000000E-01  5.711040E-01 -2.770978E-03  0.000000E+00  9.769038E-03  6.154695E-04  6.569103E-20  1.433665E-01  0.000000E+00
  5.859770E-01 -1.292543E-03  5.000000E-01  5.918948E-01 -1.381074E-03  0.000000E+00  9.468568E-03  6.655104E-04  4.735440E-20  1.502170E-01  0.000000E+00
  6.063060E-01  2.095654E-04  5.000000E-01  6.124291E-01  1.362046E-04  0.000000E+00  9.125831E-03  6.968564E-04  3.928471E-19  1.650491E-01  0.000000E+00
  6.263240E-01  1.789057E-03  5.000000E-01  6.326493E-01  1.731647E-03  0.000000E+00  8.785847E-03  6.981379E-04  1.246422E-18  1.839387E-01  0.000000E+00
  6.459860E-01  3.362868E-03  5.000000E-01  6.525099E-01  3.321353E-03  0.000000E+00  8.480509E-03  6.682757E-04  1.463384E-18  2.038244E-01  0.000000E+00
  6.652460E-01  4.855337E-03  5.000000E-01  6.719644E-01  4.828895E-03  0.000000E+00  8.209798E-03  6.222701E-04  1.188550E-18  2.214358E-01  0.000000E+00
  6.840650E-01  6.246191E-03  5.000000E-01  6.909734E-01  6.233795E-03  0.000000E+00  7.941843E-03  5.827784E-04  4.420716E-19  2.343554E-01  0.000000E+00
  7.024070E-01  7.580875E-03  5.000000E-01  7.095007E-01  7.581958E-03  0.000000E+00  7.642619E-03  5.559519E-04 -5.631766E-19  2.449899E-01  0.000000E+00
  7.202400E-01  8.879694E-03  5.000000E-01  7.275138E-01  8.893894E-03  0.000000E+00  7.301873E-03  5.299355E-04 -5.535012E-19  2.580666E-01  0.000000E+00
  7.375350E-01  1.013170E-02  5.000000E-01  7.449834E-01  1.015854E-02  0.000000E+00  6.931665E-03  4.951059E-04  1.782269E-19  2.746863E-01  0.000000E+00
  7.542690E-01  1.131021E-02  5.000000E-01  7.618864E-01  1.134895E-02  0.000000E+00  6.559085E-03  4.493016E-04  2.163003E-19  2.932628E-01  0.000000E+00
  7.704220E-01  1.238259E-02  5.000000E-01  7.782026E-01  1.243216E-02  0.000000E+00  6.219907E-03  3.939936E-04 -3.374656E-20  3.115806E-01  0.000000E+00
  7.859770E-01  1.331780E-02  5.000000E-01  7.939147E-01  1.337682E-02  0.000000E+00  5.958034E-03  3.230850E-04  3.374452E-19  3.293524E-01  0.000000E+00
  8.009220E-01  1.403968E-02  5.000000E-01  8.090106E-01  1.410599E-02  0.000000E+00  5.817995E-03  2.270040E-04  1.422758E-19  3.467314E-01  0.000000E+00
  8.152480E-01  1.446350E-02  5.000000E-01  8.234813E-01  1.453410E-02  0.000000E+00  5.817322E-03  1.128265E-04  1.483088E-19  3.593681E-01  0.000000E+00
  8.289490E-01  1.458799E-02  5.000000E-01  8.373206E-01  1.465984E-02  0.000000E+00  5.937566E-03 -3.890256E-06  2.050444E-19  3.636134E-01  0.000000E+00
  8.420260E-01  1.445509E-02  5.000000E-01  8.505297E-01  1.452560E-02  0.000000E+00  6.145119E-03 -1.158148E-04  9.803850E-20  3.613398E-01  0.000000E+00
  8.544790E-01  1.411718E-02  5.000000E-01  8.631085E-01  1.418427E-02  0.000000E+00  6.406886E-03 -2.208031E-04  4.160642E-19  3.555433E-01  0.000000E+00
  8.663160E-01  1.362658E-02  5.000000E-01  8.750650E-01  1.368872E-02  0.000000E+00  6.693230E-03 -3.173973E-04  5.816364E-19  3.477734E-01  0.000000E+00
  8.775420E-01  1.303006E-02  5.000000E-01  8.864044E-01  1.308617E-02  0.000000E+00  6.978526E-03 -4.035686E-04  2.091565E-19  3.387717E-01  0.000000E+00
  8.881660E-01  1.236768E-02  5.000000E-01  8.971357E-01  1.241711E-02  0.000000E+00  7.243281E-03 -4.772883E-04 -1.283946E-19  3.291556E-01  0.000000E+00
  8.981970E-01  1.167227E-02  5.000000E-01  9.072680E-01  1.171467E-02  0.000000E+00  7.477168E-03 -5.396504E-04  1.788624E-19  3.197061E-01  0.000000E+00
  9.076460E-01  1.096447E-02  5.000000E-01  9.168124E-01  1.099972E-02  0.000000E+00  7.681329E-03 -5.966432E-04  5.036468E-19  3.113238E-01  0.000000E+00
  9.165220E-01  1.025132E-02  5.000000E-01  9.257781E-01  1.027937E-02  0.000000E+00  7.864823E-03 -6.539325E-04  3.242913E-19  3.040436E-01  0.000000E+00
  9.165220E-01  1.025132E-02  5.000000E-01  9.257781E-01  1.027937E-02  0.000000E+00  7.864823E-03 -6.539325E-04  3.242913E-19  3.040436E-01  0.000000E+00
  9.248360E-01  9.537139E-03  5.000000E-01  9.341760E-01  9.557978E-03  0.000000E+00  8.037607E-03 -7.133881E-04 -1.746876E-21  2.970919E-01  0.000000E+00
  9.325990E-01  8.826301E-03  5.000000E-01  9.420174E-01  8.839961E-03  0.000000E+00  8.208015E-03 -7.757872E-04 -4.570705E-19  2.900352E-01  0.000000E+00
  9.398210E-01  8.122844E-03  5.000000E-01  9.493124E-01  8.129400E-03  0.000000E+00  8.383359E-03 -8.420588E-04 -8.367661E-19  2.827838E-01  0.000000E+00
  9.465130E-01  7.430758E-03  5.000000E-01  9.560719E-01  7.430324E-03  0.000000E+00  8.569966E-03 -9.130270E-04 -6.225195E-19  2.752279E-01  0.000000E+00
  9.526870E-01  6.754152E-03  5.000000E-01  9.623083E-01  6.746886E-03  0.000000E+00  8.772817E-03 -9.893434E-04  3.360690E-19  2.672211E-01  0.000000E+00
  9.583540E-01  6.097433E-03  5.000000E-01  9.680325E-01  6.083534E-03  0.000000E+00  8.995584E-03 -1.071460E-03  9.799323E-19  2.586336E-01  0.000000E+00
  9.635240E-01  5.465364E-03  5.000000E-01  9.732547E-01  5.445082E-03  0.000000E+00  9.241142E-03 -1.159484E-03 -5.825323E-19  2.493436E-01  0.000000E+00
  9.682080E-01  4.863007E-03  5.000000E-01  9.779860E-01  4.836642E-03  0.000000E+00  9.513211E-03 -1.253678E-03 -2.531692E-18  2.392969E-01  0.000000E+00
  9.724140E-01  4.295724E-03  5.000000E-01  9.822345E-01  4.263630E-03  0.000000E+00  9.818770E-03 -1.354572E-03  1.501243E-18  2.284877E-01  0.000000E+00
  9.761510E-01  3.769012E-03  5.000000E-01  9.860093E-01  3.731599E-03  0.000000E+00  1.016829E-02 -1.462608E-03  1.262701E-17  2.168840E-01  0.000000E+00
  9.794290E-01  3.288315E-03  5.000000E-01  9.893204E-01  3.246047E-03  0.000000E+00  1.056884E-02 -1.578296E-03  9.742326E-18  2.044959E-01  0.000000E+00
  9.822540E-01  2.859024E-03  5.000000E-01  9.921739E-01  2.812420E-03  0.000000E+00  1.100590E-02 -1.699778E-03 -3.330848E-17  1.915738E-01  0.000000E+00
  9.846330E-01  2.486166E-03  5.000000E-01  9.945769E-01  2.435797E-03  0.000000E+00  1.142454E-02 -1.815889E-03 -7.490877E-17  1.793669E-01  0.000000E+00
  9.865710E-01  2.174317E-03  5.000000E-01  9.965345E-01  2.120799E-03  0.000000E+00  1.169078E-02 -1.892468E-03  1.126696E-17  1.667388E-01  0.000000E+00
  9.880740E-01  1.927410E-03  5.000000E-01  9.980527E-01  1.871398E-03  0.000000E+00  1.158649E-02 -1.921474E-03  2.524451E-16  1.474590E-01  0.000000E+00
  9.891450E-01  1.748658E-03  5.000000E-01  9.991345E-01  1.690841E-03  0.000000E+00  1.178696E-02 -2.059402E-03  3.581500E-16  1.484183E-01  0.000000E+00
  9.897860E-01  1.640447E-03  5.000000E-01  9.997820E-01  1.581537E-03  0.000000E+00  1.517004E-02 -2.086924E-03 -1.388023E-16  1.958590E-01  0.000000E+00
  9.900000E-01  1.604211E-03  5.000000E-01  9.999981E-01  1.544935E-03  0.000000E+00  1.058520E-02 -4.472185E-03 -1.521279E-15 -4.782534E-02  0.000000E+00
  9.900000E-01  1.682921E-03  5.000000E-01  9.999981E-01  1.624440E-03  0.000000E+00  1.059899E-03 -1.486165E-02 -2.585239E-15 -1.856919E-01  0.000000E+00
  9.900000E-01  1.761642E-03  5.000000E-01  9.999981E-01  1.703956E-03  0.000000E+00 -5.271089E-04 -1.396578E-02 -2.369285E-15 -9.862928E-03  0.000000E+00
  9.900000E-01  1.840362E-03  5.000000E-01  9.999981E-01  1.783471E-03  0.000000E+00 -2.989334E-04  2.412567E-03 -1.374719E-15 -1.457391E-02  0.000000E+00
  9.900000E-01  1.919072E-03  5.000000E-01  9.999981E-01  1.862976E-03  0.000000E+00  7.099315E-04  3.833662E-03  6.241003E-18 -1.322683E-01  0.000000E+00
  9.900000E-01  1.997793E-03  5.000000E-01  9.999981E-01  1.942492E-03  0.000000E+00  5.874447E-03 -2.628896E-03  4.748355E-16 -3.875123E-02  0.000000E+00
  9.900000E-01  1.997793E-03  5.000000E-01  9.999981E-01  1.942492E-03  0.000000E+00  5.874447E-03 -2.628896E-03  4.748355E-16 -3.875123E-02  0.000000E+00
  9.897900E-01  2.043596E-03  5.000000E-01  9.997860E-01  1.988757E-03  0.000000E+00  7.647210E-03 -1.997191E-03  1.112861E-16  1.026225E-01  0.000000E+00
  9.891580E-01  2.180962E-03  5.000000E-01  9.991476E-01  2.127511E-03  0.000000E+00  4.736765E-03 -9.684250E-04  5.085207E-17  6.052964E-02  0.000000E+00
  9.881040E-01  2.409710E-03  5.000000E-01  9.980830E-01  2.358568E-03  0.000000E+00  3.974573E-03 -8.599123E-04  6.925542E-17  5.088580E-02  0.000000E+00
  9.866260E-01  2.729538E-03  5.000000E-01  9.965900E-01  2.681627E-03  0.000000E+00  3.786644E-03 -8.234561E-04  1.816616E-17  5.264200E-02  0.000000E+00
  9.847200E-01  3.140017E-03  5.000000E-01  9.946648E-01  3.096251E-03  0.000000E+00  3.709969E-03 -7.961491E-04 -2.829683E-17  4.732734E-02  0.000000E+00
  9.823820E-01  3.640531E-03  5.000000E-01  9.923032E-01  3.601820E-03  0.000000E+00  3.767783E-03 -8.031416E-04 -2.525218E-17  3.923846E-02  0.000000E+00
  9.796080E-01  4.230241E-03  5.000000E-01  9.895012E-01  4.197485E-03  0.000000E+00  3.936945E-03 -8.332187E-04 -3.540039E-18  3.034517E-02  0.000000E+00
  9.763910E-01  4.908102E-03  5.000000E-01  9.862517E-01  4.882192E-03  0.000000E+00  4.175227E-03 -8.754407E-04  7.376852E-18  2.013609E-02  0.000000E+00
  9.727270E-01  5.672672E-03  5.000000E-01  9.825507E-01  5.654484E-03  0.000000E+00  4.454808E-03 -9.239309E-04  6.533862E-18  8.516634E-03  0.000000E+00
  9.686070E-01  6.522308E-03  5.000000E-01  9.783891E-01  6.512700E-03  0.000000E+00  4.759261E-03 -9.747409E-04  2.640877E-18 -4.272066E-03  0.000000E+00
  9.640240E-01  7.454900E-03  5.000000E-01  9.737598E-01  7.454710E-03  0.000000E+00  5.079642E-03 -1.025485E-03  6.630442E-19 -1.807241E-02  0.000000E+00
  9.589680E-01  8.467992E-03  5.000000E-01  9.686527E-01  8.478034E-03  0.000000E+00  5.412077E-03 -1.074973E-03  3.287547E-19 -3.274532E-02  0.000000E+00
  9.534310E-01  9.558643E-03  5.000000E-01  9.630598E-01  9.579700E-03  0.000000E+00  5.754749E-03 -1.122462E-03 -6.730643E-20 -4.814977E-02  0.000000E+00
  9.474030E-01  1.072349E-02  5.000000E-01  9.569709E-01  1.075631E-02  0.000000E+00  6.105602E-03 -1.166958E-03 -1.746942E-19 -6.405457E-02  0.000000E+00
  9.408720E-01  1.195875E-02  5.000000E-01  9.503740E-01  1.200404E-02  0.000000E+00  6.461156E-03 -1.207507E-03  5.529496E-19 -8.028187E-02  0.000000E+00
  9.338280E-01  1.326014E-02  5.000000E-01  9.432588E-01  1.331858E-02  0.000000E+00  6.816978E-03 -1.243158E-03  7.752995E-19 -9.666527E-02  0.000000E+00
  9.262600E-01  1.462309E-02  5.000000E-01  9.356144E-01  1.469529E-02  0.000000E+00  7.167826E-03 -1.272663E-03  3.183855E-19 -1.129598E-01  0.000000E+00
  9.181550E-01  1.604247E-02  5.000000E-01  9.274275E-01  1.612900E-02  0.000000E+00  7.507396E-03 -1.294895E-03  4.695966E-19 -1.289706E-01  0.000000E+00
  9.095020E-01  1.751299E-02  5.000000E-01  9.186872E-01  1.761437E-02  0.000000E+00  7.828603E-03 -1.308751E-03  6.879246E-19 -1.443878E-01  0.000000E+00
  9.002880E-01  1.902887E-02  5.000000E-01  9.093801E-01  1.914557E-02  0.000000E+00  8.123012E-03 -1.313289E-03  2.946617E-19 -1.586882E-01  0.000000E+00
  8.905020E-01  2.058425E-02  5.000000E-01  8.994953E-01  2.071665E-02  0.000000E+00  8.380853E-03 -1.309088E-03 -6.207195E-19 -1.715439E-01  0.000000E+00
  8.801320E-01  2.217646E-02  5.000000E-01  8.890205E-01  2.232494E-02  0.000000E+00  8.593897E-03 -1.298566E-03 -5.101405E-19 -1.830284E-01  0.000000E+00
  8.691700E-01  2.380666E-02  5.000000E-01  8.779478E-01  2.397161E-02  0.000000E+00  8.758743E-03 -1.284324E-03  1.189345E-19 -1.933618E-01  0.000000E+00
  8.691700E-01  2.380666E-02  5.000000E-01  8.779478E-01  2.397161E-02  0.000000E+00  8.758743E-03 -1.284324E-03  1.189345E-19 -1.933618E-01  0.000000E+00
  8.576080E-01  2.547836E-02  5.000000E-01  8.662691E-01  2.566019E-02  0.000000E+00  8.877568E-03 -1.268701E-03  1.633223E-19 -2.026836E-01  0.000000E+00
  8.454380E-01  2.719753E-02  5.000000E-01  8.539762E-01  2.739672E-02  0.000000E+00  8.957357E-03 -1.254884E-03  3.863956E-19 -2.111990E-01  0.000000E+00
  8.326580E-01  2.897343E-02  5.000000E-01  8.410671E-01  2.919056E-02  0.000000E+00  9.010202E-03 -1.246721E-03 -9.352820E-20 -2.194395E-01  0.000000E+00
  8.192630E-01  3.081924E-02  5.000000E-01  8.275368E-01  3.105501E-02  0.000000E+00  9.054301E-03 -1.248666E-03 -5.987594E-19 -2.287439E-01  0.000000E+00
  8.052550E-01  3.275221E-02  5.000000E-01  8.133874E-01  3.300750E-02  0.000000E+00  9.115184E-03 -1.264119E-03 -2.960876E-19 -2.411120E-01  0.000000E+00
  7.906370E-01  3.478878E-02  5.000000E-01  7.986217E-01  3.506464E-02  0.000000E+00  9.223482E-03 -1.291315E-03  9.146080E-19 -2.576979E-01  0.000000E+00
  7.754120E-01  3.693040E-02  5.000000E-01  7.832430E-01  3.722789E-02  0.000000E+00  9.404569E-03 -1.323674E-03  2.806056E-18 -2.781288E-01  0.000000E+00
  7.595880E-01  3.915885E-02  5.000000E-01  7.672592E-01  3.947884E-02  0.000000E+00  9.667434E-03 -1.355442E-03  2.896291E-18 -3.017745E-01  0.000000E+00
  7.431760E-01  4.144967E-02  5.000000E-01  7.506814E-01  4.179279E-02  0.000000E+00  1.000438E-02 -1.382622E-03  1.579716E-18 -3.280542E-01  0.000000E+00
  7.261880E-01  4.377445E-02  5.000000E-01  7.335218E-01  4.414106E-02  0.000000E+00  1.039628E-02 -1.400460E-03  6.415074E-19 -3.556608E-01  0.000000E+00
  7.086430E-01  4.610194E-02  5.000000E-01  7.157997E-01  4.649205E-02  0.000000E+00  1.081652E-02 -1.404452E-03 -1.359355E-19 -3.826027E-01  0.000000E+00
  6.905640E-01  4.840137E-02  5.000000E-01  6.975381E-01  4.881470E-02  0.000000E+00  1.123591E-02 -1.393853E-03  5.178250E-19 -4.073858E-01  0.000000E+00
  6.719770E-01  5.065148E-02  5.000000E-01  6.787634E-01  5.108753E-02  0.000000E+00  1.163128E-02 -1.375064E-03  1.846329E-18 -4.307753E-01  0.000000E+00
  6.529150E-01  5.285216E-02  5.000000E-01  6.595089E-01  5.331044E-02  0.000000E+00  1.199870E-02 -1.355299E-03  1.691720E-18 -4.548242E-01  0.000000E+00
  6.334180E-01  5.500690E-02  5.000000E-01  6.398150E-01  5.548694E-02  0.000000E+00  1.235603E-02 -1.333527E-03  2.881974E-19 -4.805693E-01  0.000000E+00
  6.135280E-01  5.710313E-02  5.000000E-01  6.197241E-01  5.760435E-02  0.000000E+00  1.272663E-02 -1.305370E-03  5.496568E-19 -5.085287E-01  0.000000E+00
  5.932910E-01  5.912254E-02  5.000000E-01  5.992827E-01  5.964415E-02  0.000000E+00  1.312702E-02 -1.267217E-03  8.158715E-19 -5.386101E-01  0.000000E+00
  5.727570E-01  6.103968E-02  5.000000E-01  5.785413E-01  6.158065E-02  0.000000E+00  1.356244E-02 -1.213582E-03  1.051944E-18 -5.687658E-01  0.000000E+00
  5.519810E-01  6.282190E-02  5.000000E-01  5.575555E-01  6.338087E-02  0.000000E+00  1.402207E-02 -1.139677E-03  1.100270E-18 -5.961915E-01  0.000000E+00
  5.310180E-01  6.443553E-02  5.000000E-01  5.363808E-01  6.501079E-02  0.000000E+00  1.447999E-02 -1.051480E-03 -2.986896E-19 -6.212837E-01  0.000000E+00
  5.099250E-01  6.587698E-02  5.000000E-01  5.150748E-01  6.646680E-02  0.000000E+00  1.491726E-02 -9.616541E-04 -2.337882E-19 -6.476138E-01  0.000000E+00
  4.887640E-01  6.716010E-02  5.000000E-01  4.937001E-01  6.776288E-02  0.000000E+00  1.534589E-02 -8.673464E-04 -2.685803E-19 -6.761170E-01  0.000000E+00
  4.675910E-01  6.827246E-02  5.000000E-01  4.723133E-01  6.888647E-02  0.000000E+00  1.579035E-02 -7.535507E-04  1.575609E-19 -7.042450E-01  0.000000E+00
  7.860720E-05 -4.424296E-04  5.000000E-01  7.940615E-05 -5.223749E-04  0.000000E+00 -1.123560E-02  3.627547E-02  4.911394E-15  7.928911E-01  0.000000E+00
  3.989240E-04 -1.046576E-03  5.000000E-01  4.029579E-04 -1.132622E-03  0.000000E+00 -1.023224E-02  1.602722E-02  2.341250E-15  1.080955E+00  0.000000E+00
  1.196920E-03 -1.778615E-03  5.000000E-01  1.209013E-03 -1.872055E-03  0.000000E+00 -2.692148E-03  2.813730E-03  1.445778E-15  1.079457E+00  0.000000E+00
  2.563580E-03 -2.546327E-03  5.000000E-01  2.589475E-03 -2.647520E-03  0.000000E+00  4.646640E-03 -2.014532E-03  3.074462E-16  9.356452E-01  0.000000E+00
  4.492740E-03 -3.308891E-03  5.000000E-01  4.538118E-03 -3.417785E-03  0.000000E+00  8.996715E-03 -3.102635E-03 -6.636493E-16  8.113138E-01  0.000000E+00
  6.952190E-03 -4.063036E-03  5.000000E-01  7.022406E-03 -4.179546E-03  0.000000E+00  1.118024E-02 -3.147659E-03 -9.215210E-16  7.249779E-01  0.000000E+00
  9.910730E-03 -4.830424E-03  5.000000E-01  1.001082E-02 -4.954684E-03  0.000000E+00  1.231063E-02 -3.032891E-03 -6.795913E-16  6.569277E-01  0.000000E+00
  1.334950E-02 -5.636480E-03  5.000000E-01  1.348432E-02 -5.768881E-03  0.000000E+00  1.297835E-02 -2.871461E-03 -3.767777E-16  5.901002E-01  0.000000E+00
  1.728780E-02 -6.459837E-03  5.000000E-01  1.746240E-02 -6.600553E-03  0.000000E+00  1.337632E-02 -2.579542E-03 -1.996820E-16  5.179444E-01  0.000000E+00
  2.175590E-02 -7.250639E-03  5.000000E-01  2.197562E-02 -7.399342E-03  0.000000E+00  1.355864E-02 -2.174814E-03 -1.108794E-16  4.507355E-01  0.000000E+00
  2.676920E-02 -7.970718E-03  5.000000E-01  2.703955E-02 -8.126692E-03  0.000000E+00  1.359273E-02 -1.757327E-03 -4.482851E-17  3.999085E-01  0.000000E+00
  3.232800E-02 -8.608363E-03  5.000000E-01  3.265449E-02 -8.770777E-03  0.000000E+00  1.355100E-02 -1.400580E-03  8.736970E-18  3.663932E-01  0.000000E+00
  3.842930E-02 -9.169455E-03  5.000000E-01  3.881741E-02 -9.337536E-03  0.000000E+00  1.347636E-02 -1.125685E-03  3.557554E-17  3.440288E-01  0.000000E+00
  4.507220E-02 -9.668207E-03  5.000000E-01  4.552739E-02 -9.841325E-03  0.000000E+00  1.340099E-02 -9.394759E-04  3.562669E-17  3.281918E-01  0.000000E+00
  5.225680E-02 -1.013544E-02  5.000000E-01  5.278455E-02 -1.031327E-02  0.000000E+00  1.336110E-02 -8.397065E-04  2.260746E-17  3.162628E-01  0.000000E+00
  5.998640E-02 -1.060466E-02  5.000000E-01  6.059221E-02 -1.078724E-02  0.000000E+00  1.336429E-02 -7.886663E-04  9.244849E-18  3.029760E-01  0.000000E+00
  6.827110E-02 -1.108063E-02  5.000000E-01  6.896058E-02 -1.126801E-02  0.000000E+00  1.338581E-02 -7.443908E-04  8.062026E-19  2.854207E-01  0.000000E+00
  7.712280E-02 -1.155655E-02  5.000000E-01  7.790168E-02 -1.174874E-02  0.000000E+00  1.340359E-02 -6.960535E-04 -2.864505E-18  2.664093E-01  0.000000E+00
  8.655260E-02 -1.202834E-02  5.000000E-01  8.742671E-02 -1.222529E-02  0.000000E+00  1.340499E-02 -6.429190E-04 -2.957973E-18  2.484265E-01  0.000000E+00
  9.657140E-02 -1.248823E-02  5.000000E-01  9.754669E-02 -1.268983E-02  0.000000E+00  1.337490E-02 -5.757798E-04 -2.109446E-18  2.310298E-01  0.000000E+00
  1.071900E-01 -1.291538E-02  5.000000E-01  1.082725E-01 -1.312129E-02  0.000000E+00  1.330564E-02 -4.927658E-04 -1.335848E-18  2.145055E-01  0.000000E+00
  1.184180E-01 -1.329468E-02  5.000000E-01  1.196139E-01 -1.350442E-02  0.000000E+00  1.321341E-02 -4.104562E-04 -6.438949E-19  2.010845E-01  0.000000E+00
  1.302610E-01 -1.362959E-02  5.000000E-01  1.315765E-01 -1.384271E-02  0.000000E+00  1.312546E-02 -3.446729E-04 -4.087717E-19  1.910734E-01  0.000000E+00
  1.427230E-01 -1.393142E-02  5.000000E-01  1.441644E-01 -1.414759E-02  0.000000E+00  1.305857E-02 -2.994661E-04 -8.481379E-20  1.825938E-01  0.000000E+00
  1.427230E-01 -1.393142E-02  5.000000E-01  1.441644E-01 -1.414759E-02  0.000000E+00  1.305857E-02 -2.994661E-04 -8.481379E-20  1.825938E-01  0.000000E+00
  1.558070E-01 -1.421481E-02  5.000000E-01  1.573805E-01 -1.443385E-02  0.000000E+00  1.300800E-02 -2.662068E-04  3.276030E-19  1.734140E-01  0.000000E+00
  1.695140E-01 -1.447950E-02  5.000000E-01  1.712259E-01 -1.470121E-02  0.000000E+00  1.295067E-02 -2.285172E-04  4.283964E-19  1.623274E-01  0.000000E+00
  1.838420E-01 -1.470861E-02  5.000000E-01  1.856986E-01 -1.493263E-02  0.000000E+00  1.286297E-02 -1.747223E-04  1.306003E-19  1.503351E-01  0.000000E+00
  1.987870E-01 -1.487542E-02  5.000000E-01  2.007946E-01 -1.510113E-02  0.000000E+00  1.273640E-02 -1.027157E-04  1.167545E-19  1.393196E-01  0.000000E+00
  2.143420E-01 -1.495196E-02  5.000000E-01  2.165067E-01 -1.517844E-02  0.000000E+00  1.258754E-02 -2.590167E-05  2.013118E-19  1.313364E-01  0.000000E+00
  2.304940E-01 -1.493735E-02  5.000000E-01  2.328218E-01 -1.516368E-02  0.000000E+00  1.245383E-02  3.100684E-05  2.008257E-19  1.277618E-01  0.000000E+00
  2.472290E-01 -1.486802E-02  5.000000E-01  2.497258E-01 -1.509365E-02  0.000000E+00  1.236585E-02  5.704050E-05  3.516506E-19  1.266745E-01  0.000000E+00
  2.645310E-01 -1.478077E-02  5.000000E-01  2.672025E-01 -1.500552E-02  0.000000E+00  1.232211E-02  6.863608E-05  3.066575E-19  1.234886E-01  0.000000E+00
  2.823750E-01 -1.467360E-02  5.000000E-01  2.852267E-01 -1.489726E-02  0.000000E+00  1.229548E-02  9.160131E-05  1.551881E-19  1.157941E-01  0.000000E+00
  3.007320E-01 -1.451083E-02  5.000000E-01  3.037691E-01 -1.473285E-02  0.000000E+00  1.225885E-02  1.367273E-04  5.672964E-20  1.058413E-01  0.000000E+00
  3.195690E-01 -1.425685E-02  5.000000E-01  3.227964E-01 -1.447631E-02  0.000000E+00  1.219695E-02  1.985925E-04 -4.546153E-20  9.728599E-02  0.000000E+00
  3.388440E-01 -1.388795E-02  5.000000E-01  3.422660E-01 -1.410368E-02  0.000000E+00  1.210159E-02  2.668172E-04 -2.969608E-19  9.192114E-02  0.000000E+00
  3.585140E-01 -1.339627E-02  5.000000E-01  3.621347E-01 -1.360704E-02  0.000000E+00  1.196285E-02  3.348506E-04 -1.775783E-19  8.940853E-02  0.000000E+00
  3.785290E-01 -1.277577E-02  5.000000E-01  3.823518E-01 -1.298027E-02  0.000000E+00  1.176679E-02  4.016050E-04 -2.360268E-19  8.873996E-02  0.000000E+00
  3.988350E-01 -1.201808E-02  5.000000E-01  4.028629E-01 -1.221493E-02  0.000000E+00  1.150509E-02  4.668141E-04 -7.365384E-19  9.009503E-02  0.000000E+00
  4.193750E-01 -1.111605E-02  5.000000E-01  4.236103E-01 -1.130379E-02  0.000000E+00  1.118426E-02  5.334785E-04 -5.598637E-19  9.387856E-02  0.000000E+00
  4.400850E-01 -1.004795E-02  5.000000E-01  4.445295E-01 -1.022491E-02  0.000000E+00  1.083510E-02  6.002484E-04 -4.748104E-19  1.005998E-01  0.000000E+00
  4.609060E-01 -8.811738E-03  5.000000E-01  4.655607E-01 -8.976205E-03  0.000000E+00  1.051730E-02  6.463398E-04 -2.976182E-19  1.119802E-01  0.000000E+00
  4.818030E-01 -7.479990E-03  5.000000E-01  4.866688E-01 -7.631008E-03  0.000000E+00  1.029496E-02  6.430179E-04  1.365451E-19  1.285238E-01  0.000000E+00
  5.027520E-01 -6.196973E-03  5.000000E-01  5.078293E-01 -6.335033E-03  0.000000E+00  1.018125E-02  5.953463E-04  7.679788E-19  1.444806E-01  0.000000E+00
  5.237130E-01 -5.033778E-03  5.000000E-01  5.290020E-01 -5.160092E-03  0.000000E+00  1.011051E-02  5.549931E-04  1.087733E-18  1.506623E-01  0.000000E+00
  5.446170E-01 -3.904772E-03  5.000000E-01  5.501171E-01 -4.019684E-03  0.000000E+00  9.988056E-03  5.663086E-04  4.707061E-19  1.464196E-01  0.000000E+00
  5.653940E-01 -2.668551E-03  5.000000E-01  5.711040E-01 -2.770978E-03  0.000000E+00  9.769038E-03  6.154695E-04  6.569103E-20  1.433665E-01  0.000000E+00
  4.675910E-01  6.827246E-02  5.000000E-01  4.723133E-01  6.888647E-02  0.000000E+00  1.579035E-02 -7.535507E-04  1.575609E-19 -7.042450E-01  0.000000E+00
  4.464640E-01  6.918243E-02  5.000000E-01  4.509729E-01  6.980564E-02  0.000000E+00  1.625470E-02 -6.177899E-04  4.985114E-19 -7.308097E-01  0.000000E+00
  4.254410E-01  6.987788E-02  5.000000E-01  4.297376E-01  7.050810E-02  0.000000E+00  1.672785E-02 -4.667367E-04 -1.873880E-19 -7.564418E-01  0.000000E+00
  4.045840E-01  7.035452E-02  5.000000E-01  4.086699E-01  7.098956E-02  0.000000E+00  1.720093E-02 -3.026070E-04 -1.625219E-19 -7.816323E-01  0.000000E+00
  3.839530E-01  7.061152E-02  5.000000E-01  3.878306E-01  7.124916E-02  0.000000E+00  1.767116E-02 -1.229843E-04 -1.518544E-19 -8.061960E-01  0.000000E+00
  3.636060E-01  7.064411E-02  5.000000E-01  3.672781E-01  7.128207E-02  0.000000E+00  1.813877E-02  7.572615E-05 -3.262485E-19 -8.291433E-01  0.000000E+00
  3.435960E-01  7.044825E-02  5.000000E-01  3.470660E-01  7.108423E-02  0.000000E+00  1.860075E-02  2.947386E-04 -3.804651E-19 -8.494768E-01  0.000000E+00
  3.239710E-01  7.002153E-02  5.000000E-01  3.272428E-01  7.065320E-02  0.000000E+00  1.904831E-02  5.295295E-04 -4.295840E-20 -8.675439E-01  0.000000E+00
  3.047740E-01  6.937370E-02  5.000000E-01  3.078519E-01  6.999884E-02  0.000000E+00  1.947549E-02  7.730847E-04  5.368616E-19 -8.847640E-01  0.000000E+00
  2.860450E-01  6.852090E-02  5.000000E-01  2.889338E-01  6.913742E-02  0.000000E+00  1.989103E-02  1.029402E-03  4.959663E-19 -9.009658E-01  0.000000E+00
  2.678190E-01  6.746696E-02  5.000000E-01  2.705237E-01  6.807283E-02  0.000000E+00  2.030530E-02  1.305793E-03  2.371307E-20 -9.152168E-01  0.000000E+00
  2.501300E-01  6.621713E-02  5.000000E-01  2.526561E-01  6.681039E-02  0.000000E+00  2.071751E-02  1.601164E-03 -1.900028E-19 -9.279217E-01  0.000000E+00
  2.330040E-01  6.478189E-02  5.000000E-01  2.353571E-01  6.536065E-02  0.000000E+00  2.112382E-02  1.912761E-03 -2.271748E-19 -9.399935E-01  0.000000E+00
  2.164660E-01  6.317419E-02  5.000000E-01  2.186521E-01  6.373671E-02  0.000000E+00  2.152566E-02  2.240868E-03  5.461368E-19 -9.513282E-01  0.000000E+00
  2.005340E-01  6.140798E-02  5.000000E-01  2.025592E-01  6.195266E-02  0.000000E+00  2.193318E-02  2.596065E-03  8.509273E-19 -9.589891E-01  0.000000E+00
  1.852230E-01  5.948426E-02  5.000000E-01  1.870936E-01  6.000952E-02  0.000000E+00  2.234521E-02  2.983613E-03  5.749005E-20 -9.605615E-01  0.000000E+00
  1.705440E-01  5.741146E-02  5.000000E-01  1.722663E-01  5.791579E-02  0.000000E+00  2.274101E-02  3.386300E-03  5.692059E-20 -9.595448E-01  0.000000E+00
  1.565000E-01  5.521290E-02  5.000000E-01  1.580805E-01  5.569503E-02  0.000000E+00  2.311577E-02  3.788912E-03  4.865650E-19 -9.634570E-01  0.000000E+00
  1.430940E-01  5.291602E-02  5.000000E-01  1.445391E-01  5.337495E-02  0.000000E+00  2.351066E-02  4.214603E-03  4.891981E-19 -9.753750E-01  0.000000E+00
  1.303270E-01  5.052693E-02  5.000000E-01  1.316432E-01  5.096173E-02  0.000000E+00  2.398538E-02  4.731723E-03 -4.731917E-22 -9.863412E-01  0.000000E+00
  1.182110E-01  4.801758E-02  5.000000E-01  1.194048E-01  4.842704E-02  0.000000E+00  2.452466E-02  5.377012E-03  1.491690E-19 -9.818406E-01  0.000000E+00
  1.067560E-01  4.537293E-02  5.000000E-01  1.078341E-01  4.575568E-02  0.000000E+00  2.500231E-02  6.106058E-03  1.110842E-18 -9.531034E-01  0.000000E+00
  9.596750E-02  4.259802E-02  5.000000E-01  9.693669E-02  4.295275E-02  0.000000E+00  2.524379E-02  6.781131E-03  1.544050E-18 -9.081223E-01  0.000000E+00
  8.582800E-02  3.975675E-02  5.000000E-01  8.669479E-02  4.008278E-02  0.000000E+00  2.518273E-02  7.279880E-03  3.346933E-18 -8.651833E-01  0.000000E+00
  8.582800E-02  3.975675E-02  5.000000E-01  8.669479E-02  4.008278E-02  0.000000E+00  2.518273E-02  7.279880E-03  3.346933E-18 -8.651833E-01  0.000000E+00
  7.631050E-02  3.691891E-02  5.000000E-01  7.708117E-02  3.721628E-02  0.000000E+00  2.494892E-02  7.672299E-03  6.767103E-18 -8.282627E-01  0.000000E+00
  6.740780E-02  3.409765E-02  5.000000E-01  6.808856E-02  3.436652E-02  0.000000E+00  2.470179E-02  8.088929E-03  6.828862E-18 -7.905835E-01  0.000000E+00
  5.911740E-02  3.129498E-02  5.000000E-01  5.971444E-02  3.153556E-02  0.000000E+00  2.449343E-02  8.552982E-03 -2.213245E-18 -7.493952E-01  0.000000E+00
  5.143150E-02  2.852516E-02  5.000000E-01  5.195092E-02  2.873776E-02  0.000000E+00  2.430377E-02  9.032977E-03 -2.902069E-17 -7.054138E-01  0.000000E+00
  4.433770E-02  2.580808E-02  5.000000E-01  4.478548E-02  2.599324E-02  0.000000E+00  2.409680E-02  9.505224E-03 -7.579892E-17 -6.611784E-01  0.000000E+00
  3.782240E-02  2.316280E-02  5.000000E-01  3.820438E-02  2.332125E-02  0.000000E+00  2.385350E-02  9.972055E-03 -1.252781E-16 -6.204580E-01  0.000000E+00
  3.187460E-02  2.060299E-02  5.000000E-01  3.219651E-02  2.073559E-02  0.000000E+00  2.358629E-02  1.045923E-02 -1.352890E-16 -5.862137E-01  0.000000E+00
  2.648400E-02  1.814039E-02  5.000000E-01  2.675147E-02  1.824811E-02  0.000000E+00  2.332854E-02  1.103339E-02 -4.958602E-17 -5.524421E-01  0.000000E+00
  2.164990E-02  1.577654E-02  5.000000E-01  2.186855E-02  1.586040E-02  0.000000E+00  2.305193E-02  1.174822E-02  1.982695E-16 -5.022753E-01  0.000000E+00
  1.737670E-02  1.351156E-02  5.000000E-01  1.755219E-02  1.357253E-02  0.000000E+00  2.260024E-02  1.246246E-02  6.999851E-16 -4.298436E-01  0.000000E+00
  1.364080E-02  1.136985E-02  5.000000E-01  1.377856E-02  1.140919E-02  0.000000E+00  2.183197E-02  1.289644E-02  1.432874E-15 -3.542610E-01  0.000000E+00
  1.039090E-02  9.389440E-03  5.000000E-01  1.049584E-02  9.408788E-03  0.000000E+00  2.081658E-02  1.300093E-02  1.980111E-15 -3.000358E-01  0.000000E+00
  7.586340E-03  7.592113E-03  5.000000E-01  7.662960E-03  7.593310E-03  0.000000E+00  1.981464E-02  1.313723E-02  1.627363E-15 -2.723127E-01  0.000000E+00
  5.226210E-03  5.972720E-03  5.000000E-01  5.278995E-03  5.957562E-03  0.000000E+00  1.913140E-02  1.385007E-02  5.652036E-17 -2.623433E-01  0.000000E+00
  3.324300E-03  4.521425E-03  5.000000E-01  3.357878E-03  4.491610E-03  0.000000E+00  1.904643E-02  1.573709E-02 -2.199607E-15 -2.618530E-01  0.000000E+00
  1.883580E-03  3.240436E-03  5.000000E-01  1.902608E-03  3.197684E-03  0.000000E+00  1.959114E-02  1.964972E-02 -3.894267E-15 -2.471751E-01  0.000000E+00
  8.951490E-04  2.142315E-03  5.000000E-01  9.041943E-04  2.088473E-03  0.000000E+00  1.977114E-02  2.631637E-02 -2.672454E-15 -1.674073E-01  0.000000E+00
  3.201820E-04  1.251629E-03  5.000000E-01  3.234206E-04  1.188792E-03  0.000000E+00  1.720927E-02  3.450481E-02  4.707380E-15  1.828949E-02  0.000000E+00
  6.852390E-05  5.984606E-04  5.000000E-01  6.922101E-05  5.290273E-04  0.000000E+00  1.090476E-02  3.992061E-02  1.760841E-14  2.428547E-01  0.000000E+00
  4.217600E-06  2.051715E-04  5.000000E-01  4.265277E-06  1.317664E-04  0.000000E+00  4.105902E-03  4.146216E-02  2.723289E-14  3.219633E-01  0.000000E+00
 -5.032520E-09  7.472252E-05  5.000000E-01  0.000000E+00  0.000000E+00  0.000000E+00 -6.913590E-04  4.746369E-02  2.413657E-14  2.783597E-01  0.000000E+00
  5.154440E-06 -5.609621E-05  5.000000E-01  5.211579E-06 -1.321399E-04  0.000000E+00 -5.903036E-03  5.018959E-02  1.287310E-14  4.155245E-01  0.000000E+00