 Title = "ADflow Slice Data"
Variables =  "CoordinateX"  "CoordinateY"  "CoordinateZ"  "XoC"  "YoC"  "ZoC" "VelocityX" "VelocityY" "VelocityZ" "CoefPressure" "Mach" 
Zone T= "Slice_0001 None Absolute Regular z = 0.50000000"
 Nodes =          192  Elements=          184  ZONETYPE=FELINESEG
 DATAPACKING=POINT
  5.653940E-01 -2.908088E-03  5.000000E-01  5.711040E-01 -3.007833E-03  0.000000E+00  9.781752E-03  6.244182E-04  2.690697E-19  1.414407E-01  0.000000E+00
  5.859770E-01 -1.512159E-03  5.000000E-01  5.918948E-01 -1.597807E-03  0.000000E+00  9.467142E-03  6.747789E-04  7.048795E-19  1.489375E-01  0.000000E+00
  6.063060E-01  1.063638E-05  5.000000E-01  6.124291E-01 -5.963289E-05  0.000000E+00  9.114215E-03  7.046679E-04  8.858104E-19  1.644886E-01  0.000000E+00
  6.263240E-01  1.607887E-03  5.000000E-01  6.326493E-01  1.553748E-03  0.000000E+00  8.769608E-03  7.034670E-04  6.994706E-19  1.839329E-01  0.000000E+00
  6.459860E-01  3.193799E-03  5.000000E-01  6.525099E-01  3.155677E-03  0.000000E+00  8.465498E-03  6.707591E-04  2.907115E-19  2.041155E-01  0.000000E+00
  6.652460E-01  4.690988E-03  5.000000E-01  6.719644E-01  4.667986E-03  0.000000E+00  8.200922E-03  6.221225E-04 -4.469953E-19  2.217534E-01  0.000000E+00
  6.840650E-01  6.079509E-03  5.000000E-01  6.909734E-01  6.070530E-03  0.000000E+00  7.942010E-03  5.808889E-04 -7.687998E-19  2.344193E-01  0.000000E+00
  7.024070E-01  7.407581E-03  5.000000E-01  7.095007E-01  7.412014E-03  0.000000E+00  7.652538E-03  5.535090E-04 -9.449506E-19  2.446135E-01  0.000000E+00
  7.202400E-01  8.698081E-03  5.000000E-01  7.275138E-01  8.715547E-03  0.000000E+00  7.320661E-03  5.278609E-04 -8.948925E-19  2.572340E-01  0.000000E+00
  7.375350E-01  9.941952E-03  5.000000E-01  7.449834E-01  9.971980E-03  0.000000E+00  6.957585E-03  4.938964E-04 -7.072016E-19  2.734754E-01  0.000000E+00
  7.542690E-01  1.111367E-02  5.000000E-01  7.618864E-01  1.115553E-02  0.000000E+00  6.590142E-03  4.490715E-04 -4.261035E-20  2.917695E-01  0.000000E+00
  7.704220E-01  1.218113E-02  5.000000E-01  7.782026E-01  1.223377E-02  0.000000E+00  6.254261E-03  3.946125E-04  1.947790E-19  3.098907E-01  0.000000E+00
  7.859770E-01  1.311341E-02  5.000000E-01  7.939147E-01  1.317547E-02  0.000000E+00  5.994196E-03  3.243443E-04 -6.805059E-19  3.275260E-01  0.000000E+00
  8.009220E-01  1.383465E-02  5.000000E-01  8.090106E-01  1.390399E-02  0.000000E+00  5.854806E-03  2.287373E-04 -8.208832E-19  3.448010E-01  0.000000E+00
  8.152480E-01  1.426057E-02  5.000000E-01  8.234813E-01  1.433422E-02  0.000000E+00  5.853889E-03  1.149747E-04 -3.429864E-19  3.573656E-01  0.000000E+00
  8.289490E-01  1.438978E-02  5.000000E-01  8.373206E-01  1.446473E-02  0.000000E+00  5.973222E-03 -1.273702E-06 -1.085401E-19  3.615758E-01  0.000000E+00
  8.420260E-01  1.426385E-02  5.000000E-01  8.505297E-01  1.433753E-02  0.000000E+00  6.179371E-03 -1.126135E-04  1.634809E-19  3.592950E-01  0.000000E+00
  8.544790E-01  1.393471E-02  5.000000E-01  8.631085E-01  1.400506E-02  0.000000E+00  6.439347E-03 -2.168836E-04  2.822341E-19  3.535116E-01  0.000000E+00
  8.663160E-01  1.345421E-02  5.000000E-01  8.750650E-01  1.351971E-02  0.000000E+00  6.723568E-03 -3.126390E-04  1.368525E-19  3.457729E-01  0.000000E+00
  8.775420E-01  1.286873E-02  5.000000E-01  8.864044E-01  1.292832E-02  0.000000E+00  7.006451E-03 -3.978843E-04  9.468691E-20  3.368199E-01  0.000000E+00
  8.881660E-01  1.221800E-02  5.000000E-01  8.971357E-01  1.227101E-02  0.000000E+00  7.268555E-03 -4.706337E-04  9.700074E-20  3.272681E-01  0.000000E+00
  8.981970E-01  1.153453E-02  5.000000E-01  9.072680E-01  1.158064E-02  0.000000E+00  7.499630E-03 -5.320326E-04 -1.912213E-19  3.178972E-01  0.000000E+00
  9.076460E-01  1.083873E-02  5.000000E-01  9.168124E-01  1.087782E-02  0.000000E+00  7.700931E-03 -5.881208E-04 -3.005128E-19  3.096066E-01  0.000000E+00
  9.165220E-01  1.013744E-02  5.000000E-01  9.257780E-01  1.016944E-02  0.000000E+00  7.881627E-03 -6.445850E-04  3.493488E-19  3.024269E-01  0.000000E+00
  9.165220E-01  1.013744E-02  5.000000E-01  9.257780E-01  1.016944E-02  0.000000E+00  7.881627E-03 -6.445850E-04  3.493488E-19  3.024269E-01  0.000000E+00
  9.248360E-01  9.434808E-03  5.000000E-01  9.341760E-01  9.459714E-03  0.000000E+00  8.051750E-03 -7.032842E-04  8.385149E-20  2.955778E-01  0.000000E+00
  9.325990E-01  8.735081E-03  5.000000E-01  9.420174E-01  8.752921E-03  0.000000E+00  8.219667E-03 -7.649756E-04 -2.871483E-19  2.886220E-01  0.000000E+00
  9.398210E-01  8.042211E-03  5.000000E-01  9.493123E-01  8.053054E-03  0.000000E+00  8.392697E-03 -8.305676E-04  3.510803E-19  2.814682E-01  0.000000E+00
  9.465130E-01  7.360128E-03  5.000000E-01  9.560719E-01  7.364082E-03  0.000000E+00  8.577158E-03 -9.008640E-04  3.456484E-19  2.740069E-01  0.000000E+00
  9.526870E-01  6.692901E-03  5.000000E-01  9.623083E-01  6.690116E-03  0.000000E+00  8.778004E-03 -9.764980E-04  1.591587E-19  2.660913E-01  0.000000E+00
  9.583540E-01  6.044909E-03  5.000000E-01  9.680325E-01  6.035580E-03  0.000000E+00  8.998877E-03 -1.057906E-03  1.300344E-19  2.575921E-01  0.000000E+00
  9.635240E-01  5.420899E-03  5.000000E-01  9.732547E-01  5.405268E-03  0.000000E+00  9.242609E-03 -1.145179E-03  8.675776E-20  2.483880E-01  0.000000E+00
  9.682080E-01  4.825922E-03  5.000000E-01  9.779860E-01  4.804283E-03  0.000000E+00  9.512867E-03 -1.238566E-03  4.094172E-19  2.384258E-01  0.000000E+00
  9.724140E-01  4.265332E-03  5.000000E-01  9.822345E-01  4.238031E-03  0.000000E+00  9.816556E-03 -1.338571E-03  2.862005E-20  2.277001E-01  0.000000E+00
  9.761510E-01  3.744620E-03  5.000000E-01  9.860092E-01  3.712060E-03  0.000000E+00  1.016407E-02 -1.445610E-03 -1.610437E-18  2.161799E-01  0.000000E+00
  9.794290E-01  3.269229E-03  5.000000E-01  9.893203E-01  3.231869E-03  0.000000E+00  1.056241E-02 -1.560169E-03 -2.768820E-18  2.038757E-01  0.000000E+00
  9.822540E-01  2.844546E-03  5.000000E-01  9.921739E-01  2.802897E-03  0.000000E+00  1.099716E-02 -1.680426E-03  4.566996E-19  1.910375E-01  0.000000E+00
  9.846330E-01  2.475595E-03  5.000000E-01  9.945769E-01  2.430220E-03  0.000000E+00  1.141370E-02 -1.795374E-03  8.241625E-18  1.789136E-01  0.000000E+00
  9.865710E-01  2.166946E-03  5.000000E-01  9.965345E-01  2.118454E-03  0.000000E+00  1.167882E-02 -1.871200E-03  1.247149E-17  1.663718E-01  0.000000E+00
  9.880740E-01  1.922533E-03  5.000000E-01  9.980527E-01  1.871572E-03  0.000000E+00  1.157524E-02 -1.900327E-03 -9.955463E-19  1.471683E-01  0.000000E+00
  9.891450E-01  1.745565E-03  5.000000E-01  9.991345E-01  1.692817E-03  0.000000E+00  1.177804E-02 -2.038290E-03 -4.284459E-17  1.481437E-01  0.000000E+00
  9.897860E-01  1.638423E-03  5.000000E-01  9.997819E-01  1.584593E-03  0.000000E+00  1.516500E-02 -2.061161E-03 -1.005596E-16  1.956540E-01  0.000000E+00
  9.900000E-01  1.602545E-03  5.000000E-01  9.999981E-01  1.548353E-03  0.000000E+00  1.058331E-02 -4.447391E-03 -8.551155E-17 -4.781970E-02  0.000000E+00
  9.900000E-01  1.681256E-03  5.000000E-01  9.999981E-01  1.627858E-03  0.000000E+00  1.059575E-03 -1.484325E-02  1.678274E-17 -1.856210E-01  0.000000E+00
  9.900000E-01  1.759976E-03  5.000000E-01  9.999981E-01  1.707373E-03  0.000000E+00 -5.269193E-04 -1.394651E-02  1.185095E-16 -9.806403E-03  0.000000E+00
  9.900000E-01  1.838696E-03  5.000000E-01  9.999981E-01  1.786889E-03  0.000000E+00 -2.996382E-04  2.440825E-03  1.748756E-16 -1.448700E-02  0.000000E+00
  9.900000E-01  1.917406E-03  5.000000E-01  9.999981E-01  1.866394E-03  0.000000E+00  7.112207E-04  3.855147E-03  2.212812E-16 -1.323898E-01  0.000000E+00
  9.900000E-01  1.996127E-03  5.000000E-01  9.999981E-01  1.945909E-03  0.000000E+00  5.886960E-03 -2.619926E-03  2.451295E-16 -3.868341E-02  0.000000E+00
  9.900000E-01  1.996127E-03  5.000000E-01  9.999981E-01  1.945909E-03  0.000000E+00  5.886960E-03 -2.619926E-03  2.451295E-16 -3.868341E-02  0.000000E+00
  9.897900E-01  2.041581E-03  5.000000E-01  9.997860E-01  1.991822E-03  0.000000E+00  7.665119E-03 -1.989110E-03  1.589490E-16  1.030196E-01  0.000000E+00
  9.891580E-01  2.177899E-03  5.000000E-01  9.991476E-01  2.129517E-03  0.000000E+00  4.752587E-03 -9.638984E-04  3.883522E-17  6.083659E-02  0.000000E+00
  9.881040E-01  2.404905E-03  5.000000E-01  9.980830E-01  2.358815E-03  0.000000E+00  3.993452E-03 -8.574068E-04 -1.308905E-17  5.116934E-02  0.000000E+00
  9.866260E-01  2.722304E-03  5.000000E-01  9.965900E-01  2.679420E-03  0.000000E+00  3.808278E-03 -8.219039E-04 -1.556870E-17  5.295114E-02  0.000000E+00
  9.847200E-01  3.129674E-03  5.000000E-01  9.946648E-01  3.090904E-03  0.000000E+00  3.732779E-03 -7.949860E-04 -4.707360E-18  4.766056E-02  0.000000E+00
  9.823820E-01  3.626410E-03  5.000000E-01  9.923032E-01  3.592657E-03  0.000000E+00  3.790675E-03 -8.019351E-04  1.368808E-18  3.960262E-02  0.000000E+00
  9.796080E-01  4.211689E-03  5.000000E-01  9.895012E-01  4.183847E-03  0.000000E+00  3.959199E-03 -8.316490E-04  1.823138E-18  3.075111E-02  0.000000E+00
  9.763910E-01  4.884481E-03  5.000000E-01  9.862517E-01  4.863433E-03  0.000000E+00  4.196358E-03 -8.733134E-04  6.793024E-19  2.059349E-02  0.000000E+00
  9.727270E-01  5.643368E-03  5.000000E-01  9.825507E-01  5.629985E-03  0.000000E+00  4.474489E-03 -9.211387E-04 -3.008407E-20  9.035320E-03  0.000000E+00
  9.686070E-01  6.486728E-03  5.000000E-01  9.783891E-01  6.481862E-03  0.000000E+00  4.777242E-03 -9.712252E-04  1.282910E-19 -3.681910E-03  0.000000E+00
  9.640240E-01  7.412481E-03  5.000000E-01  9.737598E-01  7.416964E-03  0.000000E+00  5.095704E-03 -1.021215E-03  7.889143E-19 -1.740092E-02  0.000000E+00
  9.589680E-01  8.418200E-03  5.000000E-01  9.686527E-01  8.432840E-03  0.000000E+00  5.426017E-03 -1.069934E-03  8.147140E-19 -3.198369E-02  0.000000E+00
  9.534310E-01  9.500980E-03  5.000000E-01  9.630598E-01  9.526555E-03  0.000000E+00  5.766388E-03 -1.116656E-03  3.106574E-19 -4.729072E-02  0.000000E+00
  9.474030E-01  1.065750E-02  5.000000E-01  9.569709E-01  1.069475E-02  0.000000E+00  6.114792E-03 -1.160400E-03  1.600232E-21 -6.309218E-02  0.000000E+00
  9.408720E-01  1.188400E-02  5.000000E-01  9.503740E-01  1.193364E-02  0.000000E+00  6.467788E-03 -1.200232E-03 -1.597398E-19 -7.921216E-02  0.000000E+00
  9.338280E-01  1.317628E-02  5.000000E-01  9.432588E-01  1.323897E-02  0.000000E+00  6.820991E-03 -1.235220E-03 -1.590591E-19 -9.548648E-02  0.000000E+00
  9.262600E-01  1.452977E-02  5.000000E-01  9.356144E-01  1.460613E-02  0.000000E+00  7.169212E-03 -1.264137E-03  2.739012E-20 -1.116725E-01  0.000000E+00
  9.181550E-01  1.593942E-02  5.000000E-01  9.274275E-01  1.603001E-02  0.000000E+00  7.506205E-03 -1.285871E-03 -3.000741E-19 -1.275778E-01  0.000000E+00
  9.095020E-01  1.739998E-02  5.000000E-01  9.186871E-01  1.750533E-02  0.000000E+00  7.824948E-03 -1.299337E-03 -9.084811E-19 -1.428952E-01  0.000000E+00
  9.002880E-01  1.890572E-02  5.000000E-01  9.093801E-01  1.902628E-02  0.000000E+00  8.117074E-03 -1.303609E-03 -7.024372E-19 -1.571038E-01  0.000000E+00
  8.905020E-01  2.045083E-02  5.000000E-01  8.994953E-01  2.058699E-02  0.000000E+00  8.372893E-03 -1.299280E-03 -8.241295E-19 -1.698785E-01  0.000000E+00
  8.801320E-01  2.203269E-02  5.000000E-01  8.890205E-01  2.218483E-02  0.000000E+00  8.584275E-03 -1.288777E-03 -1.278443E-18 -1.812963E-01  0.000000E+00
  8.691700E-01  2.365254E-02  5.000000E-01  8.779478E-01  2.382103E-02  0.000000E+00  8.747938E-03 -1.274704E-03 -6.979536E-20 -1.915800E-01  0.000000E+00
  8.691700E-01  2.365254E-02  5.000000E-01  8.779478E-01  2.382103E-02  0.000000E+00  8.747938E-03 -1.274704E-03 -6.979536E-20 -1.915800E-01  0.000000E+00
  8.576080E-01  2.531391E-02  5.000000E-01  8.662691E-01  2.549918E-02  0.000000E+00  8.866190E-03 -1.259386E-03  1.317781E-18 -2.008715E-01  0.000000E+00
  8.454380E-01  2.702283E-02  5.000000E-01  8.539762E-01  2.722536E-02  0.000000E+00  8.946137E-03 -1.245983E-03  9.224763E-19 -2.093790E-01  0.000000E+00
  8.326580E-01  2.878856E-02  5.000000E-01  8.410671E-01  2.900892E-02  0.000000E+00  8.999950E-03 -1.238292E-03  1.319096E-19 -2.176398E-01  0.000000E+00
  8.192630E-01  3.062416E-02  5.000000E-01  8.275368E-01  3.086305E-02  0.000000E+00  9.045798E-03 -1.240669E-03 -7.127784E-19 -2.269970E-01  0.000000E+00
  8.052550E-01  3.254665E-02  5.000000E-01  8.133873E-01  3.280496E-02  0.000000E+00  9.108987E-03 -1.256354E-03 -2.556207E-20 -2.394333E-01  0.000000E+00
  7.906370E-01  3.457198E-02  5.000000E-01  7.986217E-01  3.485075E-02  0.000000E+00  9.219574E-03 -1.283350E-03  1.913564E-18 -2.560428E-01  0.000000E+00
  7.754120E-01  3.670083E-02  5.000000E-01  7.832430E-01  3.700110E-02  0.000000E+00  9.401865E-03 -1.314893E-03  3.154641E-18 -2.763789E-01  0.000000E+00
  7.595880E-01  3.891430E-02  5.000000E-01  7.672592E-01  3.923692E-02  0.000000E+00  9.663415E-03 -1.345265E-03  2.265565E-18 -2.997798E-01  0.000000E+00
  7.431760E-01  4.118801E-02  5.000000E-01  7.506814E-01  4.153359E-02  0.000000E+00  9.995222E-03 -1.370628E-03  2.195526E-19 -3.256432E-01  0.000000E+00
  7.261880E-01  4.349406E-02  5.000000E-01  7.335218E-01  4.386293E-02  0.000000E+00  1.037736E-02 -1.386475E-03 -1.892827E-19 -3.526266E-01  0.000000E+00
  7.086430E-01  4.580224E-02  5.000000E-01  7.157997E-01  4.619442E-02  0.000000E+00  1.078311E-02 -1.388800E-03 -1.322780E-19 -3.787494E-01  0.000000E+00
  6.905640E-01  4.808359E-02  5.000000E-01  6.975381E-01  4.849881E-02  0.000000E+00  1.118430E-02 -1.377623E-03  7.219154E-20 -4.026480E-01  0.000000E+00
  6.719770E-01  5.031945E-02  5.000000E-01  6.787634E-01  5.075725E-02  0.000000E+00  1.156015E-02 -1.360130E-03 -1.676384E-19 -4.253572E-01  0.000000E+00
  6.529150E-01  5.251295E-02  5.000000E-01  6.595089E-01  5.297290E-02  0.000000E+00  1.191061E-02 -1.343698E-03 -7.109985E-19 -4.491671E-01  0.000000E+00
  6.334180E-01  5.466942E-02  5.000000E-01  6.398150E-01  5.515116E-02  0.000000E+00  1.225776E-02 -1.326525E-03  3.454559E-19 -4.751566E-01  0.000000E+00
  6.135280E-01  5.677544E-02  5.000000E-01  6.197241E-01  5.727844E-02  0.000000E+00  1.262770E-02 -1.303357E-03  1.125464E-18 -5.038210E-01  0.000000E+00
  5.932910E-01  5.881083E-02  5.000000E-01  5.992827E-01  5.933439E-02  0.000000E+00  1.303755E-02 -1.269925E-03  5.309386E-20 -5.350155E-01  0.000000E+00
  5.727570E-01  6.074748E-02  5.000000E-01  5.785413E-01  6.129060E-02  0.000000E+00  1.349134E-02 -1.219894E-03 -4.664884E-19 -5.664795E-01  0.000000E+00
  5.519810E-01  6.254922E-02  5.000000E-01  5.575555E-01  6.311053E-02  0.000000E+00  1.397525E-02 -1.147597E-03 -4.222547E-19 -5.950914E-01  0.000000E+00
  5.310180E-01  6.417864E-02  5.000000E-01  5.363808E-01  6.475641E-02  0.000000E+00  1.445886E-02 -1.059016E-03 -5.808402E-19 -6.210950E-01  0.000000E+00
  5.099250E-01  6.563089E-02  5.000000E-01  5.150748E-01  6.622333E-02  0.000000E+00  1.491893E-02 -9.674819E-04  3.944051E-20 -6.480754E-01  0.000000E+00
  4.887640E-01  6.691959E-02  5.000000E-01  4.937001E-01  6.752504E-02  0.000000E+00  1.536491E-02 -8.705208E-04  5.488451E-19 -6.769516E-01  0.000000E+00
  4.675910E-01  6.803231E-02  5.000000E-01  4.723132E-01  6.864900E-02  0.000000E+00  1.582024E-02 -7.533457E-04  1.153118E-19 -7.051334E-01  0.000000E+00
  7.860720E-05 -4.710492E-04  5.000000E-01  7.940614E-05 -5.461831E-04  0.000000E+00 -1.030687E-02  3.467186E-02  4.232578E-17  7.946626E-01  0.000000E+00
  3.989240E-04 -1.104269E-03  5.000000E-01  4.029579E-04 -1.185798E-03  0.000000E+00 -9.548426E-03  1.561230E-02 -5.833489E-18  1.075770E+00  0.000000E+00
  1.196920E-03 -1.873607E-03  5.000000E-01  1.209013E-03 -1.962906E-03  0.000000E+00 -2.552717E-03  2.809967E-03 -2.942512E-17  1.081407E+00  0.000000E+00
  2.563580E-03 -2.681947E-03  5.000000E-01  2.589475E-03 -2.779409E-03  0.000000E+00  4.543080E-03 -2.068628E-03 -3.599921E-17  9.415384E-01  0.000000E+00
  4.492740E-03 -3.485078E-03  5.000000E-01  4.538118E-03 -3.590651E-03  0.000000E+00  8.889616E-03 -3.224061E-03 -2.003424E-17  8.152767E-01  0.000000E+00
  6.952190E-03 -4.277994E-03  5.000000E-01  7.022406E-03 -4.391575E-03  0.000000E+00  1.113477E-02 -3.289480E-03 -1.293611E-18  7.260594E-01  0.000000E+00
  9.910730E-03 -5.081823E-03  5.000000E-01  1.001082E-02 -5.203521E-03  0.000000E+00  1.232867E-02 -3.172985E-03  6.029402E-18  6.559007E-01  0.000000E+00
  1.334950E-02 -5.921697E-03  5.000000E-01  1.348432E-02 -6.051877E-03  0.000000E+00  1.304821E-02 -2.999147E-03  4.164673E-18  5.872515E-01  0.000000E+00
  1.728780E-02 -6.774519E-03  5.000000E-01  1.746240E-02 -6.913312E-03  0.000000E+00  1.347999E-02 -2.684195E-03 -1.646979E-19  5.131424E-01  0.000000E+00
  2.175590E-02 -7.588258E-03  5.000000E-01  2.197562E-02 -7.735269E-03  0.000000E+00  1.367533E-02 -2.249457E-03 -2.666049E-18  4.443045E-01  0.000000E+00
  2.676920E-02 -8.323590E-03  5.000000E-01  2.703955E-02 -8.478027E-03  0.000000E+00  1.370535E-02 -1.802358E-03 -2.006132E-18  3.927304E-01  0.000000E+00
  3.232800E-02 -8.968918E-03  5.000000E-01  3.265449E-02 -9.129872E-03  0.000000E+00  1.364937E-02 -1.421342E-03 -6.682066E-19  3.593626E-01  0.000000E+00
  3.842930E-02 -9.530942E-03  5.000000E-01  3.881741E-02 -9.697572E-03  0.000000E+00  1.355596E-02 -1.128601E-03  1.992132E-20  3.376843E-01  0.000000E+00
  4.507220E-02 -1.002494E-02  5.000000E-01  4.552739E-02 -1.019656E-02  0.000000E+00  1.346085E-02 -9.303147E-04  3.338751E-19  3.227679E-01  0.000000E+00
  5.225680E-02 -1.048300E-02  5.000000E-01  5.278455E-02 -1.065924E-02  0.000000E+00  1.340228E-02 -8.229238E-04  2.806963E-19  3.118206E-01  0.000000E+00
  5.998640E-02 -1.093974E-02  5.000000E-01  6.059221E-02 -1.112059E-02  0.000000E+00  1.338825E-02 -7.669604E-04  1.059356E-19  2.994431E-01  0.000000E+00
  6.827110E-02 -1.140047E-02  5.000000E-01  6.896058E-02 -1.158598E-02  0.000000E+00  1.339358E-02 -7.193385E-04  2.046066E-19  2.827052E-01  0.000000E+00
  7.712280E-02 -1.185896E-02  5.000000E-01  7.790168E-02 -1.204910E-02  0.000000E+00  1.339611E-02 -6.690528E-04  3.855786E-20  2.644960E-01  0.000000E+00
  8.655260E-02 -1.231182E-02  5.000000E-01  8.742671E-02 -1.250654E-02  0.000000E+00  1.338357E-02 -6.154194E-04  2.608610E-19  2.473282E-01  0.000000E+00
  9.657140E-02 -1.275217E-02  5.000000E-01  9.754669E-02 -1.295133E-02  0.000000E+00  1.334147E-02 -5.492576E-04  6.389627E-19  2.307272E-01  0.000000E+00
  1.071900E-01 -1.316009E-02  5.000000E-01  1.082725E-01 -1.336337E-02  0.000000E+00  1.326313E-02 -4.687239E-04  6.723894E-19  2.149424E-01  0.000000E+00
  1.184180E-01 -1.352166E-02  5.000000E-01  1.196139E-01 -1.372860E-02  0.000000E+00  1.316606E-02 -3.902877E-04  3.248337E-19  2.021656E-01  0.000000E+00
  1.302610E-01 -1.384164E-02  5.000000E-01  1.315765E-01 -1.405180E-02  0.000000E+00  1.307881E-02 -3.294691E-04 -3.458543E-20  1.926442E-01  0.000000E+00
  1.427230E-01 -1.413256E-02  5.000000E-01  1.441644E-01 -1.434566E-02  0.000000E+00  1.301887E-02 -2.899372E-04  5.257362E-20  1.844374E-01  0.000000E+00
  1.427230E-01 -1.413256E-02  5.000000E-01  1.441644E-01 -1.434566E-02  0.000000E+00  1.301887E-02 -2.899372E-04  5.257362E-20  1.844374E-01  0.000000E+00
  1.558070E-01 -1.441011E-02  5.000000E-01  1.573805E-01 -1.462601E-02  0.000000E+00  1.298115E-02 -2.626277E-04  8.997739E-20  1.752630E-01  0.000000E+00
  1.695140E-01 -1.467456E-02  5.000000E-01  1.712259E-01 -1.489314E-02  0.000000E+00  1.294060E-02 -2.304782E-04  3.608377E-19  1.638878E-01  0.000000E+00
  1.838420E-01 -1.490870E-02  5.000000E-01  1.856986E-01 -1.512964E-02  0.000000E+00  1.286994E-02 -1.805694E-04  1.159384E-19  1.513244E-01  0.000000E+00
  1.987870E-01 -1.508373E-02  5.000000E-01  2.007946E-01 -1.530644E-02  0.000000E+00  1.275576E-02 -1.090194E-04 -1.787143E-19  1.394875E-01  0.000000E+00
  2.143420E-01 -1.516683E-02  5.000000E-01  2.165067E-01 -1.539038E-02  0.000000E+00  1.261045E-02 -2.856188E-05 -5.714277E-20  1.306160E-01  0.000000E+00
  2.304940E-01 -1.515198E-02  5.000000E-01  2.328218E-01 -1.537537E-02  0.000000E+00  1.247084E-02  3.391729E-05  6.671476E-21  1.265609E-01  0.000000E+00
  2.472290E-01 -1.507499E-02  5.000000E-01  2.497258E-01 -1.529761E-02  0.000000E+00  1.236986E-02  6.500224E-05  9.348873E-20  1.256261E-01  0.000000E+00
  2.645310E-01 -1.497341E-02  5.000000E-01  2.672025E-01 -1.519501E-02  0.000000E+00  1.230932E-02  8.025874E-05  5.711817E-20  1.230122E-01  0.000000E+00
  2.823750E-01 -1.484712E-02  5.000000E-01  2.852267E-01 -1.506744E-02  0.000000E+00  1.226619E-02  1.047826E-04  4.730283E-20  1.161083E-01  0.000000E+00
  3.007320E-01 -1.466387E-02  5.000000E-01  3.037691E-01 -1.488234E-02  0.000000E+00  1.221785E-02  1.485311E-04  1.328573E-19  1.070375E-01  0.000000E+00
  3.195690E-01 -1.439303E-02  5.000000E-01  3.227964E-01 -1.460876E-02  0.000000E+00  1.215281E-02  2.056201E-04  3.466476E-19  9.932105E-02  0.000000E+00
  3.388440E-01 -1.401684E-02  5.000000E-01  3.422660E-01 -1.422877E-02  0.000000E+00  1.206394E-02  2.669174E-04  7.299901E-19  9.445828E-02  0.000000E+00
  3.585140E-01 -1.352981E-02  5.000000E-01  3.621347E-01 -1.373683E-02  0.000000E+00  1.193904E-02  3.285803E-04  4.151198E-19  9.179894E-02  0.000000E+00
  3.785290E-01 -1.292360E-02  5.000000E-01  3.823518E-01 -1.312450E-02  0.000000E+00  1.176067E-02  3.911703E-04 -3.638984E-19  9.043093E-02  0.000000E+00
  3.988350E-01 -1.218683E-02  5.000000E-01  4.028629E-01 -1.238028E-02  0.000000E+00  1.151739E-02  4.546386E-04 -1.052780E-18  9.086785E-02  0.000000E+00
  4.193750E-01 -1.130895E-02  5.000000E-01  4.236103E-01 -1.149353E-02  0.000000E+00  1.121299E-02  5.218553E-04 -8.910858E-19  9.371485E-02  0.000000E+00
  4.400850E-01 -1.026461E-02  5.000000E-01  4.445295E-01 -1.043865E-02  0.000000E+00  1.087625E-02  5.910446E-04 -2.520603E-19  9.957525E-02  0.000000E+00
  4.609060E-01 -9.048489E-03  5.000000E-01  4.655607E-01 -9.210248E-03  0.000000E+00  1.056596E-02  6.404890E-04 -5.870522E-20  1.102758E-01  0.000000E+00
  4.818030E-01 -7.731465E-03  5.000000E-01  4.866688E-01 -7.879923E-03  0.000000E+00  1.034605E-02  6.404869E-04  1.839855E-19  1.263904E-01  0.000000E+00
  5.027520E-01 -6.456804E-03  5.000000E-01  5.078293E-01 -6.592388E-03  0.000000E+00  1.022965E-02  5.958442E-04 -3.821513E-20  1.421382E-01  0.000000E+00
  5.237130E-01 -5.294814E-03  5.000000E-01  5.290020E-01 -5.418664E-03  0.000000E+00  1.015098E-02  5.585508E-04 -6.140550E-20  1.482738E-01  0.000000E+00
  5.446170E-01 -4.159122E-03  5.000000E-01  5.501171E-01 -4.271502E-03  0.000000E+00  1.001589E-02  5.730137E-04  1.659732E-19  1.441346E-01  0.000000E+00
  5.653940E-01 -2.908088E-03  5.000000E-01  5.711040E-01 -3.007833E-03  0.000000E+00  9.781752E-03  6.244182E-04  2.690697E-19  1.414407E-01  0.000000E+00
  4.675910E-01  6.803231E-02  5.000000E-01  4.723132E-01  6.864900E-02  0.000000E+00  1.582024E-02 -7.533457E-04  1.153118E-19 -7.051334E-01  0.000000E+00
  4.464640E-01  6.893770E-02  5.000000E-01  4.509729E-01  6.956353E-02  0.000000E+00  1.628871E-02 -6.138345E-04 -1.595838E-19 -7.313932E-01  0.000000E+00
  4.254410E-01  6.962424E-02  5.000000E-01  4.297376E-01  7.025701E-02  0.000000E+00  1.675924E-02 -4.593410E-04  3.762333E-20 -7.563763E-01  0.000000E+00
  4.045840E-01  7.008914E-02  5.000000E-01  4.086699E-01  7.072660E-02  0.000000E+00  1.722337E-02 -2.928920E-04  5.216034E-20 -7.806548E-01  0.000000E+00
  3.839530E-01  7.033350E-02  5.000000E-01  3.878306E-01  7.097342E-02  0.000000E+00  1.767957E-02 -1.126241E-04  1.681830E-19 -8.041598E-01  0.000000E+00
  3.636060E-01  7.035448E-02  5.000000E-01  3.672781E-01  7.099462E-02  0.000000E+00  1.813012E-02  8.476145E-05  1.547801E-19 -8.260793E-01  0.000000E+00
  3.435960E-01  7.014984E-02  5.000000E-01  3.470660E-01  7.078791E-02  0.000000E+00  1.857469E-02  3.003829E-04  1.101936E-19 -8.456531E-01  0.000000E+00
  3.239710E-01  6.971871E-02  5.000000E-01  3.272428E-01  7.035243E-02  0.000000E+00  1.900776E-02  5.302857E-04  1.461008E-19 -8.633816E-01  0.000000E+00
  3.047740E-01  6.907125E-02  5.000000E-01  3.078519E-01  6.969843E-02  0.000000E+00  1.942635E-02  7.689396E-04 -2.082733E-19 -8.806264E-01  0.000000E+00
  2.860450E-01  6.822227E-02  5.000000E-01  2.889338E-01  6.884088E-02  0.000000E+00  1.983989E-02  1.021497E-03 -7.011029E-19 -8.970925E-01  0.000000E+00
  2.678190E-01  6.717423E-02  5.000000E-01  2.705237E-01  6.778225E-02  0.000000E+00  2.025686E-02  1.295469E-03 -2.424065E-19 -9.117280E-01  0.000000E+00
  2.501300E-01  6.593124E-02  5.000000E-01  2.526561E-01  6.652671E-02  0.000000E+00  2.067310E-02  1.589584E-03 -2.876063E-20 -9.246888E-01  0.000000E+00
  2.330040E-01  6.450292E-02  5.000000E-01  2.353571E-01  6.508397E-02  0.000000E+00  2.108080E-02  1.900610E-03 -5.611633E-20 -9.364875E-01  0.000000E+00
  2.164660E-01  6.290166E-02  5.000000E-01  2.186521E-01  6.346653E-02  0.000000E+00  2.147695E-02  2.227629E-03  5.120488E-19 -9.467068E-01  0.000000E+00
  2.005340E-01  6.114142E-02  5.000000E-01  2.025592E-01  6.168851E-02  0.000000E+00  2.186686E-02  2.577239E-03 -5.125335E-20 -9.527835E-01  0.000000E+00
  1.852230E-01  5.922709E-02  5.000000E-01  1.870936E-01  5.975485E-02  0.000000E+00  2.224908E-02  2.950922E-03 -2.843522E-19 -9.531302E-01  0.000000E+00
  1.705440E-01  5.717119E-02  5.000000E-01  1.722663E-01  5.767819E-02  0.000000E+00  2.261060E-02  3.333054E-03  5.618538E-19 -9.516950E-01  0.000000E+00
  1.565000E-01  5.499825E-02  5.000000E-01  1.580805E-01  5.548331E-02  0.000000E+00  2.295711E-02  3.712703E-03  1.486781E-19 -9.561218E-01  0.000000E+00
  1.430940E-01  5.273535E-02  5.000000E-01  1.445391E-01  5.319756E-02  0.000000E+00  2.333758E-02  4.116203E-03 -5.389248E-19 -9.695585E-01  0.000000E+00
  1.303270E-01  5.038748E-02  5.000000E-01  1.316432E-01  5.082598E-02  0.000000E+00  2.381547E-02  4.613664E-03 -4.561194E-20 -9.830115E-01  0.000000E+00
  1.182110E-01  4.792500E-02  5.000000E-01  1.194048E-01  4.833862E-02  0.000000E+00  2.437585E-02  5.243519E-03 -4.535629E-20 -9.817483E-01  0.000000E+00
  1.067560E-01  4.533098E-02  5.000000E-01  1.078341E-01  4.571840E-02  0.000000E+00  2.488987E-02  5.963574E-03 -1.294798E-18 -9.566549E-01  0.000000E+00
  9.596750E-02  4.260835E-02  5.000000E-01  9.693669E-02  4.296828E-02  0.000000E+00  2.517758E-02  6.637735E-03 -1.727335E-18 -9.154813E-01  0.000000E+00
  8.582800E-02  3.981932E-02  5.000000E-01  8.669479E-02  4.015108E-02  0.000000E+00  2.516726E-02  7.143393E-03 -8.478536E-19 -8.764929E-01  0.000000E+00
  8.582800E-02  3.981932E-02  5.000000E-01  8.669479E-02  4.015108E-02  0.000000E+00  2.516726E-02  7.143393E-03 -8.478536E-19 -8.764929E-01  0.000000E+00
  7.631050E-02  3.703244E-02  5.000000E-01  7.708117E-02  3.733606E-02  0.000000E+00  2.498693E-02  7.549698E-03  6.506416E-19 -8.436406E-01  0.000000E+00
  6.740780E-02  3.425938E-02  5.000000E-01  6.808856E-02  3.453500E-02  0.000000E+00  2.479681E-02  7.987648E-03  6.958927E-19 -8.099568E-01  0.000000E+00
  5.911740E-02  3.150058E-02  5.000000E-01  5.971444E-02  3.174833E-02  0.000000E+00  2.464842E-02  8.481108E-03  8.926749E-19 -7.724765E-01  0.000000E+00
  5.143150E-02  2.876889E-02  5.000000E-01  5.195092E-02  2.898906E-02  0.000000E+00  2.451913E-02  8.998354E-03  2.975924E-18 -7.318157E-01  0.000000E+00
  4.433770E-02  2.608315E-02  5.000000E-01  4.478548E-02  2.627619E-02  0.000000E+00  2.436962E-02  9.514928E-03  1.448029E-18 -6.905605E-01  0.000000E+00
  3.782240E-02  2.346158E-02  5.000000E-01  3.820438E-02  2.362815E-02  0.000000E+00  2.417843E-02  1.003279E-02 -4.206401E-19 -6.525798E-01  0.000000E+00
  3.187460E-02  2.091716E-02  5.000000E-01  3.219651E-02  2.105803E-02  0.000000E+00  2.395730E-02  1.057827E-02 -1.683717E-19 -6.207639E-01  0.000000E+00
  2.648400E-02  1.846116E-02  5.000000E-01  2.675147E-02  1.857723E-02  0.000000E+00  2.374005E-02  1.122058E-02  1.438124E-18 -5.885410E-01  0.000000E+00
  2.164990E-02  1.609458E-02  5.000000E-01  2.186855E-02  1.618675E-02  0.000000E+00  2.349511E-02  1.201550E-02  4.775953E-18 -5.380833E-01  0.000000E+00
  1.737670E-02  1.381710E-02  5.000000E-01  1.755219E-02  1.388626E-02  0.000000E+00  2.305573E-02  1.281261E-02  8.375277E-18 -4.632402E-01  0.000000E+00
  1.364080E-02  1.165416E-02  5.000000E-01  1.377856E-02  1.170148E-02  0.000000E+00  2.227262E-02  1.331341E-02  1.203885E-17 -3.841411E-01  0.000000E+00
  1.039090E-02  9.646202E-03  5.000000E-01  1.049584E-02  9.673244E-03  0.000000E+00  2.122193E-02  1.346254E-02  1.714094E-17 -3.265216E-01  0.000000E+00
  7.586340E-03  7.817228E-03  5.000000E-01  7.662960E-03  7.825799E-03  0.000000E+00  2.017904E-02  1.364019E-02  2.398061E-17 -2.954853E-01  0.000000E+00
  5.226210E-03  6.163072E-03  5.000000E-01  5.278995E-03  6.154937E-03  0.000000E+00  1.945232E-02  1.441489E-02  2.221500E-17 -2.808970E-01  0.000000E+00
  3.324300E-03  4.674602E-03  5.000000E-01  3.357877E-03  4.651434E-03  0.000000E+00  1.928974E-02  1.638053E-02  6.548100E-18 -2.726964E-01  0.000000E+00
  1.883580E-03  3.355409E-03  5.000000E-01  1.902608E-03  3.318919E-03  0.000000E+00  1.964719E-02  2.032470E-02 -1.754761E-18 -2.462899E-01  0.000000E+00
  8.951490E-04  2.220049E-03  5.000000E-01  9.041943E-04  2.172093E-03  0.000000E+00  1.948507E-02  2.681878E-02  3.106507E-17 -1.531151E-01  0.000000E+00
  3.201820E-04  1.295838E-03  5.000000E-01  3.234206E-04  1.238548E-03  0.000000E+00  1.660694E-02  3.449779E-02  1.012880E-16  4.119308E-02  0.000000E+00
  6.852390E-05  6.160606E-04  5.000000E-01  6.922101E-05  5.519056E-04  0.000000E+00  1.033127E-02  3.927765E-02  1.559167E-16  2.664634E-01  0.000000E+00
  4.217600E-06  2.058775E-04  5.000000E-01  4.265277E-06  1.375799E-04  0.000000E+00  3.838337E-03  4.030835E-02  1.635686E-16  3.460959E-01  0.000000E+00
 -5.032520E-09  6.967306E-05  5.000000E-01  0.000000E+00  0.000000E+00  0.000000E+00 -6.161998E-04  4.542468E-02  1.464525E-16  3.060745E-01  0.000000E+00
  5.154440E-06 -6.699514E-05  5.000000E-01  5.211579E-06 -1.380484E-04  0.000000E+00 -5.358558E-03  4.764801E-02  1.072334E-16  4.360326E-01  0.000000E+00