 Title = "ADflow Slice Data"
Variables =  "CoordinateX"  "CoordinateY"  "CoordinateZ"  "XoC"  "YoC"  "ZoC" "VelocityX" "VelocityY" "VelocityZ" "CoefPressure" "Mach" 
Zone T= "Slice_0001 None Absolute Regular z = 0.50000000"
 Nodes =          192  Elements=          184  ZONETYPE=FELINESEG
 DATAPACKING=POINT
  5.653940E-01 -2.646810E-04  5.000000E-01  5.711039E-01 -3.033435E-04  0.000000E+00  9.302111E-03  4.269160E-04 -6.922196E-19  1.939887E-01  0.000000E+00
  5.859770E-01  6.878659E-04  5.000000E-01  5.918948E-01  6.588231E-04  0.000000E+00  9.329714E-03  4.486821E-04  4.792114E-19  1.877253E-01  0.000000E+00
  6.063060E-01  1.703019E-03  5.000000E-01  6.124291E-01  1.684228E-03  0.000000E+00  9.269156E-03  4.847788E-04  1.105665E-18  1.869381E-01  0.000000E+00
  6.263240E-01  2.798304E-03  5.000000E-01  6.326493E-01  2.790574E-03  0.000000E+00  9.132227E-03  5.160459E-04  8.544849E-19  1.915744E-01  0.000000E+00
  6.459860E-01  3.945903E-03  5.000000E-01  6.525098E-01  3.949763E-03  0.000000E+00  8.937863E-03  5.312368E-04  2.835174E-19  2.005067E-01  0.000000E+00
  6.652460E-01  5.111388E-03  5.000000E-01  6.719643E-01  5.127018E-03  0.000000E+00  8.694763E-03  5.337822E-04 -1.605470E-19  2.112555E-01  0.000000E+00
  6.840650E-01  6.282240E-03  5.000000E-01  6.909734E-01  6.309695E-03  0.000000E+00  8.398964E-03  5.333107E-04  1.623686E-19  2.219933E-01  0.000000E+00
  7.024070E-01  7.470755E-03  5.000000E-01  7.095006E-01  7.510213E-03  0.000000E+00  8.048635E-03  5.303764E-04  7.494476E-21  2.337571E-01  0.000000E+00
  7.202400E-01  8.667594E-03  5.000000E-01  7.275137E-01  8.719139E-03  0.000000E+00  7.656000E-03  5.165287E-04 -1.579063E-19  2.486321E-01  0.000000E+00
  7.375350E-01  9.841652E-03  5.000000E-01  7.449834E-01  9.905053E-03  0.000000E+00  7.244544E-03  4.869429E-04 -5.073797E-20  2.664439E-01  0.000000E+00
  7.542690E-01  1.095466E-02  5.000000E-01  7.618864E-01  1.102930E-02  0.000000E+00  6.844541E-03  4.429981E-04  1.964903E-20  2.855229E-01  0.000000E+00
  7.704220E-01  1.196853E-02  5.000000E-01  7.782025E-01  1.205341E-02  0.000000E+00  6.489592E-03  3.881991E-04  1.067461E-19  3.039370E-01  0.000000E+00
  7.859770E-01  1.285052E-02  5.000000E-01  7.939146E-01  1.294431E-02  0.000000E+00  6.217784E-03  3.182273E-04 -2.402832E-19  3.214220E-01  0.000000E+00
  8.009220E-01  1.353225E-02  5.000000E-01  8.090105E-01  1.363292E-02  0.000000E+00  6.066543E-03  2.248553E-04 -6.250347E-19  3.381661E-01  0.000000E+00
  8.152480E-01  1.393864E-02  5.000000E-01  8.234812E-01  1.404342E-02  0.000000E+00  6.048727E-03  1.150132E-04 -8.758616E-19  3.503902E-01  0.000000E+00
  8.289490E-01  1.406917E-02  5.000000E-01  8.373206E-01  1.417526E-02  0.000000E+00  6.144800E-03  3.645883E-06 -5.781553E-19  3.548518E-01  0.000000E+00
  8.420260E-01  1.396230E-02  5.000000E-01  8.505296E-01  1.406731E-02  0.000000E+00  6.321934E-03 -1.022069E-04 -1.785372E-19  3.532978E-01  0.000000E+00
  8.544790E-01  1.366531E-02  5.000000E-01  8.631084E-01  1.376733E-02  0.000000E+00  6.548210E-03 -2.006011E-04 -2.829088E-19  3.485087E-01  0.000000E+00
  8.663160E-01  1.322562E-02  5.000000E-01  8.750649E-01  1.332320E-02  0.000000E+00  6.795284E-03 -2.903203E-04 -4.237005E-19  3.419339E-01  0.000000E+00
  8.775420E-01  1.268569E-02  5.000000E-01  8.864043E-01  1.277782E-02  0.000000E+00  7.039099E-03 -3.696971E-04 -2.006392E-19  3.342885E-01  0.000000E+00
  8.881660E-01  1.208217E-02  5.000000E-01  8.971356E-01  1.216820E-02  0.000000E+00  7.261991E-03 -4.371836E-04  4.063276E-19  3.261396E-01  0.000000E+00
  8.981970E-01  1.144514E-02  5.000000E-01  9.072679E-01  1.152474E-02  0.000000E+00  7.455797E-03 -4.946100E-04  5.858755E-19  3.182241E-01  0.000000E+00
  9.076460E-01  1.079250E-02  5.000000E-01  9.168123E-01  1.086550E-02  0.000000E+00  7.624229E-03 -5.488554E-04  3.613129E-19  3.114200E-01  0.000000E+00
  9.165220E-01  1.012842E-02  5.000000E-01  9.257780E-01  1.019471E-02  0.000000E+00  7.778648E-03 -6.059299E-04  2.573610E-19  3.056489E-01  0.000000E+00
  9.165220E-01  1.012842E-02  5.000000E-01  9.257780E-01  1.019471E-02  0.000000E+00  7.778648E-03 -6.059299E-04  2.573610E-19  3.056489E-01  0.000000E+00
  9.248360E-01  9.455513E-03  5.000000E-01  9.341759E-01  9.515015E-03  0.000000E+00  7.930204E-03 -6.673360E-04  3.636243E-19  2.999747E-01  0.000000E+00
  9.325990E-01  8.777621E-03  5.000000E-01  9.420173E-01  8.830277E-03  0.000000E+00  8.087275E-03 -7.333004E-04 -1.433166E-19  2.938984E-01  0.000000E+00
  9.398210E-01  8.099049E-03  5.000000E-01  9.493123E-01  8.144851E-03  0.000000E+00  8.256496E-03 -8.042411E-04 -7.444358E-19  2.873437E-01  0.000000E+00
  9.465130E-01  7.424608E-03  5.000000E-01  9.560719E-01  7.463600E-03  0.000000E+00  8.443100E-03 -8.805329E-04 -9.088236E-20  2.802322E-01  0.000000E+00
  9.526870E-01  6.759544E-03  5.000000E-01  9.623082E-01  6.791819E-03  0.000000E+00  8.650727E-03 -9.624463E-04  3.667622E-19  2.724507E-01  0.000000E+00
  9.583540E-01  6.109501E-03  5.000000E-01  9.680324E-01  6.135211E-03  0.000000E+00  8.881655E-03 -1.050113E-03  1.191610E-19  2.639105E-01  0.000000E+00
  9.635240E-01  5.480459E-03  5.000000E-01  9.732547E-01  5.499817E-03  0.000000E+00  9.137462E-03 -1.143385E-03 -1.873865E-19  2.545322E-01  0.000000E+00
  9.682080E-01  4.878584E-03  5.000000E-01  9.779860E-01  4.891864E-03  0.000000E+00  9.420788E-03 -1.242338E-03 -6.697975E-19  2.443054E-01  0.000000E+00
  9.724140E-01  4.310164E-03  5.000000E-01  9.822344E-01  4.317703E-03  0.000000E+00  9.737776E-03 -1.347385E-03 -6.125072E-19  2.332626E-01  0.000000E+00
  9.761510E-01  3.781436E-03  5.000000E-01  9.860092E-01  3.783636E-03  0.000000E+00  1.009820E-02 -1.458899E-03 -4.625425E-19  2.214019E-01  0.000000E+00
  9.794290E-01  3.298393E-03  5.000000E-01  9.893203E-01  3.295714E-03  0.000000E+00  1.050839E-02 -1.577348E-03 -8.079705E-19  2.087619E-01  0.000000E+00
  9.822540E-01  2.866795E-03  5.000000E-01  9.921738E-01  2.859757E-03  0.000000E+00  1.095290E-02 -1.700787E-03 -4.433276E-19  1.956161E-01  0.000000E+00
  9.846330E-01  2.491893E-03  5.000000E-01  9.945768E-01  2.481069E-03  0.000000E+00  1.137554E-02 -1.817884E-03  9.754892E-19  1.832249E-01  0.000000E+00
  9.865710E-01  2.178375E-03  5.000000E-01  9.965344E-01  2.164384E-03  0.000000E+00  1.164108E-02 -1.894321E-03  2.444045E-18  1.704612E-01  0.000000E+00
  9.880740E-01  1.930205E-03  5.000000E-01  9.980526E-01  1.913709E-03  0.000000E+00  1.153081E-02 -1.921844E-03 -2.204285E-18  1.511464E-01  0.000000E+00
  9.891450E-01  1.750587E-03  5.000000E-01  9.991344E-01  1.732276E-03  0.000000E+00  1.171472E-02 -2.055957E-03 -2.577579E-17  1.521119E-01  0.000000E+00
  9.897860E-01  1.641874E-03  5.000000E-01  9.997819E-01  1.622466E-03  0.000000E+00  1.504559E-02 -2.080789E-03 -7.325249E-17  1.991822E-01  0.000000E+00
  9.900000E-01  1.605474E-03  5.000000E-01  9.999980E-01  1.585698E-03  0.000000E+00  1.049095E-02 -4.485806E-03 -7.734479E-17 -4.248916E-02  0.000000E+00
  9.900000E-01  1.684184E-03  5.000000E-01  9.999980E-01  1.665203E-03  0.000000E+00  1.049858E-03 -1.484409E-02  6.482475E-18 -1.788255E-01  0.000000E+00
  9.900000E-01  1.762904E-03  5.000000E-01  9.999980E-01  1.744718E-03  0.000000E+00 -5.238015E-04 -1.402447E-02  8.764834E-17 -4.358497E-03  0.000000E+00
  9.900000E-01  1.841625E-03  5.000000E-01  9.999980E-01  1.824234E-03  0.000000E+00 -2.913252E-04  2.104803E-03  1.041573E-16 -9.061745E-03  0.000000E+00
  9.900000E-01  1.920335E-03  5.000000E-01  9.999980E-01  1.903739E-03  0.000000E+00  6.948130E-04  3.597699E-03  1.308839E-16 -1.240461E-01  0.000000E+00
  9.900000E-01  1.999055E-03  5.000000E-01  9.999980E-01  1.983254E-03  0.000000E+00  5.708611E-03 -2.617362E-03  1.668857E-16 -3.216580E-02  0.000000E+00
  9.900000E-01  1.999055E-03  5.000000E-01  9.999980E-01  1.983254E-03  0.000000E+00  5.708611E-03 -2.617362E-03  1.668857E-16 -3.216580E-02  0.000000E+00
  9.897900E-01  2.045146E-03  5.000000E-01  9.997859E-01  2.029810E-03  0.000000E+00  7.397701E-03 -1.946523E-03  1.197488E-16  1.059327E-01  0.000000E+00
  9.891580E-01  2.183427E-03  5.000000E-01  9.991475E-01  2.169488E-03  0.000000E+00  4.529383E-03 -9.313868E-04  4.054340E-17  6.456193E-02  0.000000E+00
  9.881040E-01  2.413862E-03  5.000000E-01  9.980829E-01  2.402250E-03  0.000000E+00  3.761846E-03 -8.201896E-04  4.134160E-18  5.513791E-02  0.000000E+00
  9.866260E-01  2.736398E-03  5.000000E-01  9.965900E-01  2.728044E-03  0.000000E+00  3.556594E-03 -7.807556E-04 -3.891373E-18  5.712881E-02  0.000000E+00
  9.847200E-01  3.150950E-03  5.000000E-01  9.946647E-01  3.146782E-03  0.000000E+00  3.460456E-03 -7.506688E-04 -3.144120E-18  5.221205E-02  0.000000E+00
  9.823820E-01  3.657346E-03  5.000000E-01  9.923031E-01  3.658292E-03  0.000000E+00  3.497173E-03 -7.550188E-04 -1.399168E-18  4.451957E-02  0.000000E+00
  9.796080E-01  4.255282E-03  5.000000E-01  9.895011E-01  4.262267E-03  0.000000E+00  3.644717E-03 -7.831414E-04 -3.347705E-19  3.601603E-02  0.000000E+00
  9.763910E-01  4.944340E-03  5.000000E-01  9.862516E-01  4.958283E-03  0.000000E+00  3.861694E-03 -8.242962E-04 -4.929445E-19  2.618717E-02  0.000000E+00
  9.727270E-01  5.723782E-03  5.000000E-01  9.825506E-01  5.745597E-03  0.000000E+00  4.120931E-03 -8.727490E-04 -3.480750E-19  1.489674E-02  0.000000E+00
  9.686070E-01  6.592736E-03  5.000000E-01  9.783890E-01  6.623327E-03  0.000000E+00  4.406786E-03 -9.247435E-04  3.212802E-19  2.338361E-03  0.000000E+00
  9.640240E-01  7.549909E-03  5.000000E-01  9.737597E-01  7.590166E-03  0.000000E+00  4.711254E-03 -9.780811E-04 -4.029108E-19 -1.137588E-02  0.000000E+00
  9.589680E-01  8.593668E-03  5.000000E-01  9.686526E-01  8.644466E-03  0.000000E+00  5.031560E-03 -1.031761E-03 -4.891613E-19 -2.615639E-02  0.000000E+00
  9.534310E-01  9.721872E-03  5.000000E-01  9.630597E-01  9.784063E-03  0.000000E+00  5.367203E-03 -1.085216E-03  6.767385E-20 -4.191559E-02  0.000000E+00
  9.474030E-01  1.093187E-02  5.000000E-01  9.569708E-01  1.100629E-02  0.000000E+00  5.717615E-03 -1.137584E-03  4.012621E-19 -5.847636E-02  0.000000E+00
  9.408720E-01  1.222043E-02  5.000000E-01  9.503739E-01  1.230786E-02  0.000000E+00  6.080892E-03 -1.187943E-03  3.944578E-19 -7.571048E-02  0.000000E+00
  9.338280E-01  1.358361E-02  5.000000E-01  9.432588E-01  1.368480E-02  0.000000E+00  6.454112E-03 -1.235233E-03 -7.190255E-19 -9.349209E-02  0.000000E+00
  9.262600E-01  1.501678E-02  5.000000E-01  9.356143E-01  1.513244E-02  0.000000E+00  6.833325E-03 -1.277905E-03 -1.071818E-18 -1.116081E-01  0.000000E+00
  9.181550E-01  1.651432E-02  5.000000E-01  9.274275E-01  1.664511E-02  0.000000E+00  7.213134E-03 -1.314302E-03 -3.740784E-19 -1.298772E-01  0.000000E+00
  9.095020E-01  1.806984E-02  5.000000E-01  9.186871E-01  1.821634E-02  0.000000E+00  7.586697E-03 -1.342532E-03 -3.675972E-19 -1.479534E-01  0.000000E+00
  9.002880E-01  1.967572E-02  5.000000E-01  9.093800E-01  1.983843E-02  0.000000E+00  7.944774E-03 -1.360601E-03 -6.005309E-19 -1.652076E-01  0.000000E+00
  8.905020E-01  2.132339E-02  5.000000E-01  8.994952E-01  2.150275E-02  0.000000E+00  8.275465E-03 -1.367972E-03  1.330410E-19 -1.811711E-01  0.000000E+00
  8.801320E-01  2.300701E-02  5.000000E-01  8.890205E-01  2.320337E-02  0.000000E+00  8.567114E-03 -1.366108E-03 -3.621958E-19 -1.957764E-01  0.000000E+00
  8.691700E-01  2.472418E-02  5.000000E-01  8.779478E-01  2.493788E-02  0.000000E+00  8.811817E-03 -1.356813E-03 -1.693491E-19 -2.090733E-01  0.000000E+00
  8.691700E-01  2.472418E-02  5.000000E-01  8.779478E-01  2.493788E-02  0.000000E+00  8.811817E-03 -1.356813E-03 -1.693491E-19 -2.090733E-01  0.000000E+00
  8.576080E-01  2.647432E-02  5.000000E-01  8.662690E-01  2.670569E-02  0.000000E+00  9.006239E-03 -1.341727E-03  4.511150E-19 -2.210184E-01  0.000000E+00
  8.454380E-01  2.825883E-02  5.000000E-01  8.539761E-01  2.850823E-02  0.000000E+00  9.151051E-03 -1.323586E-03  9.680520E-19 -2.316135E-01  0.000000E+00
  8.326580E-01  3.008238E-02  5.000000E-01  8.410670E-01  3.035019E-02  0.000000E+00  9.251740E-03 -1.306277E-03  1.219369E-18 -2.410143E-01  0.000000E+00
  8.192630E-01  3.195419E-02  5.000000E-01  8.275368E-01  3.224090E-02  0.000000E+00  9.320189E-03 -1.295189E-03  2.541945E-19 -2.500360E-01  0.000000E+00
  8.052550E-01  3.389013E-02  5.000000E-01  8.133873E-01  3.419639E-02  0.000000E+00  9.377480E-03 -1.296218E-03  3.912258E-19 -2.604796E-01  0.000000E+00
  7.906370E-01  3.591067E-02  5.000000E-01  7.986217E-01  3.623734E-02  0.000000E+00  9.455256E-03 -1.312205E-03 -5.224836E-19 -2.743740E-01  0.000000E+00
  7.754120E-01  3.803142E-02  5.000000E-01  7.832429E-01  3.837951E-02  0.000000E+00  9.590304E-03 -1.341024E-03 -1.054534E-18 -2.928983E-01  0.000000E+00
  7.595880E-01  4.025225E-02  5.000000E-01  7.672591E-01  4.062277E-02  0.000000E+00  9.813605E-03 -1.376693E-03 -1.052078E-18 -3.160242E-01  0.000000E+00
  7.431760E-01  4.255346E-02  5.000000E-01  7.506814E-01  4.294722E-02  0.000000E+00  1.014015E-02 -1.413210E-03 -1.863859E-18 -3.433927E-01  0.000000E+00
  7.261880E-01  4.490662E-02  5.000000E-01  7.335218E-01  4.532414E-02  0.000000E+00  1.056717E-02 -1.444785E-03  2.878743E-20 -3.744526E-01  0.000000E+00
  7.086430E-01  4.727484E-02  5.000000E-01  7.157996E-01  4.771628E-02  0.000000E+00  1.107694E-02 -1.463176E-03  1.394761E-18 -4.075619E-01  0.000000E+00
  6.905640E-01  4.961328E-02  5.000000E-01  6.975380E-01  5.007833E-02  0.000000E+00  1.163741E-02 -1.459681E-03  3.715316E-19 -4.401644E-01  0.000000E+00
  6.719770E-01  5.187584E-02  5.000000E-01  6.787633E-01  5.236374E-02  0.000000E+00  1.220549E-02 -1.430258E-03  1.093912E-18 -4.700452E-01  0.000000E+00
  6.529150E-01  5.402718E-02  5.000000E-01  6.595088E-01  5.453681E-02  0.000000E+00  1.273724E-02 -1.377558E-03  2.275126E-18 -4.962742E-01  0.000000E+00
  6.334180E-01  5.604766E-02  5.000000E-01  6.398149E-01  5.657770E-02  0.000000E+00  1.320051E-02 -1.308016E-03  6.611130E-19 -5.191116E-01  0.000000E+00
  6.135280E-01  5.793086E-02  5.000000E-01  6.197240E-01  5.847991E-02  0.000000E+00  1.358235E-02 -1.227687E-03  7.879952E-20 -5.392147E-01  0.000000E+00
  5.932910E-01  5.967514E-02  5.000000E-01  5.992827E-01  6.024181E-02  0.000000E+00  1.388717E-02 -1.140960E-03  5.442305E-19 -5.569841E-01  0.000000E+00
  5.727570E-01  6.128099E-02  5.000000E-01  5.785413E-01  6.186388E-02  0.000000E+00  1.412961E-02 -1.051802E-03  6.290626E-20 -5.725177E-01  0.000000E+00
  5.519810E-01  6.275106E-02  5.000000E-01  5.575555E-01  6.334879E-02  0.000000E+00  1.432829E-02 -9.643196E-04  1.119416E-19 -5.861707E-01  0.000000E+00
  5.310180E-01  6.409088E-02  5.000000E-01  5.363808E-01  6.470215E-02  0.000000E+00  1.450297E-02 -8.841457E-04 -3.098806E-19 -5.998944E-01  0.000000E+00
  5.099250E-01  6.531433E-02  5.000000E-01  5.150747E-01  6.593795E-02  0.000000E+00  1.467906E-02 -8.170753E-04 -5.796349E-19 -6.171861E-01  0.000000E+00
  4.887640E-01  6.644209E-02  5.000000E-01  4.937000E-01  6.707710E-02  0.000000E+00  1.489571E-02 -7.569331E-04 -3.649270E-19 -6.393601E-01  0.000000E+00
  4.675910E-01  6.746678E-02  5.000000E-01  4.723132E-01  6.811213E-02  0.000000E+00  1.519140E-02 -6.876126E-04  2.640201E-19 -6.647494E-01  0.000000E+00
  7.860720E-05 -6.869363E-04  5.000000E-01  7.940614E-05 -7.298632E-04  0.000000E+00 -4.997960E-03  2.230289E-02  1.373828E-16  8.637714E-01  0.000000E+00
  3.989240E-04 -1.543728E-03  5.000000E-01  4.029578E-04 -1.595308E-03  0.000000E+00 -4.701293E-03  1.043087E-02  9.205544E-17  1.063392E+00  0.000000E+00
  1.196920E-03 -2.599327E-03  5.000000E-01  1.209013E-03 -2.661567E-03  0.000000E+00 -4.504732E-04  1.247368E-03  5.346195E-17  1.080009E+00  0.000000E+00
  2.563580E-03 -3.719914E-03  5.000000E-01  2.589475E-03 -3.793471E-03  0.000000E+00  4.828896E-03 -3.103930E-03  2.012075E-17  9.597997E-01  0.000000E+00
  4.492740E-03 -4.836652E-03  5.000000E-01  4.538117E-03 -4.921487E-03  0.000000E+00  8.743900E-03 -4.390708E-03  1.631570E-18  8.239585E-01  0.000000E+00
  6.952190E-03 -5.932585E-03  5.000000E-01  7.022405E-03 -6.028488E-03  0.000000E+00  1.115464E-02 -4.516468E-03 -5.141230E-18  7.161239E-01  0.000000E+00
  9.910730E-03 -7.026038E-03  5.000000E-01  1.001082E-02 -7.132984E-03  0.000000E+00  1.267358E-02 -4.381919E-03 -5.958484E-18  6.309967E-01  0.000000E+00
  1.334950E-02 -8.141159E-03  5.000000E-01  1.348432E-02 -8.259366E-03  0.000000E+00  1.373195E-02 -4.131586E-03 -4.190043E-18  5.488313E-01  0.000000E+00
  1.728780E-02 -9.242171E-03  5.000000E-01  1.746239E-02 -9.371497E-03  0.000000E+00  1.442631E-02 -3.652773E-03 -3.327148E-18  4.594542E-01  0.000000E+00
  2.175590E-02 -1.026007E-02  5.000000E-01  2.197562E-02 -1.039968E-02  0.000000E+00  1.474636E-02 -2.983560E-03 -3.342605E-18  3.772477E-01  0.000000E+00
  2.676920E-02 -1.114584E-02  5.000000E-01  2.703955E-02 -1.129439E-02  0.000000E+00  1.476437E-02 -2.292895E-03 -1.624054E-18  3.192478E-01  0.000000E+00
  3.232800E-02 -1.188780E-02  5.000000E-01  3.265449E-02 -1.204385E-02  0.000000E+00  1.460500E-02 -1.706880E-03 -3.598012E-19  2.869961E-01  0.000000E+00
  3.842930E-02 -1.249809E-02  5.000000E-01  3.881740E-02 -1.266029E-02  0.000000E+00  1.436435E-02 -1.261540E-03 -6.310519E-19  2.710893E-01  0.000000E+00
  4.507220E-02 -1.299935E-02  5.000000E-01  4.552739E-02 -1.316662E-02  0.000000E+00  1.411280E-02 -9.599203E-04 -8.341417E-19  2.638982E-01  0.000000E+00
  5.225680E-02 -1.343321E-02  5.000000E-01  5.278455E-02 -1.360486E-02  0.000000E+00  1.390978E-02 -7.882194E-04 -1.726627E-19  2.610385E-01  0.000000E+00
  5.998640E-02 -1.384265E-02  5.000000E-01  6.059221E-02 -1.401844E-02  0.000000E+00  1.376776E-02 -6.910128E-04  3.840742E-19  2.558411E-01  0.000000E+00
  6.827110E-02 -1.423650E-02  5.000000E-01  6.896058E-02 -1.441626E-02  0.000000E+00  1.365638E-02 -6.139153E-04  4.364970E-19  2.451587E-01  0.000000E+00
  7.712280E-02 -1.461125E-02  5.000000E-01  7.790167E-02 -1.479479E-02  0.000000E+00  1.355024E-02 -5.435599E-04  5.832199E-19  2.326719E-01  0.000000E+00
  8.655260E-02 -1.496766E-02  5.000000E-01  8.742670E-02 -1.515481E-02  0.000000E+00  1.343716E-02 -4.792800E-04  3.569552E-19  2.213129E-01  0.000000E+00
  9.657140E-02 -1.530364E-02  5.000000E-01  9.754668E-02 -1.549419E-02  0.000000E+00  1.330391E-02 -4.113863E-04 -2.473425E-19  2.104290E-01  0.000000E+00
  1.071900E-01 -1.560441E-02  5.000000E-01  1.082725E-01 -1.579799E-02  0.000000E+00  1.314756E-02 -3.381437E-04 -7.131153E-19  2.000885E-01  0.000000E+00
  1.184180E-01 -1.586305E-02  5.000000E-01  1.196139E-01 -1.605925E-02  0.000000E+00  1.299293E-02 -2.764265E-04 -2.784485E-19  1.923853E-01  0.000000E+00
  1.302610E-01 -1.609333E-02  5.000000E-01  1.315765E-01 -1.629185E-02  0.000000E+00  1.287715E-02 -2.410302E-04  1.601511E-19  1.872281E-01  0.000000E+00
  1.427230E-01 -1.631738E-02  5.000000E-01  1.441644E-01 -1.651816E-02  0.000000E+00  1.282497E-02 -2.341585E-04  4.281938E-19  1.821767E-01  0.000000E+00
  1.427230E-01 -1.631738E-02  5.000000E-01  1.441644E-01 -1.651816E-02  0.000000E+00  1.282497E-02 -2.341585E-04  4.281938E-19  1.821767E-01  0.000000E+00
  1.558070E-01 -1.656023E-02  5.000000E-01  1.573805E-01 -1.676346E-02  0.000000E+00  1.283561E-02 -2.450629E-04  5.852297E-19  1.744863E-01  0.000000E+00
  1.695140E-01 -1.682986E-02  5.000000E-01  1.712259E-01 -1.703582E-02  0.000000E+00  1.288424E-02 -2.539983E-04  6.252994E-19  1.625678E-01  0.000000E+00
  1.838420E-01 -1.711322E-02  5.000000E-01  1.856986E-01 -1.732204E-02  0.000000E+00  1.293876E-02 -2.426505E-04  3.730134E-19  1.472169E-01  0.000000E+00
  1.987870E-01 -1.737854E-02  5.000000E-01  2.007946E-01 -1.759004E-02  0.000000E+00  1.297532E-02 -1.979698E-04 -4.075432E-19  1.301513E-01  0.000000E+00
  2.143420E-01 -1.757740E-02  5.000000E-01  2.165066E-01 -1.779091E-02  0.000000E+00  1.299336E-02 -1.253635E-04 -6.803796E-19  1.139222E-01  0.000000E+00
  2.304940E-01 -1.768139E-02  5.000000E-01  2.328218E-01 -1.789594E-02  0.000000E+00  1.301992E-02 -5.427870E-05 -3.027037E-19  1.019016E-01  0.000000E+00
  2.472290E-01 -1.771189E-02  5.000000E-01  2.497258E-01 -1.792675E-02  0.000000E+00  1.307463E-02 -2.022492E-06 -3.234012E-20  9.337419E-02  0.000000E+00
  2.645310E-01 -1.768674E-02  5.000000E-01  2.672025E-01 -1.790135E-02  0.000000E+00  1.313185E-02  5.090672E-05 -2.402726E-19  8.324586E-02  0.000000E+00
  2.823750E-01 -1.757647E-02  5.000000E-01  2.852267E-01 -1.778996E-02  0.000000E+00  1.312992E-02  1.361364E-04 -3.708854E-19  6.919983E-02  0.000000E+00
  3.007320E-01 -1.730965E-02  5.000000E-01  3.037691E-01 -1.752045E-02  0.000000E+00  1.300880E-02  2.662940E-04  8.435352E-20  5.487634E-02  0.000000E+00
  3.195690E-01 -1.681020E-02  5.000000E-01  3.227963E-01 -1.701596E-02  0.000000E+00  1.273598E-02  4.294342E-04  6.493051E-19  4.579936E-02  0.000000E+00
  3.388440E-01 -1.601650E-02  5.000000E-01  3.422660E-01 -1.621424E-02  0.000000E+00  1.231823E-02  5.932258E-04  1.848246E-19  4.627157E-02  0.000000E+00
  3.585140E-01 -1.492463E-02  5.000000E-01  3.621346E-01 -1.511135E-02  0.000000E+00  1.179458E-02  7.221289E-04 -3.025566E-19  5.765001E-02  0.000000E+00
  3.785290E-01 -1.357888E-02  5.000000E-01  3.823518E-01 -1.375201E-02  0.000000E+00  1.120940E-02  8.026987E-04 -1.389543E-19  7.656685E-02  0.000000E+00
  3.988350E-01 -1.203187E-02  5.000000E-01  4.028628E-01 -1.218937E-02  0.000000E+00  1.060412E-02  8.388808E-04 -1.252244E-19  9.886803E-02  0.000000E+00
  4.193750E-01 -1.034403E-02  5.000000E-01  4.236103E-01 -1.048448E-02  0.000000E+00  1.002265E-02  8.418881E-04 -5.347644E-20  1.221412E-01  0.000000E+00
  4.400850E-01 -8.564952E-03  5.000000E-01  4.445294E-01 -8.687439E-03  0.000000E+00  9.515535E-03  8.222474E-04  7.334450E-19  1.452388E-01  0.000000E+00
  4.609060E-01 -6.754722E-03  5.000000E-01  4.655607E-01 -6.858927E-03  0.000000E+00  9.139742E-03  7.787409E-04  9.203668E-19  1.679223E-01  0.000000E+00
  4.818030E-01 -5.009791E-03  5.000000E-01  4.866687E-01 -5.096375E-03  0.000000E+00  8.944363E-03  6.999716E-04  6.651468E-19  1.898569E-01  0.000000E+00
  5.027520E-01 -3.479787E-03  5.000000E-01  5.078293E-01 -3.550919E-03  0.000000E+00  8.935055E-03  5.911362E-04  3.543697E-19  2.069082E-01  0.000000E+00
  5.237130E-01 -2.239567E-03  5.000000E-01  5.290020E-01 -2.298174E-03  0.000000E+00  9.050591E-03  4.905966E-04 -3.271266E-19  2.119012E-01  0.000000E+00
  5.446170E-01 -1.213326E-03  5.000000E-01  5.501171E-01 -1.261569E-03  0.000000E+00  9.196923E-03  4.354073E-04 -7.870801E-19  2.045367E-01  0.000000E+00
  5.653940E-01 -2.646810E-04  5.000000E-01  5.711039E-01 -3.033435E-04  0.000000E+00  9.302111E-03  4.269160E-04 -6.922196E-19  1.939887E-01  0.000000E+00
  4.675910E-01  6.746678E-02  5.000000E-01  4.723132E-01  6.811213E-02  0.000000E+00  1.519140E-02 -6.876126E-04  2.640201E-19 -6.647494E-01  0.000000E+00
  4.464640E-01  6.835862E-02  5.000000E-01  4.509729E-01  6.901299E-02  0.000000E+00  1.557962E-02 -6.032072E-04 -5.772111E-20 -6.929402E-01  0.000000E+00
  4.254410E-01  6.910066E-02  5.000000E-01  4.297375E-01  6.976252E-02  0.000000E+00  1.605695E-02 -5.022976E-04 -7.513380E-19 -7.245233E-01  0.000000E+00
  4.045840E-01  6.967153E-02  5.000000E-01  4.086699E-01  7.033916E-02  0.000000E+00  1.661525E-02 -3.772133E-04 -4.880878E-19 -7.591014E-01  0.000000E+00
  3.839530E-01  7.004628E-02  5.000000E-01  3.878306E-01  7.071769E-02  0.000000E+00  1.723938E-02 -2.183318E-04 -1.953496E-20 -7.950470E-01  0.000000E+00
  3.636060E-01  7.019580E-02  5.000000E-01  3.672781E-01  7.086872E-02  0.000000E+00  1.790455E-02 -1.747291E-05 -3.647884E-19 -8.288783E-01  0.000000E+00
  3.435960E-01  7.009329E-02  5.000000E-01  3.470660E-01  7.076518E-02  0.000000E+00  1.857247E-02  2.287716E-04 -3.539765E-19 -8.560883E-01  0.000000E+00
  3.239710E-01  6.971654E-02  5.000000E-01  3.272428E-01  7.038462E-02  0.000000E+00  1.918916E-02  5.085003E-04 -1.226967E-19 -8.748207E-01  0.000000E+00
  3.047740E-01  6.907162E-02  5.000000E-01  3.078519E-01  6.973319E-02  0.000000E+00  1.970457E-02  7.937291E-04 -3.835966E-19 -8.877820E-01  0.000000E+00
  2.860450E-01  6.819427E-02  5.000000E-01  2.889338E-01  6.884697E-02  0.000000E+00  2.011064E-02  1.071998E-03 -2.341723E-19 -8.973963E-01  0.000000E+00
  2.678190E-01  6.710705E-02  5.000000E-01  2.705237E-01  6.774878E-02  0.000000E+00  2.043266E-02  1.348237E-03 -4.834185E-19 -9.043772E-01  0.000000E+00
  2.501300E-01  6.582910E-02  5.000000E-01  2.526561E-01  6.645792E-02  0.000000E+00  2.069782E-02  1.624014E-03 -3.177975E-19 -9.096827E-01  0.000000E+00
  2.330040E-01  6.437976E-02  5.000000E-01  2.353571E-01  6.499394E-02  0.000000E+00  2.092760E-02  1.900588E-03  3.104226E-19 -9.133642E-01  0.000000E+00
  2.164660E-01  6.277654E-02  5.000000E-01  2.186521E-01  6.337454E-02  0.000000E+00  2.113449E-02  2.179471E-03  1.508462E-19 -9.143000E-01  0.000000E+00
  2.005340E-01  6.103651E-02  5.000000E-01  2.025592E-01  6.161693E-02  0.000000E+00  2.132261E-02  2.457523E-03 -4.165076E-19 -9.116505E-01  0.000000E+00
  1.852230E-01  5.918098E-02  5.000000E-01  1.870936E-01  5.974266E-02  0.000000E+00  2.149611E-02  2.726886E-03  2.890467E-19 -9.070362E-01  0.000000E+00
  1.705440E-01  5.723685E-02  5.000000E-01  1.722663E-01  5.777890E-02  0.000000E+00  2.167282E-02  2.983606E-03  7.869619E-19 -9.058889E-01  0.000000E+00
  1.565000E-01  5.522968E-02  5.000000E-01  1.580805E-01  5.575146E-02  0.000000E+00  2.189594E-02  3.236417E-03 -2.329428E-19 -9.162886E-01  0.000000E+00
  1.430940E-01  5.318071E-02  5.000000E-01  1.445391E-01  5.368180E-02  0.000000E+00  2.224121E-02  3.524611E-03 -7.666344E-19 -9.417517E-01  0.000000E+00
  1.303270E-01  5.108564E-02  5.000000E-01  1.316432E-01  5.156557E-02  0.000000E+00  2.278662E-02  3.926410E-03 -6.023254E-19 -9.727787E-01  0.000000E+00
  1.182110E-01  4.890223E-02  5.000000E-01  1.194048E-01  4.936010E-02  0.000000E+00  2.351769E-02  4.489985E-03 -1.675447E-19 -9.928109E-01  0.000000E+00
  1.067560E-01  4.659980E-02  5.000000E-01  1.078341E-01  4.703442E-02  0.000000E+00  2.428693E-02  5.185289E-03  3.025220E-19 -9.903366E-01  0.000000E+00
  9.596750E-02  4.416744E-02  5.000000E-01  9.693668E-02  4.457750E-02  0.000000E+00  2.487732E-02  5.881385E-03  5.087067E-20 -9.720800E-01  0.000000E+00
  8.582800E-02  4.165881E-02  5.000000E-01  8.669478E-02  4.204353E-02  0.000000E+00  2.518352E-02  6.449298E-03 -9.513107E-19 -9.570992E-01  0.000000E+00
  8.582800E-02  4.165881E-02  5.000000E-01  8.669478E-02  4.204353E-02  0.000000E+00  2.518352E-02  6.449298E-03 -9.513107E-19 -9.570992E-01  0.000000E+00
  7.631050E-02  3.913762E-02  5.000000E-01  7.708117E-02  3.949688E-02  0.000000E+00  2.533121E-02  6.957221E-03 -6.528369E-19 -9.493370E-01  0.000000E+00
  6.740780E-02  3.660672E-02  5.000000E-01  6.808856E-02  3.694042E-02  0.000000E+00  2.549425E-02  7.547206E-03  8.433410E-19 -9.401153E-01  0.000000E+00
  5.911740E-02  3.405643E-02  5.000000E-01  5.971443E-02  3.436438E-02  0.000000E+00  2.572129E-02  8.250308E-03  1.420212E-18 -9.247569E-01  0.000000E+00
  5.143150E-02  3.149152E-02  5.000000E-01  5.195091E-02  3.177356E-02  0.000000E+00  2.596729E-02  9.032453E-03  3.769577E-19 -9.031391E-01  0.000000E+00
  4.433770E-02  2.892491E-02  5.000000E-01  4.478547E-02  2.918104E-02  0.000000E+00  2.616329E-02  9.862449E-03 -3.871061E-19 -8.780993E-01  0.000000E+00
  3.782240E-02  2.637057E-02  5.000000E-01  3.820437E-02  2.660090E-02  0.000000E+00  2.626461E-02  1.073829E-02  9.944326E-19 -8.537911E-01  0.000000E+00
  3.187460E-02  2.383788E-02  5.000000E-01  3.219651E-02  2.404263E-02  0.000000E+00  2.627191E-02  1.168759E-02  2.088688E-18 -8.318238E-01  0.000000E+00
  2.648400E-02  2.133593E-02  5.000000E-01  2.675147E-02  2.151541E-02  0.000000E+00  2.621297E-02  1.279360E-02  3.482731E-18 -8.009680E-01  0.000000E+00
  2.164990E-02  1.886235E-02  5.000000E-01  2.186855E-02  1.901685E-02  0.000000E+00  2.602378E-02  1.411718E-02  5.221501E-18 -7.369602E-01  0.000000E+00
  1.737670E-02  1.641420E-02  5.000000E-01  1.755219E-02  1.654398E-02  0.000000E+00  2.546800E-02  1.542576E-02  6.012713E-18 -6.331705E-01  0.000000E+00
  1.364080E-02  1.402530E-02  5.000000E-01  1.377856E-02  1.413095E-02  0.000000E+00  2.437160E-02  1.627908E-02  7.956996E-18 -5.179128E-01  0.000000E+00
  1.039090E-02  1.175434E-02  5.000000E-01  1.049584E-02  1.183705E-02  0.000000E+00  2.288440E-02  1.658870E-02  9.501751E-18 -4.244403E-01  0.000000E+00
  7.586340E-03  9.641454E-03  5.000000E-01  7.662960E-03  9.702834E-03  0.000000E+00  2.136352E-02  1.685962E-02  1.160732E-17 -3.555019E-01  0.000000E+00
  5.226210E-03  7.688936E-03  5.000000E-01  5.278995E-03  7.730597E-03  0.000000E+00  2.007702E-02  1.775718E-02  1.718612E-17 -2.915138E-01  0.000000E+00
  3.324300E-03  5.891928E-03  5.000000E-01  3.357877E-03  5.915442E-03  0.000000E+00  1.903872E-02  1.971372E-02  2.595283E-17 -2.150643E-01  0.000000E+00
  1.883580E-03  4.263415E-03  5.000000E-01  1.902607E-03  4.270482E-03  0.000000E+00  1.787553E-02  2.295594E-02  4.510731E-17 -1.049097E-01  0.000000E+00
  8.951490E-04  2.831929E-03  5.000000E-01  9.041942E-04  2.824539E-03  0.000000E+00  1.570760E-02  2.718371E-02  8.128859E-17  6.334942E-02  0.000000E+00
  3.201820E-04  1.644465E-03  5.000000E-01  3.234206E-04  1.625083E-03  0.000000E+00  1.169779E-02  3.086695E-02  1.247678E-16  2.864093E-01  0.000000E+00
  6.852390E-05  7.574604E-04  5.000000E-01  6.922101E-05  7.291205E-04  0.000000E+00  6.489237E-03  3.172911E-02  1.589769E-16  4.932654E-01  0.000000E+00
  4.217600E-06  2.163430E-04  5.000000E-01  4.265277E-06  1.825383E-04  0.000000E+00  2.215569E-03  3.015869E-02  1.804301E-16  5.664496E-01  0.000000E+00
 -5.032520E-09  3.562974E-05  5.000000E-01  0.000000E+00  0.000000E+00  0.000000E+00 -2.739542E-04  3.086578E-02  1.929369E-16  5.457900E-01  0.000000E+00
  5.154440E-06 -1.462282E-04  5.000000E-01  5.211578E-06 -1.836945E-04  0.000000E+00 -2.540998E-03  3.041312E-02  1.806717E-16  6.316792E-01  0.000000E+00