 Title = "ADflow Slice Data"
Variables =  "CoordinateX"  "CoordinateY"  "CoordinateZ"  "XoC"  "YoC"  "ZoC" "VelocityX" "VelocityY" "VelocityZ" "CoefPressure" "Mach" 
Zone T= "Slice_0001 None Absolute Regular z = 0.50000000"
 Nodes =          192  Elements=          184  ZONETYPE=FELINESEG
 DATAPACKING=POINT
  5.653940E-01 -5.958724E-03  5.000000E-01  5.711040E-01 -6.088374E-03  0.000000E+00  1.037064E-02  4.307317E-04 -6.424778E-18  1.270897E-01  0.000000E+00
  5.859770E-01 -5.036496E-03  5.000000E-01  5.918948E-01 -5.156833E-03  0.000000E+00  1.022197E-02  4.923348E-04 -1.798319E-17  1.260244E-01  0.000000E+00
  6.063060E-01 -3.987111E-03  5.000000E-01  6.124291E-01 -4.096850E-03  0.000000E+00  1.004368E-02  5.466891E-04 -2.277627E-17  1.322272E-01  0.000000E+00
  6.263240E-01 -2.840573E-03  5.000000E-01  6.326493E-01 -2.938733E-03  0.000000E+00  9.873554E-03  5.776495E-04 -2.151353E-17  1.425101E-01  0.000000E+00
  6.459860E-01 -1.665266E-03  5.000000E-01  6.525099E-01 -1.751556E-03  0.000000E+00  9.729557E-03  5.788921E-04 -7.530996E-18  1.542904E-01  0.000000E+00
  6.652460E-01 -5.249207E-04  5.000000E-01  6.719644E-01 -5.996947E-04  0.000000E+00  9.582754E-03  5.696216E-04  1.359229E-17  1.639494E-01  0.000000E+00
  6.840650E-01  5.945199E-04  5.000000E-01  6.909734E-01  5.310513E-04  0.000000E+00  9.357311E-03  5.865463E-04  9.800776E-18  1.681996E-01  0.000000E+00
  7.024070E-01  1.802920E-03  5.000000E-01  7.095007E-01  1.751655E-03  0.000000E+00  8.986210E-03  6.345444E-04  4.927389E-18  1.717678E-01  0.000000E+00
  7.202400E-01  3.154280E-03  5.000000E-01  7.275138E-01  3.116662E-03  0.000000E+00  8.459166E-03  6.808319E-04  5.989707E-18  1.835249E-01  0.000000E+00
  7.375350E-01  4.636454E-03  5.000000E-01  7.449834E-01  4.613805E-03  0.000000E+00  7.815777E-03  6.979283E-04  3.554324E-18  2.055509E-01  0.000000E+00
  7.542690E-01  6.197206E-03  5.000000E-01  7.618864E-01  6.190320E-03  0.000000E+00  7.124764E-03  6.778723E-04  6.979644E-18  2.343804E-01  0.000000E+00
  7.704220E-01  7.765636E-03  5.000000E-01  7.782026E-01  7.774589E-03  0.000000E+00  6.464254E-03  6.265106E-04  8.277998E-18  2.651253E-01  0.000000E+00
  7.859770E-01  9.269402E-03  5.000000E-01  7.939147E-01  9.293541E-03  0.000000E+00  5.914671E-03  5.452804E-04  1.475929E-17  2.958959E-01  0.000000E+00
  8.009220E-01  1.057804E-02  5.000000E-01  8.090106E-01  1.061539E-02  0.000000E+00  5.546114E-03  4.329651E-04  2.248206E-18  3.259511E-01  0.000000E+00
  8.152480E-01  1.155263E-02  5.000000E-01  8.234813E-01  1.159983E-02  0.000000E+00  5.382607E-03  3.051291E-04 -1.095157E-17  3.491557E-01  0.000000E+00
  8.289490E-01  1.216728E-02  5.000000E-01  8.373206E-01  1.222069E-02  0.000000E+00  5.395938E-03  1.806561E-04 -1.678964E-17  3.608360E-01  0.000000E+00
  8.420260E-01  1.245795E-02  5.000000E-01  8.505297E-01  1.251429E-02  0.000000E+00  5.538551E-03  6.504113E-05 -2.103798E-17  3.637111E-01  0.000000E+00
  8.544790E-01  1.247932E-02  5.000000E-01  8.631085E-01  1.253587E-02  0.000000E+00  5.766024E-03 -4.243222E-05 -1.874579E-17  3.617982E-01  0.000000E+00
  8.663160E-01  1.229007E-02  5.000000E-01  8.750650E-01  1.234471E-02  0.000000E+00  6.040488E-03 -1.423873E-04 -4.793068E-18  3.570556E-01  0.000000E+00
  8.775420E-01  1.194432E-02  5.000000E-01  8.864044E-01  1.199548E-02  0.000000E+00  6.330105E-03 -2.338163E-04 -1.520189E-18  3.503351E-01  0.000000E+00
  8.881660E-01  1.148949E-02  5.000000E-01  8.971357E-01  1.153605E-02  0.000000E+00  6.610736E-03 -3.149401E-04 -6.759623E-18  3.423408E-01  0.000000E+00
  8.981970E-01  1.096505E-02  5.000000E-01  9.072680E-01  1.100631E-02  0.000000E+00  6.868759E-03 -3.865590E-04 -5.152521E-20  3.339684E-01  0.000000E+00
  9.076460E-01  1.039717E-02  5.000000E-01  9.168124E-01  1.043270E-02  0.000000E+00  7.102960E-03 -4.539199E-04  1.190292E-17  3.262177E-01  0.000000E+00
  9.165220E-01  9.797454E-03  5.000000E-01  9.257780E-01  9.826927E-03  0.000000E+00  7.320446E-03 -5.218449E-04 -5.603823E-18  3.191755E-01  0.000000E+00
  9.165220E-01  9.797454E-03  5.000000E-01  9.257780E-01  9.826927E-03  0.000000E+00  7.320446E-03 -5.218449E-04 -5.603823E-18  3.191755E-01  0.000000E+00
  9.248360E-01  9.174580E-03  5.000000E-01  9.341760E-01  9.197762E-03  0.000000E+00  7.529423E-03 -5.915855E-04 -3.347400E-17  3.121246E-01  0.000000E+00
  9.325990E-01  8.536935E-03  5.000000E-01  9.420174E-01  8.553677E-03  0.000000E+00  7.736661E-03 -6.635302E-04 -1.912460E-17  3.047194E-01  0.000000E+00
  9.398210E-01  7.892048E-03  5.000000E-01  9.493123E-01  7.902277E-03  0.000000E+00  7.948207E-03 -7.384015E-04 -4.779983E-19  2.969562E-01  0.000000E+00
  9.465130E-01  7.246853E-03  5.000000E-01  9.560719E-01  7.250567E-03  0.000000E+00  8.169517E-03 -8.169614E-04  4.688988E-18  2.887909E-01  0.000000E+00
  9.526870E-01  6.607879E-03  5.000000E-01  9.623083E-01  6.605140E-03  0.000000E+00  8.405005E-03 -8.998875E-04 -6.467087E-18  2.801219E-01  0.000000E+00
  9.583540E-01  5.981460E-03  5.000000E-01  9.680325E-01  5.972394E-03  0.000000E+00  8.658037E-03 -9.877065E-04 -3.126476E-17  2.708529E-01  0.000000E+00
  9.635240E-01  5.373875E-03  5.000000E-01  9.732547E-01  5.358673E-03  0.000000E+00  8.931428E-03 -1.080635E-03 -8.391514E-18  2.608870E-01  0.000000E+00
  9.682080E-01  4.791373E-03  5.000000E-01  9.779860E-01  4.770289E-03  0.000000E+00  9.229041E-03 -1.179051E-03  9.020816E-17  2.501865E-01  0.000000E+00
  9.724140E-01  4.240222E-03  5.000000E-01  9.822345E-01  4.213572E-03  0.000000E+00  9.558116E-03 -1.283591E-03  1.567314E-16  2.387550E-01  0.000000E+00
  9.761510E-01  3.726620E-03  5.000000E-01  9.860092E-01  3.694783E-03  0.000000E+00  9.929370E-03 -1.394791E-03 -3.170027E-17  2.265669E-01  0.000000E+00
  9.794290E-01  3.256552E-03  5.000000E-01  9.893203E-01  3.219968E-03  0.000000E+00  1.034996E-02 -1.513213E-03 -5.062210E-16  2.136342E-01  0.000000E+00
  9.822540E-01  2.835816E-03  5.000000E-01  9.921739E-01  2.794983E-03  0.000000E+00  1.080546E-02 -1.637083E-03 -6.768394E-16  2.002074E-01  0.000000E+00
  9.846330E-01  2.469753E-03  5.000000E-01  9.945769E-01  2.425223E-03  0.000000E+00  1.124143E-02 -1.755483E-03  2.910984E-16  1.875312E-01  0.000000E+00
  9.865710E-01  2.163176E-03  5.000000E-01  9.965345E-01  2.115549E-03  0.000000E+00  1.152553E-02 -1.834924E-03  2.100454E-15  1.744715E-01  0.000000E+00
  9.880740E-01  1.920199E-03  5.000000E-01  9.980527E-01  1.870119E-03  0.000000E+00  1.144142E-02 -1.867949E-03  2.788253E-15  1.548232E-01  0.000000E+00
  9.891450E-01  1.744167E-03  5.000000E-01  9.991345E-01  1.692309E-03  0.000000E+00  1.165385E-02 -2.006979E-03  5.656558E-16  1.553160E-01  0.000000E+00
  9.897860E-01  1.637551E-03  5.000000E-01  9.997819E-01  1.584617E-03  0.000000E+00  1.499964E-02 -2.026019E-03 -4.141842E-15  2.019876E-01  0.000000E+00
  9.900000E-01  1.601843E-03  5.000000E-01  9.999981E-01  1.548547E-03  0.000000E+00  1.046434E-02 -4.425690E-03 -1.021591E-14 -3.907107E-02  0.000000E+00
  9.900000E-01  1.680553E-03  5.000000E-01  9.999981E-01  1.628053E-03  0.000000E+00  1.047001E-03 -1.477109E-02 -1.840638E-14 -1.751392E-01  0.000000E+00
  9.900000E-01  1.759274E-03  5.000000E-01  9.999981E-01  1.707568E-03  0.000000E+00 -5.222595E-04 -1.396582E-02 -2.006023E-14 -1.090099E-03  0.000000E+00
  9.900000E-01  1.837994E-03  5.000000E-01  9.999981E-01  1.787083E-03  0.000000E+00 -2.916882E-04  2.124776E-03 -7.618303E-15 -5.673068E-03  0.000000E+00
  9.900000E-01  1.916704E-03  5.000000E-01  9.999981E-01  1.866589E-03  0.000000E+00  6.948275E-04  3.613285E-03  9.959332E-15 -1.206604E-01  0.000000E+00
  9.900000E-01  1.995425E-03  5.000000E-01  9.999981E-01  1.946104E-03  0.000000E+00  5.699528E-03 -2.587311E-03  1.413938E-14 -2.869005E-02  0.000000E+00
  9.900000E-01  1.995425E-03  5.000000E-01  9.999981E-01  1.946104E-03  0.000000E+00  5.699528E-03 -2.587311E-03  1.413938E-14 -2.869005E-02  0.000000E+00
  9.897900E-01  2.040726E-03  5.000000E-01  9.997860E-01  1.991862E-03  0.000000E+00  7.380708E-03 -1.915285E-03  5.273574E-15  1.094482E-01  0.000000E+00
  9.891580E-01  2.176572E-03  5.000000E-01  9.991476E-01  2.129081E-03  0.000000E+00  4.524298E-03 -9.124503E-04 -9.718633E-16  6.775807E-02  0.000000E+00
  9.881040E-01  2.402754E-03  5.000000E-01  9.980830E-01  2.357547E-03  0.000000E+00  3.778355E-03 -8.079907E-04 -1.940199E-15  5.806248E-02  0.000000E+00
  9.866260E-01  2.718923E-03  5.000000E-01  9.965900E-01  2.676909E-03  0.000000E+00  3.594911E-03 -7.730045E-04 -6.097397E-16  5.987282E-02  0.000000E+00
  9.847200E-01  3.124586E-03  5.000000E-01  9.946648E-01  3.086668E-03  0.000000E+00  3.517897E-03 -7.459623E-04  3.146264E-16  5.476878E-02  0.000000E+00
  9.823820E-01  3.619055E-03  5.000000E-01  9.923032E-01  3.586132E-03  0.000000E+00  3.571461E-03 -7.519215E-04  3.395099E-16  4.689653E-02  0.000000E+00
  9.796080E-01  4.201424E-03  5.000000E-01  9.895012E-01  4.174382E-03  0.000000E+00  3.733975E-03 -7.802642E-04  6.667874E-17  3.825392E-02  0.000000E+00
  9.763910E-01  4.870584E-03  5.000000E-01  9.862517E-01  4.850300E-03  0.000000E+00  3.964090E-03 -8.203497E-04 -6.710954E-17  2.835671E-02  0.000000E+00
  9.727270E-01  5.625063E-03  5.000000E-01  9.825507E-01  5.612399E-03  0.000000E+00  4.234280E-03 -8.664580E-04 -4.688956E-17  1.710515E-02  0.000000E+00
  9.686070E-01  6.463216E-03  5.000000E-01  9.783891E-01  6.459015E-03  0.000000E+00  4.528060E-03 -9.147484E-04  4.914639E-18  4.737133E-03  0.000000E+00
  9.640240E-01  7.382999E-03  5.000000E-01  9.737598E-01  7.388087E-03  0.000000E+00  4.836155E-03 -9.628790E-04  2.054732E-17 -8.585900E-03  0.000000E+00
  9.589680E-01  8.382096E-03  5.000000E-01  9.686527E-01  8.397275E-03  0.000000E+00  5.154232E-03 -1.009688E-03  9.392970E-18 -2.272232E-02  0.000000E+00
  9.534310E-01  9.457828E-03  5.000000E-01  9.630598E-01  9.483871E-03  0.000000E+00  5.480064E-03 -1.054493E-03  4.204851E-18 -3.753142E-02  0.000000E+00
  9.474030E-01  1.060723E-02  5.000000E-01  9.569709E-01  1.064488E-02  0.000000E+00  5.811312E-03 -1.096424E-03  2.213680E-18 -5.278794E-02  0.000000E+00
  9.408720E-01  1.182706E-02  5.000000E-01  9.503740E-01  1.187703E-02  0.000000E+00  6.144378E-03 -1.134704E-03 -2.912530E-19 -6.832505E-02  0.000000E+00
  9.338280E-01  1.311384E-02  5.000000E-01  9.432588E-01  1.317680E-02  0.000000E+00  6.474872E-03 -1.168605E-03 -1.520451E-18 -8.399464E-02  0.000000E+00
  9.262600E-01  1.446396E-02  5.000000E-01  9.356144E-01  1.454056E-02  0.000000E+00  6.797765E-03 -1.197145E-03  4.071715E-18 -9.958352E-02  0.000000E+00
  9.181550E-01  1.587354E-02  5.000000E-01  9.274275E-01  1.596438E-02  0.000000E+00  7.107211E-03 -1.219479E-03  1.254848E-17 -1.149452E-01  0.000000E+00
  9.095020E-01  1.733880E-02  5.000000E-01  9.186871E-01  1.744443E-02  0.000000E+00  7.396843E-03 -1.234773E-03  1.013586E-17 -1.298270E-01  0.000000E+00
  9.002880E-01  1.885564E-02  5.000000E-01  9.093801E-01  1.897659E-02  0.000000E+00  7.659170E-03 -1.242310E-03  2.616711E-18 -1.437592E-01  0.000000E+00
  8.905020E-01  2.042009E-02  5.000000E-01  8.994953E-01  2.055684E-02  0.000000E+00  7.885631E-03 -1.242846E-03 -2.472972E-18 -1.564754E-01  0.000000E+00
  8.801320E-01  2.203173E-02  5.000000E-01  8.890205E-01  2.218476E-02  0.000000E+00  8.069669E-03 -1.239005E-03 -5.421964E-19 -1.681418E-01  0.000000E+00
  8.691700E-01  2.369461E-02  5.000000E-01  8.779478E-01  2.386443E-02  0.000000E+00  8.210406E-03 -1.233707E-03  1.278017E-18 -1.790899E-01  0.000000E+00
  8.691700E-01  2.369461E-02  5.000000E-01  8.779478E-01  2.386443E-02  0.000000E+00  8.210406E-03 -1.233707E-03  1.278017E-18 -1.790899E-01  0.000000E+00
  8.576080E-01  2.541561E-02  5.000000E-01  8.662691E-01  2.560281E-02  0.000000E+00  8.313792E-03 -1.229717E-03  2.829693E-18 -1.895776E-01  0.000000E+00
  8.454380E-01  2.720460E-02  5.000000E-01  8.539762E-01  2.740987E-02  0.000000E+00  8.392184E-03 -1.230794E-03  5.938751E-18 -1.999750E-01  0.000000E+00
  8.326580E-01  2.907506E-02  5.000000E-01  8.410671E-01  2.929922E-02  0.000000E+00  8.464910E-03 -1.241490E-03 -2.884674E-19 -2.111459E-01  0.000000E+00
  8.192630E-01  3.104394E-02  5.000000E-01  8.275368E-01  3.128798E-02  0.000000E+00  8.559391E-03 -1.266826E-03 -4.183044E-18 -2.250896E-01  0.000000E+00
  8.052550E-01  3.313043E-02  5.000000E-01  8.133873E-01  3.339554E-02  0.000000E+00  8.711927E-03 -1.309849E-03 -1.568545E-18 -2.444754E-01  0.000000E+00
  7.906370E-01  3.534713E-02  5.000000E-01  7.986217E-01  3.563463E-02  0.000000E+00  8.962393E-03 -1.365948E-03 -3.530485E-18 -2.702453E-01  0.000000E+00
  7.754120E-01  3.767877E-02  5.000000E-01  7.832430E-01  3.798982E-02  0.000000E+00  9.337065E-03 -1.423455E-03 -3.375107E-18 -3.009683E-01  0.000000E+00
  7.595880E-01  4.008056E-02  5.000000E-01  7.672592E-01  4.041587E-02  0.000000E+00  9.832597E-03 -1.472507E-03 -2.614590E-18 -3.352672E-01  0.000000E+00
  7.431760E-01  4.250609E-02  5.000000E-01  7.506814E-01  4.286589E-02  0.000000E+00  1.041926E-02 -1.504844E-03 -2.723335E-18 -3.716493E-01  0.000000E+00
  7.261880E-01  4.490535E-02  5.000000E-01  7.335218E-01  4.528938E-02  0.000000E+00  1.104997E-02 -1.510255E-03 -4.797098E-18 -4.068685E-01  0.000000E+00
  7.086430E-01  4.722853E-02  5.000000E-01  7.157997E-01  4.763603E-02  0.000000E+00  1.166608E-02 -1.482087E-03 -3.841431E-18 -4.368053E-01  0.000000E+00
  6.905640E-01  4.943504E-02  5.000000E-01  6.975381E-01  4.986482E-02  0.000000E+00  1.220878E-02 -1.424941E-03  6.711280E-18 -4.593013E-01  0.000000E+00
  6.719770E-01  5.150996E-02  5.000000E-01  6.787634E-01  5.196069E-02  0.000000E+00  1.263897E-02 -1.358811E-03  6.713600E-18 -4.772557E-01  0.000000E+00
  6.529150E-01  5.348159E-02  5.000000E-01  6.595089E-01  5.395224E-02  0.000000E+00  1.296393E-02 -1.301716E-03 -6.435951E-18 -4.955865E-01  0.000000E+00
  6.334180E-01  5.538100E-02  5.000000E-01  6.398150E-01  5.587083E-02  0.000000E+00  1.323622E-02 -1.250077E-03 -9.445871E-18 -5.159085E-01  0.000000E+00
  6.135280E-01  5.720130E-02  5.000000E-01  6.197241E-01  5.770950E-02  0.000000E+00  1.351177E-02 -1.194598E-03 -1.781778E-19 -5.384097E-01  0.000000E+00
  5.932910E-01  5.892803E-02  5.000000E-01  5.992827E-01  5.945368E-02  0.000000E+00  1.382406E-02 -1.131770E-03  3.494807E-18 -5.630875E-01  0.000000E+00
  5.727570E-01  6.053953E-02  5.000000E-01  5.785413E-01  6.108145E-02  0.000000E+00  1.418380E-02 -1.056319E-03  4.112767E-19 -5.878170E-01  0.000000E+00
  5.519810E-01  6.200697E-02  5.000000E-01  5.575555E-01  6.256371E-02  0.000000E+00  1.457815E-02 -9.633162E-04 -2.155849E-18 -6.098007E-01  0.000000E+00
  5.310180E-01  6.330046E-02  5.000000E-01  5.363808E-01  6.387026E-02  0.000000E+00  1.497630E-02 -8.587821E-04  4.685312E-19 -6.295426E-01  0.000000E+00
  5.099250E-01  6.441918E-02  5.000000E-01  5.150748E-01  6.500029E-02  0.000000E+00  1.535445E-02 -7.550985E-04  1.878275E-18 -6.506078E-01  0.000000E+00
  4.887640E-01  6.537859E-02  5.000000E-01  4.937001E-01  6.596938E-02  0.000000E+00  1.571998E-02 -6.481246E-04 -4.724719E-18 -6.736297E-01  0.000000E+00
  4.675910E-01  6.616691E-02  5.000000E-01  4.723132E-01  6.676566E-02  0.000000E+00  1.609156E-02 -5.218842E-04 -9.332964E-18 -6.954591E-01  0.000000E+00
  7.860720E-05 -3.612351E-04  5.000000E-01  7.940614E-05 -4.343559E-04  0.000000E+00 -2.417905E-02  6.483117E-02 -9.052988E-15  4.832589E-01  0.000000E+00
  3.989240E-04 -8.631406E-04  5.000000E-01  4.029579E-04 -9.413303E-04  0.000000E+00 -2.356975E-02  2.976569E-02 -6.316149E-15  1.009742E+00  0.000000E+00
  1.196920E-03 -1.472460E-03  5.000000E-01  1.209013E-03 -1.556804E-03  0.000000E+00 -1.149616E-02  8.159812E-03 -3.393464E-15  1.105563E+00  0.000000E+00
  2.563580E-03 -2.116243E-03  5.000000E-01  2.589475E-03 -2.207088E-03  0.000000E+00 -4.350372E-05  2.804691E-04 -1.188481E-15  9.886051E-01  0.000000E+00
  4.492740E-03 -2.764766E-03  5.000000E-01  4.538118E-03 -2.862160E-03  0.000000E+00  6.663004E-03 -1.937846E-03 -7.515801E-17  8.777504E-01  0.000000E+00
  6.952190E-03 -3.419052E-03  5.000000E-01  7.022406E-03 -3.523054E-03  0.000000E+00  9.933220E-03 -2.446794E-03  1.820782E-16  7.977148E-01  0.000000E+00
  9.910730E-03 -4.100559E-03  5.000000E-01  1.001082E-02 -4.211444E-03  0.000000E+00  1.143705E-02 -2.531602E-03  1.041502E-16  7.309306E-01  0.000000E+00
  1.334950E-02 -4.833781E-03  5.000000E-01  1.348432E-02 -4.952070E-03  0.000000E+00  1.213871E-02 -2.475368E-03  1.998416E-17  6.650851E-01  0.000000E+00
  1.728780E-02 -5.602957E-03  5.000000E-01  1.746240E-02 -5.729015E-03  0.000000E+00  1.247688E-02 -2.282661E-03 -8.548354E-18  5.954384E-01  0.000000E+00
  2.175590E-02 -6.366292E-03  5.000000E-01  2.197562E-02 -6.500058E-03  0.000000E+00  1.263710E-02 -1.992187E-03 -1.324085E-17  5.294804E-01  0.000000E+00
  2.676920E-02 -7.089875E-03  5.000000E-01  2.703955E-02 -7.230949E-03  0.000000E+00  1.272348E-02 -1.687137E-03 -1.203349E-17  4.760130E-01  0.000000E+00
  3.232800E-02 -7.761155E-03  5.000000E-01  3.265449E-02 -7.909008E-03  0.000000E+00  1.279453E-02 -1.423372E-03 -3.515688E-18  4.362109E-01  0.000000E+00
  3.842930E-02 -8.382229E-03  5.000000E-01  3.881741E-02 -8.536354E-03  0.000000E+00  1.286558E-02 -1.216221E-03  5.613544E-18  4.057307E-01  0.000000E+00
  4.507220E-02 -8.962358E-03  5.000000E-01  4.552739E-02 -9.122342E-03  0.000000E+00  1.294227E-02 -1.073034E-03  7.863245E-18  3.813010E-01  0.000000E+00
  5.225680E-02 -9.525910E-03  5.000000E-01  5.278455E-02 -9.691586E-03  0.000000E+00  1.304169E-02 -9.955907E-04  2.587474E-18  3.609997E-01  0.000000E+00
  5.998640E-02 -1.010014E-02  5.000000E-01  6.059221E-02 -1.027161E-02  0.000000E+00  1.316564E-02 -9.536853E-04 -6.870803E-18  3.402061E-01  0.000000E+00
  6.827110E-02 -1.068600E-02  5.000000E-01  6.896058E-02 -1.086340E-02  0.000000E+00  1.329252E-02 -9.107590E-04 -5.291648E-18  3.161345E-01  0.000000E+00
  7.712280E-02 -1.127317E-02  5.000000E-01  7.790168E-02 -1.145649E-02  0.000000E+00  1.340332E-02 -8.568323E-04  1.178117E-18  2.911385E-01  0.000000E+00
  8.655260E-02 -1.185292E-02  5.000000E-01  8.742671E-02 -1.204210E-02  0.000000E+00  1.348577E-02 -7.908390E-04 -5.818623E-19  2.674557E-01  0.000000E+00
  9.657140E-02 -1.241228E-02  5.000000E-01  9.754669E-02 -1.260711E-02  0.000000E+00  1.352280E-02 -7.036613E-04  1.661190E-18  2.447877E-01  0.000000E+00
  1.071900E-01 -1.292496E-02  5.000000E-01  1.082725E-01 -1.312497E-02  0.000000E+00  1.350142E-02 -5.933611E-04  5.196541E-18  2.235987E-01  0.000000E+00
  1.184180E-01 -1.336917E-02  5.000000E-01  1.196139E-01 -1.357366E-02  0.000000E+00  1.342863E-02 -4.764146E-04  5.956358E-18  2.062582E-01  0.000000E+00
  1.302610E-01 -1.374011E-02  5.000000E-01  1.315765E-01 -1.394835E-02  0.000000E+00  1.332129E-02 -3.694470E-04  6.301501E-18  1.934034E-01  0.000000E+00
  1.427230E-01 -1.404051E-02  5.000000E-01  1.441644E-01 -1.425178E-02  0.000000E+00  1.318906E-02 -2.784019E-04  6.167704E-18  1.836515E-01  0.000000E+00
  1.427230E-01 -1.404051E-02  5.000000E-01  1.441644E-01 -1.425178E-02  0.000000E+00  1.318906E-02 -2.784019E-04  6.167704E-18  1.836515E-01  0.000000E+00
  1.558070E-01 -1.427728E-02  5.000000E-01  1.573805E-01 -1.449094E-02  0.000000E+00  1.302802E-02 -1.980403E-04  2.927288E-18  1.752811E-01  0.000000E+00
  1.695140E-01 -1.444594E-02  5.000000E-01  1.712259E-01 -1.466131E-02  0.000000E+00  1.282734E-02 -1.179197E-04 -1.053345E-18  1.674303E-01  0.000000E+00
  1.838420E-01 -1.453252E-02  5.000000E-01  1.856986E-01 -1.474876E-02  0.000000E+00  1.258701E-02 -3.567973E-05  1.064748E-18  1.610641E-01  0.000000E+00
  1.987870E-01 -1.452574E-02  5.000000E-01  2.007946E-01 -1.474190E-02  0.000000E+00  1.232911E-02  3.907778E-05  5.441825E-18  1.577820E-01  0.000000E+00
  2.143420E-01 -1.443252E-02  5.000000E-01  2.165067E-01 -1.464775E-02  0.000000E+00  1.209518E-02  8.944728E-05  5.588620E-18  1.583314E-01  0.000000E+00
  2.304940E-01 -1.428951E-02  5.000000E-01  2.328218E-01 -1.450329E-02  0.000000E+00  1.192605E-02  1.053698E-04  2.861298E-18  1.609631E-01  0.000000E+00
  2.472290E-01 -1.414203E-02  5.000000E-01  2.497258E-01 -1.435432E-02  0.000000E+00  1.184194E-02  9.051785E-05 -2.438879E-18  1.624294E-01  0.000000E+00
  2.645310E-01 -1.403064E-02  5.000000E-01  2.672025E-01 -1.424181E-02  0.000000E+00  1.183328E-02  6.303936E-05 -6.479317E-18  1.597113E-01  0.000000E+00
  2.823750E-01 -1.395661E-02  5.000000E-01  2.852267E-01 -1.416703E-02  0.000000E+00  1.186642E-02  4.788910E-05 -7.324649E-18  1.515068E-01  0.000000E+00
  3.007320E-01 -1.388499E-02  5.000000E-01  3.037691E-01 -1.409469E-02  0.000000E+00  1.190534E-02  5.796514E-05 -1.348868E-17  1.400357E-01  0.000000E+00
  3.195690E-01 -1.377465E-02  5.000000E-01  3.227964E-01 -1.398323E-02  0.000000E+00  1.192395E-02  9.219678E-05 -1.656337E-17  1.286530E-01  0.000000E+00
  3.388440E-01 -1.358886E-02  5.000000E-01  3.422660E-01 -1.379556E-02  0.000000E+00  1.190638E-02  1.413887E-04 -7.937029E-18  1.195877E-01  0.000000E+00
  3.585140E-01 -1.331054E-02  5.000000E-01  3.621347E-01 -1.351444E-02  0.000000E+00  1.184130E-02  1.954072E-04 -1.541400E-18  1.134818E-01  0.000000E+00
  3.785290E-01 -1.293296E-02  5.000000E-01  3.823518E-01 -1.313305E-02  0.000000E+00  1.171524E-02  2.507613E-04 -2.983170E-18  1.095238E-01  0.000000E+00
  3.988350E-01 -1.244623E-02  5.000000E-01  4.028629E-01 -1.264140E-02  0.000000E+00  1.151852E-02  3.077543E-04 -3.488907E-18  1.074316E-01  0.000000E+00
  4.193750E-01 -1.184000E-02  5.000000E-01  4.236103E-01 -1.202904E-02  0.000000E+00  1.125573E-02  3.701684E-04  9.476039E-20  1.074461E-01  0.000000E+00
  4.400850E-01 -1.108782E-02  5.000000E-01  4.445295E-01 -1.126927E-02  0.000000E+00  1.095709E-02  4.366857E-04  8.269259E-18  1.102076E-01  0.000000E+00
  4.609060E-01 -1.018181E-02  5.000000E-01  4.655607E-01 -1.035411E-02  0.000000E+00  1.068516E-02  4.844812E-04  3.997094E-18  1.177212E-01  0.000000E+00
  4.818030E-01 -9.192333E-03  5.000000E-01  4.866688E-01 -9.354640E-03  0.000000E+00  1.051128E-02  4.809103E-04 -6.225971E-18  1.307051E-01  0.000000E+00
  5.027520E-01 -8.266025E-03  5.000000E-01  5.078293E-01 -8.418977E-03  0.000000E+00  1.045859E-02  4.279913E-04 -6.813633E-18  1.432789E-01  0.000000E+00
  5.237130E-01 -7.481195E-03  5.000000E-01  5.290020E-01 -7.626221E-03  0.000000E+00  1.047047E-02  3.783378E-04 -7.591609E-18  1.457097E-01  0.000000E+00
  5.446170E-01 -6.758950E-03  5.000000E-01  5.501171E-01 -6.896682E-03  0.000000E+00  1.045665E-02  3.817339E-04 -2.350006E-18  1.366061E-01  0.000000E+00
  5.653940E-01 -5.958724E-03  5.000000E-01  5.711040E-01 -6.088374E-03  0.000000E+00  1.037064E-02  4.307317E-04 -6.424778E-18  1.270897E-01  0.000000E+00
  4.675910E-01  6.616691E-02  5.000000E-01  4.723132E-01  6.676566E-02  0.000000E+00  1.609156E-02 -5.218842E-04 -9.332964E-18 -6.954591E-01  0.000000E+00
  4.464640E-01  6.675382E-02  5.000000E-01  4.509729E-01  6.735850E-02  0.000000E+00  1.646554E-02 -3.749854E-04 -1.042572E-17 -7.142521E-01  0.000000E+00
  4.254410E-01  6.712979E-02  5.000000E-01  4.297376E-01  6.773827E-02  0.000000E+00  1.682202E-02 -2.188383E-04 -6.634045E-18 -7.306629E-01  0.000000E+00
  4.045840E-01  6.730121E-02  5.000000E-01  4.086699E-01  6.791142E-02  0.000000E+00  1.714813E-02 -6.161969E-05  5.707936E-18 -7.459222E-01  0.000000E+00
  3.839530E-01  6.728136E-02  5.000000E-01  3.878306E-01  6.789137E-02  0.000000E+00  1.744717E-02  9.633846E-05  5.962732E-18 -7.606942E-01  0.000000E+00
  3.636060E-01  6.707779E-02  5.000000E-01  3.672781E-01  6.768574E-02  0.000000E+00  1.773342E-02  2.583029E-04 -5.195897E-18 -7.751329E-01  0.000000E+00
  3.435960E-01  6.669666E-02  5.000000E-01  3.470660E-01  6.730076E-02  0.000000E+00  1.802237E-02  4.261705E-04 -4.533206E-18 -7.897651E-01  0.000000E+00
  3.239710E-01  6.614356E-02  5.000000E-01  3.272428E-01  6.674208E-02  0.000000E+00  1.832705E-02  6.000427E-04 -7.572158E-19 -8.058724E-01  0.000000E+00
  3.047740E-01  6.542832E-02  5.000000E-01  3.078519E-01  6.601962E-02  0.000000E+00  1.866143E-02  7.830122E-04  1.798526E-18 -8.243342E-01  0.000000E+00
  2.860450E-01  6.455588E-02  5.000000E-01  2.889338E-01  6.513836E-02  0.000000E+00  1.904086E-02  9.865826E-04  2.402460E-18 -8.439265E-01  0.000000E+00
  2.678190E-01  6.351852E-02  5.000000E-01  2.705237E-01  6.409053E-02  0.000000E+00  1.946792E-02  1.219591E-03  8.051075E-19 -8.629625E-01  0.000000E+00
  2.501300E-01  6.231146E-02  5.000000E-01  2.526561E-01  6.287128E-02  0.000000E+00  1.992796E-02  1.480847E-03  1.595267E-18 -8.812494E-01  0.000000E+00
  2.330040E-01  6.093697E-02  5.000000E-01  2.353571E-01  6.148290E-02  0.000000E+00  2.040278E-02  1.766726E-03  1.670555E-18 -8.994064E-01  0.000000E+00
  2.164660E-01  5.940173E-02  5.000000E-01  2.186521E-01  5.993216E-02  0.000000E+00  2.088277E-02  2.076483E-03  2.702826E-18 -9.171832E-01  0.000000E+00
  2.005340E-01  5.771475E-02  5.000000E-01  2.025592E-01  5.822814E-02  0.000000E+00  2.137140E-02  2.420830E-03 -2.689384E-19 -9.311948E-01  0.000000E+00
  1.852230E-01  5.587121E-02  5.000000E-01  1.870936E-01  5.636599E-02  0.000000E+00  2.186211E-02  2.804928E-03  5.651371E-19 -9.383734E-01  0.000000E+00
  1.705440E-01  5.387536E-02  5.000000E-01  1.722663E-01  5.434998E-02  0.000000E+00  2.232772E-02  3.209077E-03  2.703463E-18 -9.417688E-01  0.000000E+00
  1.565000E-01  5.174911E-02  5.000000E-01  1.580805E-01  5.220226E-02  0.000000E+00  2.275746E-02  3.614510E-03 -1.890118E-18 -9.485949E-01  0.000000E+00
  1.430940E-01  4.951982E-02  5.000000E-01  1.445391E-01  4.995045E-02  0.000000E+00  2.318752E-02  4.040100E-03 -5.582778E-18 -9.619031E-01  0.000000E+00
  1.303270E-01  4.719491E-02  5.000000E-01  1.316432E-01  4.760207E-02  0.000000E+00  2.367387E-02  4.548161E-03 -7.610597E-18 -9.733402E-01  0.000000E+00
  1.182110E-01  4.474959E-02  5.000000E-01  1.194048E-01  4.513205E-02  0.000000E+00  2.420239E-02  5.171284E-03 -7.024701E-18 -9.693117E-01  0.000000E+00
  1.067560E-01  4.217198E-02  5.000000E-01  1.078341E-01  4.252840E-02  0.000000E+00  2.465452E-02  5.865423E-03 -8.197425E-19 -9.417420E-01  0.000000E+00
  9.596750E-02  3.946988E-02  5.000000E-01  9.693669E-02  3.979902E-02  0.000000E+00  2.486766E-02  6.500186E-03  3.785981E-18 -8.984059E-01  0.000000E+00
  8.582800E-02  3.670685E-02  5.000000E-01  8.669479E-02  3.700808E-02  0.000000E+00  2.478280E-02  6.961519E-03  4.658871E-18 -8.566671E-01  0.000000E+00
  8.582800E-02  3.670685E-02  5.000000E-01  8.669479E-02  3.700808E-02  0.000000E+00  2.478280E-02  6.961519E-03  4.658871E-18 -8.566671E-01  0.000000E+00
  7.631050E-02  3.395134E-02  5.000000E-01  7.708117E-02  3.422474E-02  0.000000E+00  2.452500E-02  7.313998E-03  5.608473E-18 -8.203982E-01  0.000000E+00
  6.740780E-02  3.121849E-02  5.000000E-01  6.808856E-02  3.146430E-02  0.000000E+00  2.424649E-02  7.676736E-03 -3.781613E-18 -7.835169E-01  0.000000E+00
  5.911740E-02  2.851332E-02  5.000000E-01  5.971444E-02  2.873180E-02  0.000000E+00  2.399981E-02  8.069657E-03 -1.032198E-17 -7.438161E-01  0.000000E+00
  5.143150E-02  2.585219E-02  5.000000E-01  5.195092E-02  2.604380E-02  0.000000E+00  2.377170E-02  8.463887E-03 -4.764254E-18 -7.023343E-01  0.000000E+00
  4.433770E-02  2.325636E-02  5.000000E-01  4.478548E-02  2.342176E-02  0.000000E+00  2.353570E-02  8.839513E-03  4.525473E-18 -6.618058E-01  0.000000E+00
  3.782240E-02  2.074579E-02  5.000000E-01  3.820438E-02  2.088583E-02  0.000000E+00  2.328266E-02  9.201505E-03  1.313909E-17 -6.261668E-01  0.000000E+00
  3.187460E-02  1.833496E-02  5.000000E-01  3.219651E-02  1.845065E-02  0.000000E+00  2.303338E-02  9.576593E-03  2.351128E-17 -5.986806E-01  0.000000E+00
  2.648400E-02  1.603597E-02  5.000000E-01  2.675147E-02  1.612845E-02  0.000000E+00  2.282685E-02  1.002685E-02  2.725992E-17 -5.744574E-01  0.000000E+00
  2.164990E-02  1.385141E-02  5.000000E-01  2.186855E-02  1.392183E-02  0.000000E+00  2.263992E-02  1.060114E-02  1.765319E-17 -5.386828E-01  0.000000E+00
  1.737670E-02  1.178206E-02  5.000000E-01  1.755219E-02  1.183157E-02  0.000000E+00  2.231580E-02  1.117622E-02 -2.677760E-17 -4.862790E-01  0.000000E+00
  1.364080E-02  9.848349E-03  5.000000E-01  1.377856E-02  9.878336E-03  0.000000E+00  2.168255E-02  1.149998E-02 -1.731269E-16 -4.348275E-01  0.000000E+00
  1.039090E-02  8.080381E-03  5.000000E-01  1.049584E-02  8.092513E-03  0.000000E+00  2.073467E-02  1.149935E-02 -4.316840E-16 -4.081167E-01  0.000000E+00
  7.586340E-03  6.493099E-03  5.000000E-01  7.662960E-03  6.489200E-03  0.000000E+00  1.963559E-02  1.143152E-02 -6.740146E-16 -4.158286E-01  0.000000E+00
  5.226210E-03  5.078536E-03  5.000000E-01  5.278995E-03  5.060352E-03  0.000000E+00  1.865914E-02  1.172033E-02 -7.185050E-16 -4.601038E-01  0.000000E+00
  3.324300E-03  3.824795E-03  5.000000E-01  3.357877E-03  3.793950E-03  0.000000E+00  1.834027E-02  1.300176E-02 -7.292779E-16 -5.454305E-01  0.000000E+00
  1.883580E-03  2.729796E-03  5.000000E-01  1.902608E-03  2.687892E-03  0.000000E+00  1.948033E-02  1.666389E-02 -1.049587E-15 -6.506533E-01  0.000000E+00
  8.951490E-04  1.799875E-03  5.000000E-01  9.041943E-04  1.748580E-03  0.000000E+00  2.186215E-02  2.485615E-02 -1.337469E-15 -6.998253E-01  0.000000E+00
  3.201820E-04  1.051282E-03  5.000000E-01  3.234206E-04  9.924267E-04  0.000000E+00  2.200716E-02  3.780658E-02 -1.335538E-15 -5.999455E-01  0.000000E+00
  6.852390E-05  5.051958E-04  5.000000E-01  6.922101E-05  4.408251E-04  0.000000E+00  1.596107E-02  5.008076E-02 -2.670753E-15 -4.004837E-01  0.000000E+00
  4.217600E-06  1.773738E-04  5.000000E-01  4.265277E-06  1.096924E-04  0.000000E+00  6.706247E-03  5.948908E-02 -6.416678E-15 -3.467127E-01  0.000000E+00
 -5.032520E-09  6.877811E-05  5.000000E-01  0.000000E+00  0.000000E+00  0.000000E+00 -1.681919E-03  7.925682E-02 -9.914834E-15 -4.155410E-01  0.000000E+00
  5.154440E-06 -4.006568E-05  5.000000E-01  5.211579E-06 -1.099430E-04  0.000000E+00 -1.268339E-02  8.942223E-02 -1.063161E-14 -1.662101E-01  0.000000E+00