 Title = "ADflow Slice Data"
Variables =  "CoordinateX"  "CoordinateY"  "CoordinateZ"  "XoC"  "YoC"  "ZoC" "VelocityX" "VelocityY" "VelocityZ" "CoefPressure" "Mach" 
Zone T= "Slice_0001 None Absolute Regular z = 0.50000000"
 Nodes =          192  Elements=          184  ZONETYPE=FELINESEG
 DATAPACKING=POINT
  5.653940E-01 -5.972248E-03  5.000000E-01  5.711039E-01 -6.076534E-03  0.000000E+00  9.689878E-03  7.852532E-04 -5.391450E-19  1.290851E-01  0.000000E+00
  5.859770E-01 -4.215909E-03  5.000000E-01  5.918948E-01 -4.302459E-03  0.000000E+00  9.306544E-03  8.297613E-04 -2.891343E-19  1.401007E-01  0.000000E+00
  6.063060E-01 -2.320974E-03  5.000000E-01  6.124291E-01 -2.388386E-03  0.000000E+00  8.873849E-03  8.522577E-04 -1.265947E-18  1.593011E-01  0.000000E+00
  6.263240E-01 -3.392935E-04  5.000000E-01  6.326493E-01 -3.866928E-04  0.000000E+00  8.437417E-03  8.425684E-04 -2.554340E-19  1.828566E-01  0.000000E+00
  6.459860E-01  1.642031E-03  5.000000E-01  6.525098E-01  1.614641E-03  0.000000E+00  8.033610E-03  8.014778E-04  9.823068E-19  2.075667E-01  0.000000E+00
  6.652460E-01  3.542542E-03  5.000000E-01  6.719643E-01  3.534345E-03  0.000000E+00  7.672718E-03  7.427948E-04 -8.191672E-20  2.301981E-01  0.000000E+00
  6.840650E-01  5.325526E-03  5.000000E-01  6.909734E-01  5.335336E-03  0.000000E+00  7.339162E-03  6.839964E-04 -9.127168E-19  2.486563E-01  0.000000E+00
  7.024070E-01  7.004376E-03  5.000000E-01  7.095006E-01  7.031141E-03  0.000000E+00  7.012601E-03  6.305042E-04 -7.561257E-19  2.644881E-01  0.000000E+00
  7.202400E-01  8.578962E-03  5.000000E-01  7.275137E-01  8.621629E-03  0.000000E+00  6.686039E-03  5.762488E-04 -5.862986E-20  2.808117E-01  0.000000E+00
  7.375350E-01  1.003226E-02  5.000000E-01  7.449834E-01  1.008961E-02  0.000000E+00  6.365570E-03  5.170709E-04  5.035928E-19  2.982525E-01  0.000000E+00
  7.542690E-01  1.134248E-02  5.000000E-01  7.618864E-01  1.141306E-02  0.000000E+00  6.066901E-03  4.534295E-04  3.211067E-19  3.157455E-01  0.000000E+00
  7.704220E-01  1.248837E-02  5.000000E-01  7.782025E-01  1.257052E-02  0.000000E+00  5.812687E-03  3.868998E-04  7.040258E-20  3.318670E-01  0.000000E+00
  7.859770E-01  1.345273E-02  5.000000E-01  7.939146E-01  1.354462E-02  0.000000E+00  5.634241E-03  3.108789E-04 -1.712797E-20  3.468669E-01  0.000000E+00
  8.009220E-01  1.417575E-02  5.000000E-01  8.090105E-01  1.427494E-02  0.000000E+00  5.566250E-03  2.148306E-04 -1.373467E-19  3.612665E-01  0.000000E+00
  8.152480E-01  1.458799E-02  5.000000E-01  8.234812E-01  1.469134E-02  0.000000E+00  5.622172E-03  1.031894E-04 -4.515508E-19  3.713132E-01  0.000000E+00
  8.289490E-01  1.469659E-02  5.000000E-01  8.373206E-01  1.480104E-02  0.000000E+00  5.784776E-03 -1.091999E-05 -1.912431E-19  3.737219E-01  0.000000E+00
  8.420260E-01  1.454754E-02  5.000000E-01  8.505297E-01  1.465049E-02  0.000000E+00  6.023539E-03 -1.208814E-04  3.629908E-19  3.701748E-01  0.000000E+00
  8.544790E-01  1.419504E-02  5.000000E-01  8.631084E-01  1.429443E-02  0.000000E+00  6.308323E-03 -2.244740E-04  2.131721E-19  3.633924E-01  0.000000E+00
  8.663160E-01  1.369203E-02  5.000000E-01  8.750650E-01  1.378634E-02  0.000000E+00  6.611920E-03 -3.200523E-04  3.657382E-19  3.548019E-01  0.000000E+00
  8.775420E-01  1.308532E-02  5.000000E-01  8.864043E-01  1.317349E-02  0.000000E+00  6.910614E-03 -4.054730E-04 -4.087213E-20  3.451097E-01  0.000000E+00
  8.881660E-01  1.241474E-02  5.000000E-01  8.971356E-01  1.249614E-02  0.000000E+00  7.186283E-03 -4.786552E-04 -2.936979E-19  3.349094E-01  0.000000E+00
  8.981970E-01  1.171280E-02  5.000000E-01  9.072679E-01  1.178712E-02  0.000000E+00  7.429417E-03 -5.406229E-04  8.645075E-19  3.249483E-01  0.000000E+00
  9.076460E-01  1.099992E-02  5.000000E-01  9.168124E-01  1.106703E-02  0.000000E+00  7.641544E-03 -5.972789E-04  7.882821E-19  3.160998E-01  0.000000E+00
  9.165220E-01  1.028290E-02  5.000000E-01  9.257780E-01  1.034277E-02  0.000000E+00  7.831944E-03 -6.542996E-04  1.351657E-20  3.083998E-01  0.000000E+00
  9.165220E-01  1.028290E-02  5.000000E-01  9.257780E-01  1.034277E-02  0.000000E+00  7.831944E-03 -6.542996E-04  1.351657E-20  3.083998E-01  0.000000E+00
  9.248360E-01  9.565775E-03  5.000000E-01  9.341760E-01  9.618407E-03  0.000000E+00  8.010852E-03 -7.136515E-04 -7.945393E-20  3.010824E-01  0.000000E+00
  9.325990E-01  8.852589E-03  5.000000E-01  9.420174E-01  8.898019E-03  0.000000E+00  8.186920E-03 -7.761843E-04  4.159223E-19  2.937042E-01  0.000000E+00
  9.398210E-01  8.147110E-03  5.000000E-01  9.493123E-01  8.185416E-03  0.000000E+00  8.367746E-03 -8.428564E-04  4.080633E-19  2.861569E-01  0.000000E+00
  9.465130E-01  7.453126E-03  5.000000E-01  9.560719E-01  7.484423E-03  0.000000E+00  8.559884E-03 -9.144951E-04  3.364989E-19  2.783165E-01  0.000000E+00
  9.526870E-01  6.774619E-03  5.000000E-01  9.623082E-01  6.799063E-03  0.000000E+00  8.768478E-03 -9.917406E-04  3.204744E-19  2.700281E-01  0.000000E+00
  9.583540E-01  6.115929E-03  5.000000E-01  9.680325E-01  6.133721E-03  0.000000E+00  8.997316E-03 -1.075028E-03 -4.120952E-19  2.611564E-01  0.000000E+00
  9.635240E-01  5.481809E-03  5.000000E-01  9.732547E-01  5.493197E-03  0.000000E+00  9.249349E-03 -1.164445E-03 -8.056831E-19  2.515754E-01  0.000000E+00
  9.682080E-01  4.877343E-03  5.000000E-01  9.779860E-01  4.882627E-03  0.000000E+00  9.528366E-03 -1.260240E-03 -5.966374E-19  2.412285E-01  0.000000E+00
  9.724140E-01  4.307937E-03  5.000000E-01  9.822344E-01  4.307471E-03  0.000000E+00  9.841446E-03 -1.362937E-03  2.103994E-19  2.301080E-01  0.000000E+00
  9.761510E-01  3.779146E-03  5.000000E-01  9.860092E-01  3.773339E-03  0.000000E+00  1.019926E-02 -1.472997E-03  1.582734E-18  2.181813E-01  0.000000E+00
  9.794290E-01  3.296468E-03  5.000000E-01  9.893203E-01  3.285786E-03  0.000000E+00  1.060917E-02 -1.590966E-03  2.183731E-18  2.054575E-01  0.000000E+00
  9.822540E-01  2.865353E-03  5.000000E-01  9.921738E-01  2.850317E-03  0.000000E+00  1.105694E-02 -1.715007E-03 -7.919063E-19  1.921848E-01  0.000000E+00
  9.846330E-01  2.490875E-03  5.000000E-01  9.945768E-01  2.472057E-03  0.000000E+00  1.148742E-02 -1.833887E-03 -6.182310E-18  1.796148E-01  0.000000E+00
  9.865710E-01  2.177649E-03  5.000000E-01  9.965344E-01  2.155669E-03  0.000000E+00  1.176556E-02 -1.913104E-03 -7.904337E-18  1.666218E-01  0.000000E+00
  9.880740E-01  1.929641E-03  5.000000E-01  9.980526E-01  1.905155E-03  0.000000E+00  1.167099E-02 -1.944100E-03 -2.663617E-18  1.469649E-01  0.000000E+00
  9.891450E-01  1.750087E-03  5.000000E-01  9.991344E-01  1.723788E-03  0.000000E+00  1.187953E-02 -2.084144E-03 -6.387970E-18  1.475895E-01  0.000000E+00
  9.897860E-01  1.641388E-03  5.000000E-01  9.997819E-01  1.613992E-03  0.000000E+00  1.527934E-02 -2.115215E-03 -4.501055E-17  1.948602E-01  0.000000E+00
  9.900000E-01  1.604989E-03  5.000000E-01  9.999981E-01  1.577225E-03  0.000000E+00  1.065298E-02 -4.512627E-03 -7.074140E-17 -5.014746E-02  0.000000E+00
  9.900000E-01  1.683699E-03  5.000000E-01  9.999981E-01  1.656730E-03  0.000000E+00  1.064577E-03 -1.496284E-02 -3.310123E-18 -1.886187E-01  0.000000E+00
  9.900000E-01  1.762419E-03  5.000000E-01  9.999981E-01  1.736245E-03  0.000000E+00 -5.292712E-04 -1.410068E-02  5.912049E-17 -1.208623E-02  0.000000E+00
  9.900000E-01  1.841140E-03  5.000000E-01  9.999981E-01  1.815761E-03  0.000000E+00 -2.977487E-04  2.303996E-03  3.189884E-17 -1.681287E-02  0.000000E+00
  9.900000E-01  1.919850E-03  5.000000E-01  9.999981E-01  1.895266E-03  0.000000E+00  7.085303E-04  3.767942E-03  3.767085E-17 -1.341519E-01  0.000000E+00
  9.900000E-01  1.998570E-03  5.000000E-01  9.999981E-01  1.974781E-03  0.000000E+00  5.849131E-03 -2.642906E-03  9.012765E-17 -4.076105E-02  0.000000E+00
  9.900000E-01  1.998570E-03  5.000000E-01  9.999981E-01  1.974781E-03  0.000000E+00  5.849131E-03 -2.642906E-03  9.012765E-17 -4.076105E-02  0.000000E+00
  9.897900E-01  2.044535E-03  5.000000E-01  9.997859E-01  2.021210E-03  0.000000E+00  7.600740E-03 -1.992139E-03  8.475660E-17  1.001353E-01  0.000000E+00
  9.891580E-01  2.182385E-03  5.000000E-01  9.991475E-01  2.160452E-03  0.000000E+00  4.686617E-03 -9.612190E-04  4.560412E-17  5.801716E-02  0.000000E+00
  9.881040E-01  2.411927E-03  5.000000E-01  9.980829E-01  2.392312E-03  0.000000E+00  3.921089E-03 -8.512255E-04  2.251141E-17  4.819723E-02  0.000000E+00
  9.866260E-01  2.732845E-03  5.000000E-01  9.965900E-01  2.716471E-03  0.000000E+00  3.734068E-03 -8.147953E-04  6.957403E-18  4.972333E-02  0.000000E+00
  9.847200E-01  3.144680E-03  5.000000E-01  9.946647E-01  3.132466E-03  0.000000E+00  3.662301E-03 -7.884638E-04 -2.315211E-18  4.414494E-02  0.000000E+00
  9.823820E-01  3.646780E-03  5.000000E-01  9.923031E-01  3.639637E-03  0.000000E+00  3.727905E-03 -7.970730E-04 -4.589543E-18  3.571867E-02  0.000000E+00
  9.796080E-01  4.238247E-03  5.000000E-01  9.895011E-01  4.237076E-03  0.000000E+00  3.907210E-03 -8.292734E-04 -2.957653E-18  2.640880E-02  0.000000E+00
  9.763910E-01  4.917955E-03  5.000000E-01  9.862516E-01  4.923649E-03  0.000000E+00  4.157748E-03 -8.739926E-04 -4.995078E-19  1.570097E-02  0.000000E+00
  9.727270E-01  5.684352E-03  5.000000E-01  9.825506E-01  5.697785E-03  0.000000E+00  4.451716E-03 -9.252751E-04  6.996573E-19  3.492917E-03  0.000000E+00
  9.686070E-01  6.535641E-03  5.000000E-01  9.783890E-01  6.557672E-03  0.000000E+00  4.772878E-03 -9.791318E-04  4.134815E-19 -9.980366E-03  0.000000E+00
  9.640240E-01  7.469512E-03  5.000000E-01  9.737597E-01  7.500974E-03  0.000000E+00  5.112530E-03 -1.033132E-03  2.315974E-19 -2.456457E-02  0.000000E+00
  9.589680E-01  8.483241E-03  5.000000E-01  9.686527E-01  8.524941E-03  0.000000E+00  5.467016E-03 -1.086020E-03  5.101874E-19 -4.012192E-02  0.000000E+00
  9.534310E-01  9.573536E-03  5.000000E-01  9.630597E-01  9.626247E-03  0.000000E+00  5.834685E-03 -1.136955E-03  5.728099E-19 -5.650993E-02  0.000000E+00
  9.474030E-01  1.073659E-02  5.000000E-01  9.569709E-01  1.080104E-02  0.000000E+00  6.213590E-03 -1.184805E-03  9.580664E-19 -7.349181E-02  0.000000E+00
  9.408720E-01  1.196803E-02  5.000000E-01  9.503739E-01  1.204492E-02  0.000000E+00  6.600278E-03 -1.228450E-03  6.646208E-19 -9.087966E-02  0.000000E+00
  9.338280E-01  1.326287E-02  5.000000E-01  9.432588E-01  1.335284E-02  0.000000E+00  6.990258E-03 -1.266735E-03 -4.715640E-19 -1.084919E-01  0.000000E+00
  9.262600E-01  1.461563E-02  5.000000E-01  9.356143E-01  1.471926E-02  0.000000E+00  7.378123E-03 -1.298175E-03 -4.937649E-19 -1.260605E-01  0.000000E+00
  9.181550E-01  1.602011E-02  5.000000E-01  9.274275E-01  1.613792E-02  0.000000E+00  7.757238E-03 -1.321379E-03 -1.025232E-19 -1.433569E-01  0.000000E+00
  9.095020E-01  1.746969E-02  5.000000E-01  9.186871E-01  1.760214E-02  0.000000E+00  8.119972E-03 -1.334966E-03 -6.140176E-22 -1.600245E-01  0.000000E+00
  9.002880E-01  1.895704E-02  5.000000E-01  9.093800E-01  1.910452E-02  0.000000E+00  8.457064E-03 -1.337713E-03 -2.730948E-19 -1.754809E-01  0.000000E+00
  8.905020E-01  2.047449E-02  5.000000E-01  8.994952E-01  2.063729E-02  0.000000E+00  8.757532E-03 -1.329976E-03 -6.307618E-19 -1.893287E-01  0.000000E+00
  8.801320E-01  2.201726E-02  5.000000E-01  8.890205E-01  2.219564E-02  0.000000E+00  9.011458E-03 -1.314001E-03  1.574618E-19 -2.015607E-01  0.000000E+00
  8.691700E-01  2.358401E-02  5.000000E-01  8.779478E-01  2.377821E-02  0.000000E+00  9.213160E-03 -1.292212E-03  4.028094E-19 -2.123041E-01  0.000000E+00
  8.691700E-01  2.358401E-02  5.000000E-01  8.779478E-01  2.377821E-02  0.000000E+00  9.213160E-03 -1.292212E-03  4.028094E-19 -2.123041E-01  0.000000E+00
  8.576080E-01  2.517537E-02  5.000000E-01  8.662690E-01  2.538565E-02  0.000000E+00  9.361793E-03 -1.266749E-03 -5.816518E-19 -2.215960E-01  0.000000E+00
  8.454380E-01  2.679420E-02  5.000000E-01  8.539761E-01  2.702082E-02  0.000000E+00  9.460516E-03 -1.240636E-03 -4.189081E-19 -2.295073E-01  0.000000E+00
  8.326580E-01  2.844655E-02  5.000000E-01  8.410670E-01  2.868986E-02  0.000000E+00  9.516905E-03 -1.217699E-03  4.363509E-19 -2.363281E-01  0.000000E+00
  8.192630E-01  3.014287E-02  5.000000E-01  8.275368E-01  3.040331E-02  0.000000E+00  9.544234E-03 -1.202756E-03  1.291391E-18 -2.430257E-01  0.000000E+00
  8.052550E-01  3.189939E-02  5.000000E-01  8.133873E-01  3.217757E-02  0.000000E+00  9.563501E-03 -1.200371E-03  1.104811E-18 -2.513869E-01  0.000000E+00
  7.906370E-01  3.373545E-02  5.000000E-01  7.986217E-01  3.403217E-02  0.000000E+00  9.603439E-03 -1.211189E-03 -6.473890E-20 -2.630246E-01  0.000000E+00
  7.754120E-01  3.566307E-02  5.000000E-01  7.832429E-01  3.597926E-02  0.000000E+00  9.693673E-03 -1.231060E-03  2.169894E-19 -2.784433E-01  0.000000E+00
  7.595880E-01  3.767861E-02  5.000000E-01  7.672591E-01  3.801516E-02  0.000000E+00  9.854308E-03 -1.254317E-03  1.207129E-18 -2.973541E-01  0.000000E+00
  7.431760E-01  3.976606E-02  5.000000E-01  7.506814E-01  4.012368E-02  0.000000E+00  1.009053E-02 -1.276789E-03  3.340702E-19 -3.193701E-01  0.000000E+00
  7.261880E-01  4.190436E-02  5.000000E-01  7.335218E-01  4.228358E-02  0.000000E+00  1.039467E-02 -1.294938E-03 -1.941686E-18 -3.438307E-01  0.000000E+00
  7.086430E-01  4.406795E-02  5.000000E-01  7.157996E-01  4.446902E-02  0.000000E+00  1.075025E-02 -1.304489E-03 -2.227985E-18 -3.693786E-01  0.000000E+00
  6.905640E-01  4.622777E-02  5.000000E-01  6.975380E-01  4.665065E-02  0.000000E+00  1.113514E-02 -1.302467E-03  4.921583E-19 -3.945312E-01  0.000000E+00
  6.719770E-01  4.835748E-02  5.000000E-01  6.787633E-01  4.880187E-02  0.000000E+00  1.152669E-02 -1.290542E-03  9.574165E-19 -4.189738E-01  0.000000E+00
  6.529150E-01  5.044334E-02  5.000000E-01  6.595088E-01  5.090880E-02  0.000000E+00  1.191122E-02 -1.272643E-03  8.436480E-20 -4.434688E-01  0.000000E+00
  6.334180E-01  5.247761E-02  5.000000E-01  6.398149E-01  5.296361E-02  0.000000E+00  1.228910E-02 -1.249546E-03 -1.568554E-19 -4.687855E-01  0.000000E+00
  6.135280E-01  5.444837E-02  5.000000E-01  6.197240E-01  5.495427E-02  0.000000E+00  1.266931E-02 -1.219566E-03 -1.594210E-18 -4.955767E-01  0.000000E+00
  5.932910E-01  5.634027E-02  5.000000E-01  5.992827E-01  5.686528E-02  0.000000E+00  1.306233E-02 -1.180038E-03 -1.720636E-18 -5.238203E-01  0.000000E+00
  5.727570E-01  5.813228E-02  5.000000E-01  5.785413E-01  5.867538E-02  0.000000E+00  1.347436E-02 -1.126837E-03 -9.485744E-19 -5.519185E-01  0.000000E+00
  5.519810E-01  5.979746E-02  5.000000E-01  5.575555E-01  6.035738E-02  0.000000E+00  1.390137E-02 -1.056708E-03 -4.232914E-19 -5.777125E-01  0.000000E+00
  5.310180E-01  6.130796E-02  5.000000E-01  5.363808E-01  6.188314E-02  0.000000E+00  1.432794E-02 -9.752330E-04  4.862349E-19 -6.018860E-01  0.000000E+00
  5.099250E-01  6.266079E-02  5.000000E-01  5.150748E-01  6.324963E-02  0.000000E+00  1.474435E-02 -8.932064E-04  1.029808E-18 -6.279609E-01  0.000000E+00
  4.887640E-01  6.386802E-02  5.000000E-01  4.937001E-01  6.446906E-02  0.000000E+00  1.516637E-02 -8.063396E-04  4.115399E-19 -6.567629E-01  0.000000E+00
  4.675910E-01  6.491415E-02  5.000000E-01  4.723132E-01  6.552574E-02  0.000000E+00  1.561726E-02 -6.983115E-04 -1.526178E-19 -6.853967E-01  0.000000E+00
  7.860720E-05 -5.513949E-04  5.000000E-01  7.940614E-05 -6.009362E-04  0.000000E+00 -1.079919E-02  3.918521E-02  3.434227E-16  6.720320E-01  0.000000E+00
  3.989240E-04 -1.254578E-03  5.000000E-01  4.029578E-04 -1.311221E-03  0.000000E+00 -1.151418E-02  2.004696E-02  2.206108E-16  1.016530E+00  0.000000E+00
  1.196920E-03 -2.118678E-03  5.000000E-01  1.209013E-03 -2.184048E-03  0.000000E+00 -5.554905E-03  5.770286E-03  1.146143E-16  1.098069E+00  0.000000E+00
  2.563580E-03 -3.036047E-03  5.000000E-01  2.589475E-03 -3.110681E-03  0.000000E+00  1.818463E-03 -7.475702E-04  2.969315E-17  9.958890E-01  0.000000E+00
  4.492740E-03 -3.953903E-03  5.000000E-01  4.538117E-03 -4.037807E-03  0.000000E+00  7.006462E-03 -2.870495E-03 -1.040710E-17  8.740218E-01  0.000000E+00
  6.952190E-03 -4.862107E-03  5.000000E-01  7.022405E-03 -4.955183E-03  0.000000E+00  9.984267E-03 -3.362721E-03 -1.531891E-17  7.785019E-01  0.000000E+00
  9.910730E-03 -5.779400E-03  5.000000E-01  1.001082E-02 -5.881739E-03  0.000000E+00  1.164101E-02 -3.401122E-03 -7.580173E-18  7.013028E-01  0.000000E+00
  1.334950E-02 -6.729242E-03  5.000000E-01  1.348432E-02 -6.841173E-03  0.000000E+00  1.261561E-02 -3.262548E-03 -5.194399E-19  6.264453E-01  0.000000E+00
  1.728780E-02 -7.684330E-03  5.000000E-01  1.746240E-02 -7.805907E-03  0.000000E+00  1.317823E-02 -2.926264E-03  1.112154E-18  5.464352E-01  0.000000E+00
  2.175590E-02 -8.587949E-03  5.000000E-01  2.197562E-02 -8.718652E-03  0.000000E+00  1.343572E-02 -2.445530E-03 -5.879296E-19  4.721365E-01  0.000000E+00
  2.676920E-02 -9.398473E-03  5.000000E-01  2.703955E-02 -9.537361E-03  0.000000E+00  1.349345E-02 -1.949667E-03 -2.220462E-18  4.162844E-01  0.000000E+00
  3.232800E-02 -1.010475E-02  5.000000E-01  3.265449E-02 -1.025077E-02  0.000000E+00  1.345147E-02 -1.528128E-03 -2.407774E-18  3.801229E-01  0.000000E+00
  3.842930E-02 -1.071542E-02  5.000000E-01  3.881740E-02 -1.086761E-02  0.000000E+00  1.336674E-02 -1.205172E-03 -1.330045E-18  3.568481E-01  0.000000E+00
  4.507220E-02 -1.124820E-02  5.000000E-01  4.552739E-02 -1.140577E-02  0.000000E+00  1.327519E-02 -9.854346E-04 -1.294546E-19  3.411338E-01  0.000000E+00
  5.225680E-02 -1.173784E-02  5.000000E-01  5.278455E-02 -1.190035E-02  0.000000E+00  1.321313E-02 -8.630010E-04  3.229106E-19  3.299006E-01  0.000000E+00
  5.998640E-02 -1.222109E-02  5.000000E-01  6.059221E-02 -1.238848E-02  0.000000E+00  1.318806E-02 -7.963018E-04  1.611255E-20  3.175789E-01  0.000000E+00
  6.827110E-02 -1.270468E-02  5.000000E-01  6.896058E-02 -1.287696E-02  0.000000E+00  1.317620E-02 -7.413846E-04 -4.803178E-19  3.012227E-01  0.000000E+00
  7.712280E-02 -1.318400E-02  5.000000E-01  7.790167E-02 -1.336112E-02  0.000000E+00  1.315774E-02 -6.872992E-04  5.394665E-20  2.837310E-01  0.000000E+00
  8.655260E-02 -1.365784E-02  5.000000E-01  8.742670E-02 -1.383975E-02  0.000000E+00  1.312295E-02 -6.336162E-04  5.723688E-19  2.675370E-01  0.000000E+00
  9.657140E-02 -1.412196E-02  5.000000E-01  9.754668E-02 -1.430855E-02  0.000000E+00  1.306000E-02 -5.716228E-04  4.247658E-20  2.520684E-01  0.000000E+00
  1.071900E-01 -1.455986E-02  5.000000E-01  1.082725E-01 -1.475087E-02  0.000000E+00  1.296449E-02 -4.997604E-04 -7.528914E-20  2.374631E-01  0.000000E+00
  1.184180E-01 -1.496176E-02  5.000000E-01  1.196139E-01 -1.515683E-02  0.000000E+00  1.285553E-02 -4.340789E-04  8.985097E-21  2.257411E-01  0.000000E+00
  1.302610E-01 -1.533687E-02  5.000000E-01  1.315765E-01 -1.553574E-02  0.000000E+00  1.276329E-02 -3.895374E-04 -6.429999E-20  2.169971E-01  0.000000E+00
  1.427230E-01 -1.570264E-02  5.000000E-01  1.441644E-01 -1.590520E-02  0.000000E+00  1.270810E-02 -3.696974E-04 -3.345622E-19  2.092008E-01  0.000000E+00
  1.427230E-01 -1.570264E-02  5.000000E-01  1.441644E-01 -1.590520E-02  0.000000E+00  1.270810E-02 -3.696974E-04 -3.345622E-19  2.092008E-01  0.000000E+00
  1.558070E-01 -1.608013E-02  5.000000E-01  1.573805E-01 -1.628649E-02  0.000000E+00  1.268939E-02 -3.659508E-04 -1.408579E-19  1.999919E-01  0.000000E+00
  1.695140E-01 -1.647586E-02  5.000000E-01  1.712259E-01 -1.668622E-02  0.000000E+00  1.268774E-02 -3.616662E-04  3.191419E-19  1.879810E-01  0.000000E+00
  1.838420E-01 -1.687929E-02  5.000000E-01  1.856986E-01 -1.709373E-02  0.000000E+00  1.268068E-02 -3.430314E-04  6.744519E-19  1.738847E-01  0.000000E+00
  1.987870E-01 -1.726718E-02  5.000000E-01  2.007946E-01 -1.748554E-02  0.000000E+00  1.265696E-02 -3.030921E-04  5.209499E-19  1.592152E-01  0.000000E+00
  2.143420E-01 -1.760841E-02  5.000000E-01  2.165067E-01 -1.783021E-02  0.000000E+00  1.262761E-02 -2.505212E-04 -9.926747E-20  1.458912E-01  0.000000E+00
  2.304940E-01 -1.789384E-02  5.000000E-01  2.328218E-01 -1.811853E-02  0.000000E+00  1.262606E-02 -2.104866E-04 -8.314471E-19  1.358851E-01  0.000000E+00
  2.472290E-01 -1.815500E-02  5.000000E-01  2.497258E-01 -1.838232E-02  0.000000E+00  1.267984E-02 -1.962763E-04 -1.088104E-18  1.277937E-01  0.000000E+00
  2.645310E-01 -1.842138E-02  5.000000E-01  2.672025E-01 -1.865139E-02  0.000000E+00  1.278092E-02 -1.899657E-04 -4.626851E-19  1.168880E-01  0.000000E+00
  2.823750E-01 -1.867891E-02  5.000000E-01  2.852267E-01 -1.891152E-02  0.000000E+00  1.289079E-02 -1.610510E-04  2.246755E-20  1.006596E-01  0.000000E+00
  3.007320E-01 -1.887360E-02  5.000000E-01  3.037691E-01 -1.910817E-02  0.000000E+00  1.296762E-02 -9.339364E-05  3.386732E-19  8.168284E-02  0.000000E+00
  3.195690E-01 -1.894500E-02  5.000000E-01  3.227963E-01 -1.918030E-02  0.000000E+00  1.298206E-02  1.019125E-05  4.912790E-19  6.433933E-02  0.000000E+00
  3.388440E-01 -1.884078E-02  5.000000E-01  3.422660E-01 -1.907503E-02  0.000000E+00  1.291894E-02  1.344164E-04  3.944571E-19  5.174016E-02  0.000000E+00
  3.585140E-01 -1.853629E-02  5.000000E-01  3.621347E-01 -1.876747E-02  0.000000E+00  1.277076E-02  2.622083E-04  3.143125E-19  4.481396E-02  0.000000E+00
  3.785290E-01 -1.802289E-02  5.000000E-01  3.823518E-01 -1.824888E-02  0.000000E+00  1.252885E-02  3.855620E-04  5.641273E-19  4.240942E-02  0.000000E+00
  3.988350E-01 -1.729182E-02  5.000000E-01  4.028629E-01 -1.751042E-02  0.000000E+00  1.219005E-02  5.017052E-04  3.681850E-19  4.384801E-02  0.000000E+00
  4.193750E-01 -1.633741E-02  5.000000E-01  4.236103E-01 -1.654638E-02  0.000000E+00  1.176796E-02  6.121102E-04  3.259616E-19  4.911969E-02  0.000000E+00
  4.400850E-01 -1.514128E-02  5.000000E-01  4.445294E-01 -1.533816E-02  0.000000E+00  1.130369E-02  7.139768E-04  4.066828E-19  5.867501E-02  0.000000E+00
  4.609060E-01 -1.370813E-02  5.000000E-01  4.655607E-01 -1.389055E-02  0.000000E+00  1.087014E-02  7.848840E-04  6.030967E-19  7.425276E-02  0.000000E+00
  4.818030E-01 -1.212313E-02  5.000000E-01  4.866688E-01 -1.228953E-02  0.000000E+00  1.054269E-02  7.967295E-04  1.895009E-19  9.596886E-02  0.000000E+00
  5.027520E-01 -1.054447E-02  5.000000E-01  5.078293E-01 -1.069494E-02  0.000000E+00  1.033807E-02  7.582363E-04 -3.033725E-19  1.171813E-01  0.000000E+00
  5.237130E-01 -9.054316E-03  5.000000E-01  5.290020E-01 -9.189729E-03  0.000000E+00  1.018647E-02  7.239610E-04  1.219809E-19  1.280415E-01  0.000000E+00
  5.446170E-01 -7.575049E-03  5.000000E-01  5.501171E-01 -7.695523E-03  0.000000E+00  9.986962E-03  7.378353E-04 -5.973873E-19  1.280192E-01  0.000000E+00
  5.653940E-01 -5.972248E-03  5.000000E-01  5.711039E-01 -6.076534E-03  0.000000E+00  9.689878E-03  7.852532E-04 -5.391450E-19  1.290851E-01  0.000000E+00
  4.675910E-01  6.491415E-02  5.000000E-01  4.723132E-01  6.552574E-02  0.000000E+00  1.561726E-02 -6.983115E-04 -1.526178E-19 -6.853967E-01  0.000000E+00
  4.464640E-01  6.576322E-02  5.000000E-01  4.509729E-01  6.638340E-02  0.000000E+00  1.609613E-02 -5.655997E-04 -2.342282E-19 -7.121578E-01  0.000000E+00
  4.254410E-01  6.639892E-02  5.000000E-01  4.297375E-01  6.702551E-02  0.000000E+00  1.658430E-02 -4.154357E-04 -7.242430E-20 -7.373907E-01  0.000000E+00
  4.045840E-01  6.681600E-02  5.000000E-01  4.086699E-01  6.744681E-02  0.000000E+00  1.706540E-02 -2.519012E-04  1.172070E-19 -7.616213E-01  0.000000E+00
  3.839530E-01  6.701509E-02  5.000000E-01  3.878306E-01  6.764790E-02  0.000000E+00  1.753241E-02 -7.398357E-05  1.215767E-19 -7.847329E-01  0.000000E+00
  3.636060E-01  6.699323E-02  5.000000E-01  3.672781E-01  6.762583E-02  0.000000E+00  1.798477E-02  1.210927E-04  1.975667E-19 -8.057443E-01  0.000000E+00
  3.435960E-01  6.674842E-02  5.000000E-01  3.470660E-01  6.737854E-02  0.000000E+00  1.842088E-02  3.337748E-04  3.266276E-19 -8.236594E-01  0.000000E+00
  3.239710E-01  6.628030E-02  5.000000E-01  3.272428E-01  6.690569E-02  0.000000E+00  1.883415E-02  5.585277E-04  2.544374E-19 -8.389754E-01  0.000000E+00
  3.047740E-01  6.560143E-02  5.000000E-01  3.078519E-01  6.621996E-02  0.000000E+00  1.922073E-02  7.873238E-04 -9.953194E-20 -8.535157E-01  0.000000E+00
  2.860450E-01  6.473102E-02  5.000000E-01  2.889338E-01  6.534077E-02  0.000000E+00  1.959116E-02  1.024266E-03 -5.731279E-19 -8.675197E-01  0.000000E+00
  2.678190E-01  6.367433E-02  5.000000E-01  2.705237E-01  6.427341E-02  0.000000E+00  1.995645E-02  1.277626E-03 -2.966128E-20 -8.801279E-01  0.000000E+00
  2.501300E-01  6.243674E-02  5.000000E-01  2.526561E-01  6.302332E-02  0.000000E+00  2.031400E-02  1.547000E-03 -1.113763E-19 -8.910996E-01  0.000000E+00
  2.330040E-01  6.102808E-02  5.000000E-01  2.353571E-01  6.160043E-02  0.000000E+00  2.065450E-02  1.829505E-03 -5.989650E-19 -8.998635E-01  0.000000E+00
  2.164660E-01  5.946027E-02  5.000000E-01  2.186521E-01  6.001679E-02  0.000000E+00  2.096809E-02  2.122178E-03 -1.021287E-19 -9.051336E-01  0.000000E+00
  2.005340E-01  5.774760E-02  5.000000E-01  2.025592E-01  5.828683E-02  0.000000E+00  2.124797E-02  2.419489E-03 -6.078671E-19 -9.058616E-01  0.000000E+00
  1.852230E-01  5.590861E-02  5.000000E-01  1.870936E-01  5.642926E-02  0.000000E+00  2.149424E-02  2.712282E-03 -7.207683E-19 -9.033001E-01  0.000000E+00
  1.705440E-01  5.396853E-02  5.000000E-01  1.722663E-01  5.446959E-02  0.000000E+00  2.172182E-02  2.993709E-03  8.917133E-20 -9.025242E-01  0.000000E+00
  1.565000E-01  5.195339E-02  5.000000E-01  1.580805E-01  5.243410E-02  0.000000E+00  2.197055E-02  3.269040E-03  4.048486E-19 -9.111273E-01  0.000000E+00
  1.430940E-01  4.988599E-02  5.000000E-01  1.445391E-01  5.034581E-02  0.000000E+00  2.231107E-02  3.573614E-03 -1.090480E-19 -9.323049E-01  0.000000E+00
  1.303270E-01  4.776523E-02  5.000000E-01  1.316432E-01  4.820364E-02  0.000000E+00  2.281445E-02  3.979127E-03 -5.954596E-19 -9.571721E-01  0.000000E+00
  1.182110E-01  4.555504E-02  5.000000E-01  1.194048E-01  4.597113E-02  0.000000E+00  2.346460E-02  4.526799E-03 -6.143371E-19 -9.706299E-01  0.000000E+00
  1.067560E-01  4.323127E-02  5.000000E-01  1.078341E-01  4.362389E-02  0.000000E+00  2.412487E-02  5.183102E-03 -1.053242E-19 -9.625836E-01  0.000000E+00
  9.596750E-02  4.078907E-02  5.000000E-01  9.693668E-02  4.115703E-02  0.000000E+00  2.460065E-02  5.823587E-03  2.899813E-19 -9.397300E-01  0.000000E+00
  8.582800E-02  3.828304E-02  5.000000E-01  8.669479E-02  3.862569E-02  0.000000E+00  2.480366E-02  6.330739E-03 -2.080178E-20 -9.198038E-01  0.000000E+00
  8.582800E-02  3.828304E-02  5.000000E-01  8.669479E-02  3.862569E-02  0.000000E+00  2.480366E-02  6.330739E-03 -2.080178E-20 -9.198038E-01  0.000000E+00
  7.631050E-02  3.577560E-02  5.000000E-01  7.708117E-02  3.609293E-02  0.000000E+00  2.485403E-02  6.768244E-03  1.702657E-18 -9.065828E-01  0.000000E+00
  6.740780E-02  3.327297E-02  5.000000E-01  6.808856E-02  3.356502E-02  0.000000E+00  2.491288E-02  7.263403E-03  3.442727E-18 -8.925977E-01  0.000000E+00
  5.911740E-02  3.077018E-02  5.000000E-01  5.971443E-02  3.103696E-02  0.000000E+00  2.503020E-02  7.842077E-03  3.692596E-18 -8.741864E-01  0.000000E+00
  5.143150E-02  2.827527E-02  5.000000E-01  5.195091E-02  2.851685E-02  0.000000E+00  2.517553E-02  8.474204E-03  3.507147E-18 -8.517039E-01  0.000000E+00
  4.433770E-02  2.580305E-02  5.000000E-01  4.478547E-02  2.601966E-02  0.000000E+00  2.529944E-02  9.135410E-03  4.357192E-18 -8.281321E-01  0.000000E+00
  3.782240E-02  2.336856E-02  5.000000E-01  3.820437E-02  2.356059E-02  0.000000E+00  2.537528E-02  9.829251E-03  6.437122E-18 -8.078950E-01  0.000000E+00
  3.187460E-02  2.098220E-02  5.000000E-01  3.219651E-02  2.115012E-02  0.000000E+00  2.541856E-02  1.058760E-02  9.903211E-18 -7.934795E-01  0.000000E+00
  2.648400E-02  1.865339E-02  5.000000E-01  2.675147E-02  1.879780E-02  0.000000E+00  2.547071E-02  1.149242E-02  1.477691E-17 -7.758186E-01  0.000000E+00
  2.164990E-02  1.638123E-02  5.000000E-01  2.186855E-02  1.650269E-02  0.000000E+00  2.548691E-02  1.260976E-02  1.967462E-17 -7.333283E-01  0.000000E+00
  1.737670E-02  1.416388E-02  5.000000E-01  1.755219E-02  1.426295E-02  0.000000E+00  2.524159E-02  1.375631E-02  2.588248E-17 -6.588886E-01  0.000000E+00
  1.364080E-02  1.202912E-02  5.000000E-01  1.377856E-02  1.210663E-02  0.000000E+00  2.452129E-02  1.455456E-02  3.555860E-17 -5.768892E-01  0.000000E+00
  1.039090E-02  1.002352E-02  5.000000E-01  1.049584E-02  1.008078E-02  0.000000E+00  2.339979E-02  1.490549E-02  5.047149E-17 -5.189345E-01  0.000000E+00
  7.586340E-03  8.177006E-03  5.000000E-01  7.662960E-03  8.215613E-03  0.000000E+00  2.220676E-02  1.523956E-02  6.789024E-17 -4.921653E-01  0.000000E+00
  5.226210E-03  6.488163E-03  5.000000E-01  5.278995E-03  6.509714E-03  0.000000E+00  2.130124E-02  1.621615E-02  9.178720E-17 -4.839579E-01  0.000000E+00
  3.324300E-03  4.949817E-03  5.000000E-01  3.357877E-03  4.955833E-03  0.000000E+00  2.093277E-02  1.848956E-02  1.481114E-16 -4.796103E-01  0.000000E+00
  1.883580E-03  3.569251E-03  5.000000E-01  1.902607E-03  3.561324E-03  0.000000E+00  2.098913E-02  2.285836E-02  2.712307E-16 -4.492000E-01  0.000000E+00
  8.951490E-04  2.366304E-03  5.000000E-01  9.041942E-04  2.346228E-03  0.000000E+00  2.033555E-02  2.977846E-02  4.546547E-16 -3.421560E-01  0.000000E+00
  3.201820E-04  1.375720E-03  5.000000E-01  3.234206E-04  1.345641E-03  0.000000E+00  1.688736E-02  3.766123E-02  6.230830E-16 -1.303984E-01  0.000000E+00
  6.852390E-05  6.398913E-04  5.000000E-01  6.922101E-05  6.023809E-04  0.000000E+00  1.030746E-02  4.249729E-02  6.891558E-16  1.058830E-01  0.000000E+00
  4.217600E-06  1.926337E-04  5.000000E-01  4.265277E-06  1.506064E-04  0.000000E+00  3.802400E-03  4.377925E-02  6.461688E-16  1.903461E-01  0.000000E+00
 -5.032520E-09  4.353311E-05  5.000000E-01  0.000000E+00  0.000000E+00  0.000000E+00 -5.754201E-04  4.906659E-02  5.647257E-16  1.564528E-01  0.000000E+00
  5.154440E-06 -1.063810E-04  5.000000E-01  5.211578E-06 -1.514281E-04  0.000000E+00 -5.276968E-03  5.149720E-02  4.691809E-16  2.928108E-01  0.000000E+00