 Title = "ADflow Slice Data"
Variables =  "CoordinateX"  "CoordinateY"  "CoordinateZ"  "XoC"  "YoC"  "ZoC" "VelocityX" "VelocityY" "VelocityZ" "CoefPressure" "Mach" 
Zone T= "Slice_0001 None Absolute Regular z = 0.50000000"
 Nodes =          192  Elements=          184  ZONETYPE=FELINESEG
 DATAPACKING=POINT
  5.653940E-01  2.349380E-03  5.000000E-01  5.711040E-01  2.314520E-03  0.000000E+00  8.921448E-03  4.394963E-04  6.377760E-19  2.188728E-01  0.000000E+00
  5.859770E-01  3.351805E-03  5.000000E-01  5.918948E-01  3.327068E-03  0.000000E+00  8.916959E-03  4.410687E-04  1.136410E-18  2.150876E-01  0.000000E+00
  6.063060E-01  4.373444E-03  5.000000E-01  6.124291E-01  4.359025E-03  0.000000E+00  8.849535E-03  4.553595E-04  5.251667E-19  2.157451E-01  0.000000E+00
  6.263240E-01  5.428347E-03  5.000000E-01  6.326493E-01  5.424582E-03  0.000000E+00  8.729742E-03  4.648745E-04 -1.113052E-19  2.208647E-01  0.000000E+00
  6.459860E-01  6.487037E-03  5.000000E-01  6.525099E-01  6.493963E-03  0.000000E+00  8.575977E-03  4.599905E-04  1.664064E-19  2.292806E-01  0.000000E+00
  6.652460E-01  7.515584E-03  5.000000E-01  6.719644E-01  7.532898E-03  0.000000E+00  8.397923E-03  4.442953E-04  1.769634E-19  2.385902E-01  0.000000E+00
  6.840650E-01  8.500305E-03  5.000000E-01  6.909734E-01  8.527564E-03  0.000000E+00  8.192866E-03  4.269993E-04 -6.879106E-19  2.471075E-01  0.000000E+00
  7.024070E-01  9.451790E-03  5.000000E-01  7.095007E-01  9.488657E-03  0.000000E+00  7.956355E-03  4.105925E-04 -1.015500E-18  2.555928E-01  0.000000E+00
  7.202400E-01  1.036796E-02  5.000000E-01  7.275138E-01  1.041408E-02  0.000000E+00  7.692331E-03  3.897480E-04 -8.756355E-19  2.658359E-01  0.000000E+00
  7.375350E-01  1.123212E-02  5.000000E-01  7.449834E-01  1.128697E-02  0.000000E+00  7.412827E-03  3.605928E-04 -4.661526E-20  2.779958E-01  0.000000E+00
  7.542690E-01  1.202325E-02  5.000000E-01  7.618864E-01  1.208609E-02  0.000000E+00  7.136417E-03  3.229539E-04  7.582139E-19  2.911008E-01  0.000000E+00
  7.704220E-01  1.271966E-02  5.000000E-01  7.782025E-01  1.278953E-02  0.000000E+00  6.886884E-03  2.777202E-04  9.358701E-19  3.039179E-01  0.000000E+00
  7.859770E-01  1.330191E-02  5.000000E-01  7.939146E-01  1.337766E-02  0.000000E+00  6.694186E-03  2.193967E-04  1.375988E-18  3.163280E-01  0.000000E+00
  8.009220E-01  1.372222E-02  5.000000E-01  8.090106E-01  1.380221E-02  0.000000E+00  6.589875E-03  1.393964E-04  1.435915E-18  3.285273E-01  0.000000E+00
  8.152480E-01  1.392438E-02  5.000000E-01  8.234812E-01  1.400641E-02  0.000000E+00  6.586746E-03  4.323871E-05  6.572163E-19  3.374670E-01  0.000000E+00
  8.289490E-01  1.390947E-02  5.000000E-01  8.373206E-01  1.399136E-02  0.000000E+00  6.670820E-03 -5.503716E-05  3.192558E-19  3.403308E-01  0.000000E+00
  8.420260E-01  1.370914E-02  5.000000E-01  8.505297E-01  1.378900E-02  0.000000E+00  6.816219E-03 -1.481805E-04  5.884385E-19  3.384245E-01  0.000000E+00
  8.544790E-01  1.336092E-02  5.000000E-01  8.631084E-01  1.343727E-02  0.000000E+00  6.996752E-03 -2.338815E-04  5.796764E-19  3.340213E-01  0.000000E+00
  8.663160E-01  1.290255E-02  5.000000E-01  8.750650E-01  1.297426E-02  0.000000E+00  7.188496E-03 -3.107951E-04  6.623384E-19  3.283320E-01  0.000000E+00
  8.775420E-01  1.236793E-02  5.000000E-01  8.864044E-01  1.243424E-02  0.000000E+00  7.371122E-03 -3.774700E-04  1.933402E-19  3.219799E-01  0.000000E+00
  8.881660E-01  1.178658E-02  5.000000E-01  8.971357E-01  1.184703E-02  0.000000E+00  7.530327E-03 -4.328381E-04 -3.979571E-19  3.154345E-01  0.000000E+00
  8.981970E-01  1.118278E-02  5.000000E-01  9.072680E-01  1.123713E-02  0.000000E+00  7.661292E-03 -4.796167E-04 -7.791318E-19  3.093473E-01  0.000000E+00
  9.076460E-01  1.056918E-02  5.000000E-01  9.168124E-01  1.061734E-02  0.000000E+00  7.771305E-03 -5.258340E-04 -8.333120E-19  3.045401E-01  0.000000E+00
  9.165220E-01  9.944996E-03  5.000000E-01  9.257780E-01  9.986845E-03  0.000000E+00  7.874838E-03 -5.779821E-04  1.282787E-19  3.007816E-01  0.000000E+00
  9.165220E-01  9.944996E-03  5.000000E-01  9.257780E-01  9.986845E-03  0.000000E+00  7.874838E-03 -5.779821E-04  1.282787E-19  3.007816E-01  0.000000E+00
  9.248360E-01  9.309367E-03  5.000000E-01  9.341760E-01  9.344796E-03  0.000000E+00  7.984734E-03 -6.371563E-04 -8.241038E-20  2.969261E-01  0.000000E+00
  9.325990E-01  8.664147E-03  5.000000E-01  9.420174E-01  8.693060E-03  0.000000E+00  8.109645E-03 -7.029576E-04 -7.509287E-20  2.923752E-01  0.000000E+00
  9.398210E-01  8.012772E-03  5.000000E-01  9.493123E-01  8.035107E-03  0.000000E+00  8.255573E-03 -7.752241E-04  2.595045E-19  2.870507E-01  0.000000E+00
  9.465130E-01  7.360006E-03  5.000000E-01  9.560719E-01  7.375749E-03  0.000000E+00  8.426588E-03 -8.538157E-04 -3.304198E-19  2.808978E-01  0.000000E+00
  9.526870E-01  6.711577E-03  5.000000E-01  9.623083E-01  6.720771E-03  0.000000E+00  8.624860E-03 -9.385589E-04 -3.718774E-19  2.738327E-01  0.000000E+00
  9.583540E-01  6.073895E-03  5.000000E-01  9.680325E-01  6.076649E-03  0.000000E+00  8.851092E-03 -1.029202E-03 -4.478477E-19  2.658057E-01  0.000000E+00
  9.635240E-01  5.453811E-03  5.000000E-01  9.732547E-01  5.450303E-03  0.000000E+00  9.105339E-03 -1.125270E-03 -9.660412E-20  2.567800E-01  0.000000E+00
  9.682080E-01  4.858349E-03  5.000000E-01  9.779860E-01  4.848827E-03  0.000000E+00  9.388890E-03 -1.226583E-03  8.286114E-19  2.467910E-01  0.000000E+00
  9.724140E-01  4.294540E-03  5.000000E-01  9.822345E-01  4.279325E-03  0.000000E+00  9.706726E-03 -1.333350E-03  7.420174E-19  2.359133E-01  0.000000E+00
  9.761510E-01  3.769228E-03  5.000000E-01  9.860092E-01  3.748707E-03  0.000000E+00  1.006755E-02 -1.445785E-03  4.905476E-20  2.241784E-01  0.000000E+00
  9.794290E-01  3.288854E-03  5.000000E-01  9.893203E-01  3.263481E-03  0.000000E+00  1.047662E-02 -1.564234E-03  4.047072E-20  2.116582E-01  0.000000E+00
  9.822540E-01  2.859459E-03  5.000000E-01  9.921739E-01  2.829750E-03  0.000000E+00  1.091736E-02 -1.686659E-03  8.279173E-19  1.986533E-01  0.000000E+00
  9.846330E-01  2.486452E-03  5.000000E-01  9.945769E-01  2.452977E-03  0.000000E+00  1.133254E-02 -1.801700E-03  1.664866E-18  1.864383E-01  0.000000E+00
  9.865710E-01  2.174570E-03  5.000000E-01  9.965344E-01  2.137945E-03  0.000000E+00  1.158652E-02 -1.875280E-03  1.954361E-18  1.738971E-01  0.000000E+00
  9.880740E-01  1.927766E-03  5.000000E-01  9.980526E-01  1.888648E-03  0.000000E+00  1.146143E-02 -1.899570E-03 -2.636428E-18  1.548885E-01  0.000000E+00
  9.891450E-01  1.749187E-03  5.000000E-01  9.991344E-01  1.708266E-03  0.000000E+00  1.162408E-02 -2.028556E-03 -2.554739E-17  1.561438E-01  0.000000E+00
  9.897860E-01  1.641127E-03  5.000000E-01  9.997819E-01  1.599115E-03  0.000000E+00  1.490725E-02 -2.045367E-03 -7.239432E-17  2.032027E-01  0.000000E+00
  9.900000E-01  1.604951E-03  5.000000E-01  9.999981E-01  1.562573E-03  0.000000E+00  1.039244E-02 -4.463646E-03 -7.510272E-17 -3.626762E-02  0.000000E+00
  9.900000E-01  1.683661E-03  5.000000E-01  9.999981E-01  1.642078E-03  0.000000E+00  1.040216E-03 -1.478275E-02  1.216247E-17 -1.711590E-01  0.000000E+00
  9.900000E-01  1.762381E-03  5.000000E-01  9.999981E-01  1.721593E-03  0.000000E+00 -5.204065E-04 -1.400217E-02  9.669741E-17  2.073379E-03  0.000000E+00
  9.900000E-01  1.841101E-03  5.000000E-01  9.999981E-01  1.801108E-03  0.000000E+00 -2.866812E-04  1.943468E-03  1.111601E-16 -2.616831E-03  0.000000E+00
  9.900000E-01  1.919812E-03  5.000000E-01  9.999981E-01  1.880613E-03  0.000000E+00  6.852466E-04  3.465809E-03  1.307824E-16 -1.159376E-01  0.000000E+00
  9.900000E-01  1.998532E-03  5.000000E-01  9.999981E-01  1.960128E-03  0.000000E+00  5.609623E-03 -2.599330E-03  1.617794E-16 -2.503690E-02  0.000000E+00
  9.900000E-01  1.998532E-03  5.000000E-01  9.999981E-01  1.960128E-03  0.000000E+00  5.609623E-03 -2.599330E-03  1.617794E-16 -2.503690E-02  0.000000E+00
  9.897900E-01  2.044540E-03  5.000000E-01  9.997860E-01  2.006601E-03  0.000000E+00  7.253369E-03 -1.908185E-03  1.156666E-16  1.111589E-01  0.000000E+00
  9.891580E-01  2.182631E-03  5.000000E-01  9.991476E-01  2.146087E-03  0.000000E+00  4.414765E-03 -9.060734E-04  3.962637E-17  7.033490E-02  0.000000E+00
  9.881040E-01  2.412944E-03  5.000000E-01  9.980829E-01  2.378726E-03  0.000000E+00  3.643164E-03 -7.942825E-04  4.633557E-18  6.123005E-02  0.000000E+00
  9.866260E-01  2.735716E-03  5.000000E-01  9.965900E-01  2.704758E-03  0.000000E+00  3.421518E-03 -7.524345E-04 -3.534296E-18  6.362539E-02  0.000000E+00
  9.847200E-01  3.151268E-03  5.000000E-01  9.946648E-01  3.124507E-03  0.000000E+00  3.303738E-03 -7.191606E-04 -3.021005E-18  5.926256E-02  0.000000E+00
  9.823820E-01  3.659946E-03  5.000000E-01  9.923031E-01  3.638321E-03  0.000000E+00  3.315206E-03 -7.198421E-04 -1.278726E-18  5.216909E-02  0.000000E+00
  9.796080E-01  4.262072E-03  5.000000E-01  9.895011E-01  4.246528E-03  0.000000E+00  3.435543E-03 -7.444619E-04 -1.029480E-19  4.430732E-02  0.000000E+00
  9.763910E-01  4.957951E-03  5.000000E-01  9.862516E-01  4.949435E-03  0.000000E+00  3.624485E-03 -7.826295E-04 -4.448380E-20  3.515582E-02  0.000000E+00
  9.727270E-01  5.747663E-03  5.000000E-01  9.825506E-01  5.747122E-03  0.000000E+00  3.855664E-03 -8.288501E-04  1.106101E-19  2.454098E-02  0.000000E+00
  9.686070E-01  6.631210E-03  5.000000E-01  9.783890E-01  6.639593E-03  0.000000E+00  4.114271E-03 -8.796063E-04  8.676493E-19  1.261189E-02  0.000000E+00
  9.640240E-01  7.608220E-03  5.000000E-01  9.737597E-01  7.626469E-03  0.000000E+00  4.393289E-03 -9.329314E-04  1.038883E-19 -5.648574E-04  0.000000E+00
  9.589680E-01  8.677976E-03  5.000000E-01  9.686527E-01  8.707029E-03  0.000000E+00  4.691133E-03 -9.880662E-04 -1.450358E-18 -1.495054E-02  0.000000E+00
  9.534310E-01  9.839205E-03  5.000000E-01  9.630598E-01  9.879985E-03  0.000000E+00  5.008735E-03 -1.044684E-03 -1.159744E-18 -3.051359E-02  0.000000E+00
  9.474030E-01  1.109001E-02  5.000000E-01  9.569709E-01  1.114342E-02  0.000000E+00  5.347167E-03 -1.102136E-03  5.569362E-19 -4.713411E-02  0.000000E+00
  9.408720E-01  1.242768E-02  5.000000E-01  9.503739E-01  1.249461E-02  0.000000E+00  5.706262E-03 -1.159615E-03  6.696342E-19 -6.473709E-02  0.000000E+00
  9.338280E-01  1.384853E-02  5.000000E-01  9.432588E-01  1.392980E-02  0.000000E+00  6.084770E-03 -1.216030E-03 -8.244890E-20 -8.323991E-02  0.000000E+00
  9.262600E-01  1.534775E-02  5.000000E-01  9.356144E-01  1.544417E-02  0.000000E+00  6.480174E-03 -1.269589E-03  3.622850E-20 -1.024620E-01  0.000000E+00
  9.181550E-01  1.691896E-02  5.000000E-01  9.274275E-01  1.703124E-02  0.000000E+00  6.888101E-03 -1.318132E-03 -3.159516E-20 -1.222331E-01  0.000000E+00
  9.095020E-01  1.855435E-02  5.000000E-01  9.186871E-01  1.868314E-02  0.000000E+00  7.302027E-03 -1.358947E-03 -9.564741E-20 -1.421672E-01  0.000000E+00
  9.002880E-01  2.024397E-02  5.000000E-01  9.093801E-01  2.038983E-02  0.000000E+00  7.711877E-03 -1.388886E-03 -3.030365E-19 -1.615254E-01  0.000000E+00
  8.905020E-01  2.197608E-02  5.000000E-01  8.994952E-01  2.213943E-02  0.000000E+00  8.103407E-03 -1.406076E-03 -7.066918E-19 -1.796813E-01  0.000000E+00
  8.801320E-01  2.374099E-02  5.000000E-01  8.890205E-01  2.392216E-02  0.000000E+00  8.460990E-03 -1.410678E-03  4.613366E-19 -1.963842E-01  0.000000E+00
  8.691700E-01  2.553205E-02  5.000000E-01  8.779478E-01  2.573132E-02  0.000000E+00  8.771111E-03 -1.403272E-03 -3.921932E-20 -2.114519E-01  0.000000E+00
  8.691700E-01  2.553205E-02  5.000000E-01  8.779478E-01  2.573132E-02  0.000000E+00  8.771111E-03 -1.403272E-03 -3.921932E-20 -2.114519E-01  0.000000E+00
  8.576080E-01  2.734373E-02  5.000000E-01  8.662690E-01  2.756129E-02  0.000000E+00  9.023080E-03 -1.384332E-03 -1.539262E-18 -2.245840E-01  0.000000E+00
  8.454380E-01  2.917195E-02  5.000000E-01  8.539761E-01  2.940797E-02  0.000000E+00  9.208589E-03 -1.355706E-03 -7.165830E-19 -2.354814E-01  0.000000E+00
  8.326580E-01  3.101584E-02  5.000000E-01  8.410671E-01  3.127048E-02  0.000000E+00  9.323024E-03 -1.321019E-03  1.251499E-19 -2.437728E-01  0.000000E+00
  8.192630E-01  3.288001E-02  5.000000E-01  8.275368E-01  3.315348E-02  0.000000E+00  9.367645E-03 -1.286562E-03  7.633720E-19 -2.495152E-01  0.000000E+00
  8.052550E-01  3.477892E-02  5.000000E-01  8.133873E-01  3.507157E-02  0.000000E+00  9.354035E-03 -1.261132E-03 -6.426194E-20 -2.540809E-01  0.000000E+00
  7.906370E-01  3.673890E-02  5.000000E-01  7.986217E-01  3.705135E-02  0.000000E+00  9.309421E-03 -1.253139E-03 -2.433577E-18 -2.603473E-01  0.000000E+00
  7.754120E-01  3.879536E-02  5.000000E-01  7.832429E-01  3.912857E-02  0.000000E+00  9.277205E-03 -1.265705E-03 -1.875879E-18 -2.711464E-01  0.000000E+00
  7.595880E-01  4.097541E-02  5.000000E-01  7.672591E-01  4.133064E-02  0.000000E+00  9.306793E-03 -1.292758E-03 -1.296638E-18 -2.869760E-01  0.000000E+00
  7.431760E-01  4.327386E-02  5.000000E-01  7.506814E-01  4.365230E-02  0.000000E+00  9.433291E-03 -1.327463E-03 -1.476573E-18 -3.075897E-01  0.000000E+00
  7.261880E-01  4.567513E-02  5.000000E-01  7.335218E-01  4.607781E-02  0.000000E+00  9.669878E-03 -1.366594E-03 -6.392888E-19 -3.333626E-01  0.000000E+00
  7.086430E-01  4.815337E-02  5.000000E-01  7.157996E-01  4.858109E-02  0.000000E+00  1.001239E-02 -1.403916E-03 -1.830073E-18 -3.636638E-01  0.000000E+00
  6.905640E-01  5.066980E-02  5.000000E-01  6.975381E-01  5.112293E-02  0.000000E+00  1.043913E-02 -1.429582E-03 -6.967121E-19 -3.962322E-01  0.000000E+00
  6.719770E-01  5.317561E-02  5.000000E-01  6.787633E-01  5.365405E-02  0.000000E+00  1.091060E-02 -1.434215E-03  8.232322E-19 -4.277097E-01  0.000000E+00
  6.529150E-01  5.562110E-02  5.000000E-01  6.595088E-01  5.612424E-02  0.000000E+00  1.137448E-02 -1.415728E-03  6.100608E-19 -4.557573E-01  0.000000E+00
  6.334180E-01  5.797640E-02  5.000000E-01  6.398149E-01  5.850332E-02  0.000000E+00  1.178168E-02 -1.382064E-03  9.890408E-19 -4.806743E-01  0.000000E+00
  6.135280E-01  6.024201E-02  5.000000E-01  6.197241E-01  6.079181E-02  0.000000E+00  1.210820E-02 -1.342094E-03  2.628751E-19 -5.036671E-01  0.000000E+00
  5.932910E-01  6.242469E-02  5.000000E-01  5.992827E-01  6.299653E-02  0.000000E+00  1.236061E-02 -1.300865E-03 -2.898280E-19 -5.256762E-01  0.000000E+00
  5.727570E-01  6.453325E-02  5.000000E-01  5.785413E-01  6.512639E-02  0.000000E+00  1.256712E-02 -1.263511E-03 -8.037436E-22 -5.482022E-01  0.000000E+00
  5.519810E-01  6.657830E-02  5.000000E-01  5.575555E-01  6.719210E-02  0.000000E+00  1.277022E-02 -1.234631E-03  5.271602E-19 -5.734375E-01  0.000000E+00
  5.310180E-01  6.856902E-02  5.000000E-01  5.363808E-01  6.920291E-02  0.000000E+00  1.302055E-02 -1.214689E-03  4.807193E-19 -6.040363E-01  0.000000E+00
  5.099250E-01  7.050114E-02  5.000000E-01  5.150748E-01  7.115455E-02  0.000000E+00  1.336984E-02 -1.201699E-03  3.309072E-19 -6.432208E-01  0.000000E+00
  4.887640E-01  7.236610E-02  5.000000E-01  4.937001E-01  7.303834E-02  0.000000E+00  1.386981E-02 -1.185158E-03  1.486332E-19 -6.918626E-01  0.000000E+00
  4.675910E-01  7.412096E-02  5.000000E-01  4.723132E-01  7.481092E-02  0.000000E+00  1.455890E-02 -1.143595E-03 -2.241898E-19 -7.469169E-01  0.000000E+00
  7.860720E-05 -5.454316E-04  5.000000E-01  7.940614E-05 -6.095264E-04  0.000000E+00 -7.662785E-03  2.857294E-02 -9.524674E-17  8.301301E-01  0.000000E+00
  3.989240E-04 -1.256817E-03  5.000000E-01  4.029578E-04 -1.328096E-03  0.000000E+00 -7.328559E-03  1.338767E-02 -7.909830E-17  1.070018E+00  0.000000E+00
  1.196920E-03 -2.130077E-03  5.000000E-01  1.209013E-03 -2.210175E-03  0.000000E+00 -1.890608E-03  2.436293E-03 -4.532801E-17  1.084166E+00  0.000000E+00
  2.563580E-03 -3.059952E-03  5.000000E-01  2.589475E-03 -3.149441E-03  0.000000E+00  4.163669E-03 -2.203340E-03 -1.849961E-17  9.612479E-01  0.000000E+00
  4.492740E-03 -3.998064E-03  5.000000E-01  4.538118E-03 -4.097027E-03  0.000000E+00  8.185914E-03 -3.491464E-03 -1.211975E-18  8.401973E-01  0.000000E+00
  6.952190E-03 -4.938926E-03  5.000000E-01  7.022406E-03 -5.047391E-03  0.000000E+00  1.044217E-02 -3.683576E-03  3.597812E-18  7.504741E-01  0.000000E+00
  9.910730E-03 -5.906018E-03  5.000000E-01  1.001082E-02 -6.024250E-03  0.000000E+00  1.175996E-02 -3.659753E-03  9.594680E-19  6.787757E-01  0.000000E+00
  1.334950E-02 -6.927444E-03  5.000000E-01  1.348432E-02 -7.055991E-03  0.000000E+00  1.264085E-02 -3.554325E-03 -1.224701E-18  6.075351E-01  0.000000E+00
  1.728780E-02 -7.977982E-03  5.000000E-01  1.746240E-02 -8.117139E-03  0.000000E+00  1.324160E-02 -3.275181E-03 -1.311657E-18  5.286638E-01  0.000000E+00
  2.175590E-02 -8.999711E-03  5.000000E-01  2.197562E-02 -9.149186E-03  0.000000E+00  1.359109E-02 -2.839118E-03 -1.258439E-18  4.533374E-01  0.000000E+00
  2.676920E-02 -9.947939E-03  5.000000E-01  2.703955E-02 -1.010699E-02  0.000000E+00  1.374903E-02 -2.365121E-03 -9.230695E-19  3.951086E-01  0.000000E+00
  3.232800E-02 -1.080824E-02  5.000000E-01  3.265449E-02 -1.097598E-02  0.000000E+00  1.379728E-02 -1.947308E-03 -1.750575E-19  3.559540E-01  0.000000E+00
  3.842930E-02 -1.158633E-02  5.000000E-01  3.881741E-02 -1.176192E-02  0.000000E+00  1.379270E-02 -1.617541E-03 -5.244479E-20  3.293642E-01  0.000000E+00
  4.507220E-02 -1.229739E-02  5.000000E-01  4.552739E-02 -1.248017E-02  0.000000E+00  1.377964E-02 -1.388326E-03 -8.577614E-20  3.101600E-01  0.000000E+00
  5.225680E-02 -1.297545E-02  5.000000E-01  5.278455E-02 -1.316508E-02  0.000000E+00  1.380433E-02 -1.259779E-03  1.705189E-19  2.952681E-01  0.000000E+00
  5.998640E-02 -1.365724E-02  5.000000E-01  6.059221E-02 -1.385376E-02  0.000000E+00  1.387838E-02 -1.187923E-03  6.377249E-19  2.784974E-01  0.000000E+00
  6.827110E-02 -1.434609E-02  5.000000E-01  6.896058E-02 -1.454956E-02  0.000000E+00  1.397490E-02 -1.122023E-03  7.498172E-19  2.564112E-01  0.000000E+00
  7.712280E-02 -1.503160E-02  5.000000E-01  7.790167E-02 -1.524199E-02  0.000000E+00  1.406882E-02 -1.048156E-03  3.900859E-19  2.322812E-01  0.000000E+00
  8.655260E-02 -1.570589E-02  5.000000E-01  8.742671E-02 -1.592309E-02  0.000000E+00  1.414459E-02 -9.645248E-04 -7.126195E-20  2.090484E-01  0.000000E+00
  9.657140E-02 -1.635616E-02  5.000000E-01  9.754669E-02 -1.657993E-02  0.000000E+00  1.418247E-02 -8.589850E-04 -1.308908E-19  1.862684E-01  0.000000E+00
  1.071900E-01 -1.695377E-02  5.000000E-01  1.082725E-01 -1.718357E-02  0.000000E+00  1.417077E-02 -7.284735E-04  3.257636E-19  1.643854E-01  0.000000E+00
  1.184180E-01 -1.747562E-02  5.000000E-01  1.196139E-01 -1.771070E-02  0.000000E+00  1.412530E-02 -5.928112E-04  5.254317E-19  1.461752E-01  0.000000E+00
  1.302610E-01 -1.791842E-02  5.000000E-01  1.315765E-01 -1.815796E-02  0.000000E+00  1.407352E-02 -4.709020E-04  1.171710E-19  1.321926E-01  0.000000E+00
  1.427230E-01 -1.828615E-02  5.000000E-01  1.441644E-01 -1.852941E-02  0.000000E+00  1.402852E-02 -3.669888E-04 -2.404766E-20  1.204373E-01  0.000000E+00
  1.427230E-01 -1.828615E-02  5.000000E-01  1.441644E-01 -1.852941E-02  0.000000E+00  1.402852E-02 -3.669888E-04 -2.404766E-20  1.204373E-01  0.000000E+00
  1.558070E-01 -1.858481E-02  5.000000E-01  1.573805E-01 -1.883108E-02  0.000000E+00  1.397609E-02 -2.698889E-04 -1.015122E-19  1.085453E-01  0.000000E+00
  1.695140E-01 -1.880181E-02  5.000000E-01  1.712259E-01 -1.905028E-02  0.000000E+00  1.388006E-02 -1.601095E-04  1.285176E-20  9.548253E-02  0.000000E+00
  1.838420E-01 -1.890530E-02  5.000000E-01  1.856986E-01 -1.915482E-02  0.000000E+00  1.370600E-02 -2.670153E-05 -3.064631E-19  8.293848E-02  0.000000E+00
  1.987870E-01 -1.885434E-02  5.000000E-01  2.007946E-01 -1.910334E-02  0.000000E+00  1.344234E-02  1.259451E-04 -4.041838E-19  7.377669E-02  0.000000E+00
  2.143420E-01 -1.861328E-02  5.000000E-01  2.165067E-01 -1.885985E-02  0.000000E+00  1.311220E-02  2.747626E-04  8.498293E-20  7.082851E-02  0.000000E+00
  2.304940E-01 -1.818306E-02  5.000000E-01  2.328218E-01 -1.842528E-02  0.000000E+00  1.276432E-02  3.898114E-04  6.764416E-20  7.520732E-02  0.000000E+00
  2.472290E-01 -1.760409E-02  5.000000E-01  2.497258E-01 -1.784046E-02  0.000000E+00  1.244137E-02  4.603728E-04  1.153574E-19  8.414464E-02  0.000000E+00
  2.645310E-01 -1.692201E-02  5.000000E-01  2.672025E-01 -1.715149E-02  0.000000E+00  1.215637E-02  5.034993E-04 -2.773084E-19  9.248896E-02  0.000000E+00
  2.823750E-01 -1.614826E-02  5.000000E-01  2.852267E-01 -1.636993E-02  0.000000E+00  1.190138E-02  5.429382E-04 -1.990038E-19  9.746678E-02  0.000000E+00
  3.007320E-01 -1.526900E-02  5.000000E-01  3.037691E-01 -1.548179E-02  0.000000E+00  1.167234E-02  5.841139E-04  5.533275E-19  1.010274E-01  0.000000E+00
  3.195690E-01 -1.428397E-02  5.000000E-01  3.227964E-01 -1.448681E-02  0.000000E+00  1.147340E-02  6.172103E-04  9.921101E-19  1.062692E-01  0.000000E+00
  3.388440E-01 -1.321667E-02  5.000000E-01  3.422660E-01 -1.340874E-02  0.000000E+00  1.129662E-02  6.388656E-04  1.080518E-18  1.130159E-01  0.000000E+00
  3.585140E-01 -1.208169E-02  5.000000E-01  3.621347E-01 -1.226229E-02  0.000000E+00  1.110789E-02  6.593332E-04  8.578707E-19  1.186142E-01  0.000000E+00
  3.785290E-01 -1.086123E-02  5.000000E-01  3.823518E-01 -1.102951E-02  0.000000E+00  1.086271E-02  6.860614E-04  7.339339E-19  1.228438E-01  0.000000E+00
  3.988350E-01 -9.532884E-03  5.000000E-01  4.028629E-01 -9.687744E-03  0.000000E+00  1.053171E-02  7.173907E-04  3.986637E-19  1.285352E-01  0.000000E+00
  4.193750E-01 -8.075907E-03  5.000000E-01  4.236103E-01 -8.216053E-03  0.000000E+00  1.011302E-02  7.536553E-04  4.802236E-19  1.374118E-01  0.000000E+00
  4.400850E-01 -6.455675E-03  5.000000E-01  4.445295E-01 -6.579458E-03  0.000000E+00  9.644880E-03  7.887814E-04 -3.610708E-20  1.503031E-01  0.000000E+00
  4.609060E-01 -4.673750E-03  5.000000E-01  4.655607E-01 -4.779537E-03  0.000000E+00  9.213978E-03  7.935071E-04 -1.425211E-18  1.698859E-01  0.000000E+00
  4.818030E-01 -2.858026E-03  5.000000E-01  4.866688E-01 -2.945476E-03  0.000000E+00  8.918267E-03  7.388707E-04 -1.620525E-19  1.957243E-01  0.000000E+00
  5.027520E-01 -1.208270E-03  5.000000E-01  5.078293E-01 -1.279058E-03  0.000000E+00  8.798325E-03  6.356950E-04  7.781595E-19  2.189448E-01  0.000000E+00
  5.237130E-01  1.640929E-04  5.000000E-01  5.290020E-01  1.071636E-04  0.000000E+00  8.811460E-03  5.311429E-04 -4.953569E-19  2.291697E-01  0.000000E+00
  5.446170E-01  1.311009E-03  5.000000E-01  5.501171E-01  1.265662E-03  0.000000E+00  8.874504E-03  4.648796E-04 -5.346900E-19  2.259692E-01  0.000000E+00
  5.653940E-01  2.349380E-03  5.000000E-01  5.711040E-01  2.314520E-03  0.000000E+00  8.921448E-03  4.394963E-04  6.377760E-19  2.188728E-01  0.000000E+00
  4.675910E-01  7.412096E-02  5.000000E-01  4.723132E-01  7.481092E-02  0.000000E+00  1.455890E-02 -1.143595E-03 -2.241898E-19 -7.469169E-01  0.000000E+00
  4.464640E-01  7.569429E-02  5.000000E-01  4.509729E-01  7.640014E-02  0.000000E+00  1.543671E-02 -1.061345E-03 -8.823703E-19 -8.058234E-01  0.000000E+00
  4.254410E-01  7.702660E-02  5.000000E-01  4.297376E-01  7.774591E-02  0.000000E+00  1.646960E-02 -9.284078E-04 -1.295444E-18 -8.676481E-01  0.000000E+00
  4.045840E-01  7.806470E-02  5.000000E-01  4.086699E-01  7.879449E-02  0.000000E+00  1.760892E-02 -7.324790E-04 -1.376661E-19 -9.311155E-01  0.000000E+00
  3.839530E-01  7.876358E-02  5.000000E-01  3.878306E-01  7.950044E-02  0.000000E+00  1.879775E-02 -4.594200E-04  3.967934E-19 -9.924270E-01  0.000000E+00
  3.636060E-01  7.907991E-02  5.000000E-01  3.672781E-01  7.981995E-02  0.000000E+00  1.996873E-02 -9.728004E-05  4.684068E-19 -1.043459E+00  0.000000E+00
  3.435960E-01  7.897740E-02  5.000000E-01  3.470660E-01  7.971641E-02  0.000000E+00  2.103285E-02  3.553983E-04  6.262271E-19 -1.073782E+00  0.000000E+00
  3.239710E-01  7.842846E-02  5.000000E-01  3.272428E-01  7.916193E-02  0.000000E+00  2.186770E-02  8.621311E-04  1.176922E-19 -1.079106E+00  0.000000E+00
  3.047740E-01  7.745895E-02  5.000000E-01  3.078519E-01  7.818263E-02  0.000000E+00  2.236141E-02  1.339860E-03  1.678112E-19 -1.066831E+00  0.000000E+00
  2.860450E-01  7.616178E-02  5.000000E-01  2.889338E-01  7.687236E-02  0.000000E+00  2.251452E-02  1.736654E-03  2.623953E-19 -1.046315E+00  0.000000E+00
  2.678190E-01  7.461225E-02  5.000000E-01  2.705237E-01  7.530717E-02  0.000000E+00  2.243569E-02  2.057877E-03  7.733834E-19 -1.023362E+00  0.000000E+00
  2.501300E-01  7.286989E-02  5.000000E-01  2.526561E-01  7.354722E-02  0.000000E+00  2.225711E-02  2.322416E-03  9.890742E-19 -1.003327E+00  0.000000E+00
  2.330040E-01  7.098117E-02  5.000000E-01  2.353571E-01  7.163942E-02  0.000000E+00  2.209283E-02  2.554358E-03  2.485595E-19 -9.901420E-01  0.000000E+00
  2.164660E-01  6.897909E-02  5.000000E-01  2.186521E-01  6.961713E-02  0.000000E+00  2.202329E-02  2.780206E-03 -1.382559E-19 -9.849046E-01  0.000000E+00
  2.005340E-01  6.688512E-02  5.000000E-01  2.025592E-01  6.750201E-02  0.000000E+00  2.209857E-02  3.035887E-03  7.395691E-20 -9.837784E-01  0.000000E+00
  1.852230E-01  6.469275E-02  5.000000E-01  1.870936E-01  6.528749E-02  0.000000E+00  2.232254E-02  3.345980E-03  1.055411E-18 -9.822196E-01  0.000000E+00
  1.705440E-01  6.239634E-02  5.000000E-01  1.722663E-01  6.296789E-02  0.000000E+00  2.265051E-02  3.698812E-03 -6.734598E-19 -9.823562E-01  0.000000E+00
  1.565000E-01  6.000710E-02  5.000000E-01  1.580805E-01  6.055453E-02  0.000000E+00  2.304343E-02  4.077095E-03 -1.670616E-18 -9.912612E-01  0.000000E+00
  1.430940E-01  5.754288E-02  5.000000E-01  1.445391E-01  5.806542E-02  0.000000E+00  2.351600E-02  4.504534E-03 -4.013736E-19 -1.011108E+00  0.000000E+00
  1.303270E-01  5.499965E-02  5.000000E-01  1.316432E-01  5.549651E-02  0.000000E+00  2.411098E-02  5.056284E-03 -1.407457E-18 -1.030440E+00  0.000000E+00
  1.182110E-01  5.233632E-02  5.000000E-01  1.194048E-01  5.280628E-02  0.000000E+00  2.479218E-02  5.771941E-03 -2.452081E-18 -1.031664E+00  0.000000E+00
  1.067560E-01  4.952803E-02  5.000000E-01  1.078341E-01  4.996963E-02  0.000000E+00  2.540031E-02  6.596737E-03 -4.666140E-19 -1.004234E+00  0.000000E+00
  9.596750E-02  4.657409E-02  5.000000E-01  9.693669E-02  4.698586E-02  0.000000E+00  2.572462E-02  7.364741E-03  2.029227E-18 -9.572848E-01  0.000000E+00
  8.582800E-02  4.354278E-02  5.000000E-01  8.669479E-02  4.392394E-02  0.000000E+00  2.568550E-02  7.927679E-03  5.452730E-19 -9.118970E-01  0.000000E+00
  8.582800E-02  4.354278E-02  5.000000E-01  8.669479E-02  4.392394E-02  0.000000E+00  2.568550E-02  7.927679E-03  5.452730E-19 -9.118970E-01  0.000000E+00
  7.631050E-02  4.051067E-02  5.000000E-01  7.708117E-02  4.086120E-02  0.000000E+00  2.543417E-02  8.365821E-03 -9.405032E-19 -8.726689E-01  0.000000E+00
  6.740780E-02  3.749001E-02  5.000000E-01  6.808856E-02  3.781003E-02  0.000000E+00  2.515656E-02  8.832902E-03  7.516847E-19 -8.317821E-01  0.000000E+00
  5.911740E-02  3.448071E-02  5.000000E-01  5.971444E-02  3.477034E-02  0.000000E+00  2.491303E-02  9.355970E-03  2.220010E-18 -7.860777E-01  0.000000E+00
  5.143150E-02  3.149722E-02  5.000000E-01  5.195092E-02  3.175672E-02  0.000000E+00  2.467949E-02  9.896361E-03  2.362642E-18 -7.364532E-01  0.000000E+00
  4.433770E-02  2.856103E-02  5.000000E-01  4.478547E-02  2.879088E-02  0.000000E+00  2.441350E-02  1.042376E-02 -2.577329E-19 -6.858425E-01  0.000000E+00
  3.782240E-02  2.569306E-02  5.000000E-01  3.820438E-02  2.589395E-02  0.000000E+00  2.409189E-02  1.093809E-02 -2.433958E-18 -6.383837E-01  0.000000E+00
  3.187460E-02  2.290826E-02  5.000000E-01  3.219651E-02  2.308103E-02  0.000000E+00  2.372571E-02  1.146609E-02 -3.105702E-18 -5.971353E-01  0.000000E+00
  2.648400E-02  2.021958E-02  5.000000E-01  2.675147E-02  2.036520E-02  0.000000E+00  2.334762E-02  1.208048E-02 -5.327138E-18 -5.552290E-01  0.000000E+00
  2.164990E-02  1.762818E-02  5.000000E-01  2.186855E-02  1.774762E-02  0.000000E+00  2.292542E-02  1.283761E-02 -9.238326E-18 -4.941733E-01  0.000000E+00
  1.737670E-02  1.513354E-02  5.000000E-01  1.755219E-02  1.522778E-02  0.000000E+00  2.230343E-02  1.357378E-02 -1.520402E-17 -4.081908E-01  0.000000E+00
  1.364080E-02  1.276428E-02  5.000000E-01  1.377856E-02  1.283460E-02  0.000000E+00  2.136154E-02  1.398106E-02 -2.136434E-17 -3.187230E-01  0.000000E+00
  1.039090E-02  1.056594E-02  5.000000E-01  1.049584E-02  1.061406E-02  0.000000E+00  2.019984E-02  1.402237E-02 -2.721678E-17 -2.517483E-01  0.000000E+00
  7.586340E-03  8.565122E-03  5.000000E-01  7.662960E-03  8.593035E-03  0.000000E+00  1.908343E-02  1.410802E-02 -3.289210E-17 -2.106212E-01  0.000000E+00
  5.226210E-03  6.756167E-03  5.000000E-01  5.278995E-03  6.765812E-03  0.000000E+00  1.826740E-02  1.480571E-02 -4.115157E-17 -1.825137E-01  0.000000E+00
  3.324300E-03  5.127571E-03  5.000000E-01  3.357877E-03  5.120768E-03  0.000000E+00  1.789131E-02  1.662759E-02 -6.320044E-17 -1.554912E-01  0.000000E+00
  1.883580E-03  3.682169E-03  5.000000E-01  1.902607E-03  3.660769E-03  0.000000E+00  1.776988E-02  2.013104E-02 -1.070286E-16 -1.066213E-01  0.000000E+00
  8.951490E-04  2.435215E-03  5.000000E-01  9.041943E-04  2.401222E-03  0.000000E+00  1.692416E-02  2.551714E-02 -1.639552E-16  3.314954E-03  0.000000E+00
  3.201820E-04  1.416799E-03  5.000000E-01  3.234206E-04  1.372521E-03  0.000000E+00  1.376259E-02  3.134925E-02 -2.151584E-16  1.942956E-01  0.000000E+00
  6.852390E-05  6.648540E-04  5.000000E-01  6.922101E-05  6.129819E-04  0.000000E+00  8.220437E-03  3.438215E-02 -2.413835E-16  3.988174E-01  0.000000E+00
  4.217600E-06  2.095242E-04  5.000000E-01  4.265277E-06  1.530537E-04  0.000000E+00  2.965587E-03  3.428860E-02 -2.191328E-16  4.706250E-01  0.000000E+00
 -5.032520E-09  5.800075E-05  5.000000E-01  0.000000E+00  0.000000E+00  0.000000E+00 -4.274996E-04  3.731895E-02 -1.516152E-16  4.375832E-01  0.000000E+00
  5.154440E-06 -9.422270E-05  5.000000E-01  5.211578E-06 -1.537608E-04  0.000000E+00 -3.891731E-03  3.856822E-02 -1.019092E-16  5.396882E-01  0.000000E+00