 Title= "ADflow Lift Distribution Data"
Variables = "eta" "CoordinateX" "CoordinateY" "CoordinateZ" "Lift" "Drag" "Moment" "Normalized Lift" "Normalized Drag" "Normalized Moment" "CL" "CD" "CM" "CLp" "CDp" "CMp" "CLv" "CDv" "CMv" "Elliptical" "thickness" "twist" "chord" "fx" "fy" "fz" 
Zone T= "LiftDist_01 allWalls: : z normal"
 I=          150
 DATAPACKING=BLOCK
  0.000000E+00
  6.711405E-03
  1.342281E-02
  2.013422E-02
  2.684563E-02
  3.355704E-02
  4.026845E-02
  4.697986E-02
  5.369127E-02
  6.040268E-02
  6.711409E-02
  7.382550E-02
  8.053691E-02
  8.724832E-02
  9.395973E-02
  1.006711E-01
  1.073825E-01
  1.140940E-01
  1.208054E-01
  1.275168E-01
  1.342282E-01
  1.409396E-01
  1.476510E-01
  1.543624E-01
  1.610738E-01
  1.677852E-01
  1.744966E-01
  1.812081E-01
  1.879195E-01
  1.946309E-01
  2.013423E-01
  2.080537E-01
  2.147651E-01
  2.214765E-01
  2.281879E-01
  2.348993E-01
  2.416107E-01
  2.483221E-01
  2.550336E-01
  2.617450E-01
  2.684564E-01
  2.751678E-01
  2.818792E-01
  2.885906E-01
  2.953020E-01
  3.020134E-01
  3.087248E-01
  3.154362E-01
  3.221476E-01
  3.288591E-01
  3.355705E-01
  3.422819E-01
  3.489933E-01
  3.557047E-01
  3.624161E-01
  3.691275E-01
  3.758389E-01
  3.825503E-01
  3.892617E-01
  3.959732E-01
  4.026846E-01
  4.093960E-01
  4.161074E-01
  4.228188E-01
  4.295302E-01
  4.362416E-01
  4.429530E-01
  4.496644E-01
  4.563758E-01
  4.630872E-01
  4.697987E-01
  4.765101E-01
  4.832215E-01
  4.899329E-01
  4.966443E-01
  5.033557E-01
  5.100671E-01
  5.167785E-01
  5.234899E-01
  5.302013E-01
  5.369128E-01
  5.436242E-01
  5.503356E-01
  5.570470E-01
  5.637584E-01
  5.704698E-01
  5.771812E-01
  5.838926E-01
  5.906040E-01
  5.973154E-01
  6.040268E-01
  6.107383E-01
  6.174497E-01
  6.241611E-01
  6.308725E-01
  6.375839E-01
  6.442953E-01
  6.510067E-01
  6.577181E-01
  6.644295E-01
  6.711409E-01
  6.778524E-01
  6.845638E-01
  6.912752E-01
  6.979866E-01
  7.046980E-01
  7.114094E-01
  7.181208E-01
  7.248322E-01
  7.315436E-01
  7.382550E-01
  7.449664E-01
  7.516779E-01
  7.583893E-01
  7.651007E-01
  7.718121E-01
  7.785235E-01
  7.852349E-01
  7.919463E-01
  7.986577E-01
  8.053691E-01
  8.120805E-01
  8.187919E-01
  8.255034E-01
  8.322148E-01
  8.389262E-01
  8.456376E-01
  8.523490E-01
  8.590604E-01
  8.657718E-01
  8.724832E-01
  8.791946E-01
  8.859060E-01
  8.926175E-01
  8.993289E-01
  9.060403E-01
  9.127517E-01
  9.194631E-01
  9.261745E-01
  9.328859E-01
  9.395973E-01
  9.463087E-01
  9.530201E-01
  9.597315E-01
  9.664430E-01
  9.731544E-01
  9.798658E-01
  9.865772E-01
  9.932886E-01
  1.000000E+00
  0.000000E+00
  0.000000E+00
  0.000000E+00
  0.000000E+00
  0.000000E+00
  0.000000E+00
  0.000000E+00
  0.000000E+00
  0.000000E+00
  0.000000E+00
  0.000000E+00
  0.000000E+00
  0.000000E+00
  0.000000E+00
  0.000000E+00
  0.000000E+00
  0.000000E+00
  0.000000E+00
  0.000000E+00
  0.000000E+00
  0.000000E+00
  0.000000E+00
  0.000000E+00
  0.000000E+00
  0.000000E+00
  0.000000E+00
  0.000000E+00
  0.000000E+00
  0.000000E+00
  0.000000E+00
  0.000000E+00
  0.000000E+00
  0.000000E+00
  0.000000E+00
  0.000000E+00
  0.000000E+00
  0.000000E+00
  0.000000E+00
  0.000000E+00
  0.000000E+00
  0.000000E+00
  0.000000E+00
  0.000000E+00
  0.000000E+00
  0.000000E+00
  0.000000E+00
  0.000000E+00
  0.000000E+00
  0.000000E+00
  0.000000E+00
  0.000000E+00
  0.000000E+00
  0.000000E+00
  0.000000E+00
  0.000000E+00
  0.000000E+00
  0.000000E+00
  0.000000E+00
  0.000000E+00
  0.000000E+00
  0.000000E+00
  0.000000E+00
  0.000000E+00
  0.000000E+00
  0.000000E+00
  0.000000E+00
  0.000000E+00
  0.000000E+00
  0.000000E+00
  0.000000E+00
  0.000000E+00
  0.000000E+00
  0.000000E+00
  0.000000E+00
  0.000000E+00
  0.000000E+00
  0.000000E+00
  0.000000E+00
  0.000000E+00
  0.000000E+00
  0.000000E+00
  0.000000E+00
  0.000000E+00
  0.000000E+00
  0.000000E+00
  0.000000E+00
  0.000000E+00
  0.000000E+00
  0.000000E+00
  0.000000E+00
  0.000000E+00
  0.000000E+00
  0.000000E+00
  0.000000E+00
  0.000000E+00
  0.000000E+00
  0.000000E+00
  0.000000E+00
  0.000000E+00
  0.000000E+00
  0.000000E+00
  0.000000E+00
  0.000000E+00
  0.000000E+00
  0.000000E+00
  0.000000E+00
  0.000000E+00
  0.000000E+00
  0.000000E+00
  0.000000E+00
  0.000000E+00
  0.000000E+00
  0.000000E+00
  0.000000E+00
  0.000000E+00
  0.000000E+00
  0.000000E+00
  0.000000E+00
  0.000000E+00
  0.000000E+00
  0.000000E+00
  0.000000E+00
  0.000000E+00
  0.000000E+00
  0.000000E+00
  0.000000E+00
  0.000000E+00
  0.000000E+00
  0.000000E+00
  0.000000E+00
  0.000000E+00
  0.000000E+00
  0.000000E+00
  0.000000E+00
  0.000000E+00
  0.000000E+00
  0.000000E+00
  0.000000E+00
  0.000000E+00
  0.000000E+00
  0.000000E+00
  0.000000E+00
  0.000000E+00
  0.000000E+00
  0.000000E+00
  0.000000E+00
  0.000000E+00
  0.000000E+00
  0.000000E+00
  0.000000E+00
  0.000000E+00
  0.000000E+00
  0.000000E+00
  0.000000E+00
  0.000000E+00
  0.000000E+00
  0.000000E+00
  0.000000E+00
  0.000000E+00
  0.000000E+00
  0.000000E+00
  0.000000E+00
  0.000000E+00
  0.000000E+00
  0.000000E+00
  0.000000E+00
  0.000000E+00
  0.000000E+00
  0.000000E+00
  0.000000E+00
  0.000000E+00
  0.000000E+00
  0.000000E+00
  0.000000E+00
  0.000000E+00
  0.000000E+00
  0.000000E+00
  0.000000E+00
  0.000000E+00
  0.000000E+00
  0.000000E+00
  0.000000E+00
  0.000000E+00
  0.000000E+00
  0.000000E+00
  0.000000E+00
  0.000000E+00
  0.000000E+00
  0.000000E+00
  0.000000E+00
  0.000000E+00
  0.000000E+00
  0.000000E+00
  0.000000E+00
  0.000000E+00
  0.000000E+00
  0.000000E+00
  0.000000E+00
  0.000000E+00
  0.000000E+00
  0.000000E+00
  0.000000E+00
  0.000000E+00
  0.000000E+00
  0.000000E+00
  0.000000E+00
  0.000000E+00
  0.000000E+00
  0.000000E+00
  0.000000E+00
  0.000000E+00
  0.000000E+00
  0.000000E+00
  0.000000E+00
  0.000000E+00
  0.000000E+00
  0.000000E+00
  0.000000E+00
  0.000000E+00
  0.000000E+00
  0.000000E+00
  0.000000E+00
  0.000000E+00
  0.000000E+00
  0.000000E+00
  0.000000E+00
  0.000000E+00
  0.000000E+00
  0.000000E+00
  0.000000E+00
  0.000000E+00
  0.000000E+00
  0.000000E+00
  0.000000E+00
  0.000000E+00
  0.000000E+00
  0.000000E+00
  0.000000E+00
  0.000000E+00
  0.000000E+00
  0.000000E+00
  0.000000E+00
  0.000000E+00
  0.000000E+00
  0.000000E+00
  0.000000E+00
  0.000000E+00
  0.000000E+00
  0.000000E+00
  0.000000E+00
  0.000000E+00
  0.000000E+00
  0.000000E+00
  0.000000E+00
  0.000000E+00
  0.000000E+00
  0.000000E+00
  0.000000E+00
  0.000000E+00
  0.000000E+00
  0.000000E+00
  0.000000E+00
  0.000000E+00
  0.000000E+00
  0.000000E+00
  0.000000E+00
  0.000000E+00
  0.000000E+00
  0.000000E+00
  0.000000E+00
  0.000000E+00
  0.000000E+00
  0.000000E+00
  0.000000E+00
  0.000000E+00
  0.000000E+00
  0.000000E+00
  0.000000E+00
  0.000000E+00
  0.000000E+00
  0.000000E+00
  0.000000E+00
  0.000000E+00
  0.000000E+00
  0.000000E+00
  0.000000E+00
  0.000000E+00
  0.000000E+00
  0.000000E+00
  0.000000E+00
  0.000000E+00
  0.000000E+00
  0.000000E+00
  0.000000E+00
  0.000000E+00
  0.000000E+00
  0.000000E+00
  0.000000E+00
  0.000000E+00
  0.000000E+00
  1.000000E-08
  1.691809E-02
  3.383618E-02
  5.075427E-02
  6.767237E-02
  8.459046E-02
  1.015085E-01
  1.184266E-01
  1.353447E-01
  1.522628E-01
  1.691809E-01
  1.860990E-01
  2.030171E-01
  2.199352E-01
  2.368533E-01
  2.537714E-01
  2.706895E-01
  2.876076E-01
  3.045256E-01
  3.214437E-01
  3.383618E-01
  3.552799E-01
  3.721980E-01
  3.891161E-01
  4.060342E-01
  4.229523E-01
  4.398704E-01
  4.567885E-01
  4.737066E-01
  4.906247E-01
  5.075427E-01
  5.244608E-01
  5.413789E-01
  5.582970E-01
  5.752151E-01
  5.921332E-01
  6.090513E-01
  6.259694E-01
  6.428875E-01
  6.598056E-01
  6.767237E-01
  6.936418E-01
  7.105598E-01
  7.274779E-01
  7.443960E-01
  7.613141E-01
  7.782322E-01
  7.951503E-01
  8.120684E-01
  8.289865E-01
  8.459046E-01
  8.628227E-01
  8.797408E-01
  8.966589E-01
  9.135769E-01
  9.304950E-01
  9.474131E-01
  9.643312E-01
  9.812493E-01
  9.981674E-01
  1.015085E+00
  1.032004E+00
  1.048922E+00
  1.065840E+00
  1.082758E+00
  1.099676E+00
  1.116594E+00
  1.133512E+00
  1.150430E+00
  1.167348E+00
  1.184266E+00
  1.201185E+00
  1.218103E+00
  1.235021E+00
  1.251939E+00
  1.268857E+00
  1.285775E+00
  1.302693E+00
  1.319611E+00
  1.336529E+00
  1.353447E+00
  1.370365E+00
  1.387284E+00
  1.404202E+00
  1.421120E+00
  1.438038E+00
  1.454956E+00
  1.471874E+00
  1.488792E+00
  1.505710E+00
  1.522628E+00
  1.539546E+00
  1.556464E+00
  1.573383E+00
  1.590301E+00
  1.607219E+00
  1.624137E+00
  1.641055E+00
  1.657973E+00
  1.674891E+00
  1.691809E+00
  1.708727E+00
  1.725645E+00
  1.742563E+00
  1.759482E+00
  1.776400E+00
  1.793318E+00
  1.810236E+00
  1.827154E+00
  1.844072E+00
  1.860990E+00
  1.877908E+00
  1.894826E+00
  1.911744E+00
  1.928662E+00
  1.945581E+00
  1.962499E+00
  1.979417E+00
  1.996335E+00
  2.013253E+00
  2.030171E+00
  2.047089E+00
  2.064007E+00
  2.080925E+00
  2.097843E+00
  2.114761E+00
  2.131680E+00
  2.148598E+00
  2.165516E+00
  2.182434E+00
  2.199352E+00
  2.216270E+00
  2.233188E+00
  2.250106E+00
  2.267024E+00
  2.283942E+00
  2.300860E+00
  2.317779E+00
  2.334697E+00
  2.351615E+00
  2.368533E+00
  2.385451E+00
  2.402369E+00
  2.419287E+00
  2.436205E+00
  2.453123E+00
  2.470041E+00
  2.486959E+00
  2.503878E+00
  2.520796E+00
  1.058470E+04
  1.058396E+04
  1.058323E+04
  1.058251E+04
  1.058180E+04
  1.058109E+04
  1.058040E+04
  1.057970E+04
  1.057902E+04
  1.057227E+04
  1.056527E+04
  1.055828E+04
  1.055129E+04
  1.054432E+04
  1.053734E+04
  1.053038E+04
  1.052118E+04
  1.050726E+04
  1.049334E+04
  1.047943E+04
  1.046553E+04
  1.045162E+04
  1.043773E+04
  1.042375E+04
  1.040865E+04
  1.039355E+04
  1.037845E+04
  1.036335E+04
  1.034826E+04
  1.033317E+04
  1.031806E+04
  1.030282E+04
  1.028758E+04
  1.027234E+04
  1.025711E+04
  1.024188E+04
  1.022665E+04
  1.021129E+04
  1.019585E+04
  1.018041E+04
  1.016498E+04
  1.014954E+04
  1.013411E+04
  1.011892E+04
  1.010408E+04
  1.008924E+04
  1.007440E+04
  1.005956E+04
  1.004472E+04
  1.003055E+04
  1.001706E+04
  1.000357E+04
  9.990092E+03
  9.976610E+03
  9.963130E+03
  9.951040E+03
  9.939146E+03
  9.927257E+03
  9.915375E+03
  9.903498E+03
  9.892240E+03
  9.881502E+03
  9.870778E+03
  9.860067E+03
  9.849370E+03
  9.838547E+03
  9.827591E+03
  9.816657E+03
  9.805744E+03
  9.794855E+03
  9.782554E+03
  9.769558E+03
  9.756588E+03
  9.743645E+03
  9.730391E+03
  9.713861E+03
  9.697353E+03
  9.680866E+03
  9.664402E+03
  9.644324E+03
  9.623037E+03
  9.601763E+03
  9.580502E+03
  9.555603E+03
  9.528485E+03
  9.501373E+03
  9.474268E+03
  9.442910E+03
  9.409733E+03
  9.376560E+03
  9.343390E+03
  9.304649E+03
  9.265770E+03
  9.226893E+03
  9.185599E+03
  9.141190E+03
  9.096782E+03
  9.051952E+03
  9.001941E+03
  8.951932E+03
  8.901923E+03
  8.846913E+03
  8.791234E+03
  8.735557E+03
  8.674980E+03
  8.613529E+03
  8.552080E+03
  8.484834E+03
  8.417389E+03
  8.348535E+03
  8.274904E+03
  8.201281E+03
  8.123731E+03
  8.043853E+03
  7.963012E+03
  7.876893E+03
  7.790795E+03
  7.699701E+03
  7.607445E+03
  7.511768E+03
  7.413609E+03
  7.312892E+03
  7.209164E+03
  7.103071E+03
  6.994041E+03
  6.882369E+03
  6.768401E+03
  6.651196E+03
  6.532737E+03
  6.410247E+03
  6.286452E+03
  6.160301E+03
  6.031473E+03
  5.900916E+03
  5.768100E+03
  5.632082E+03
  5.493535E+03
  5.352185E+03
  5.207993E+03
  5.061988E+03
  4.920459E+03
  4.796652E+03
  4.712745E+03
  4.707874E+03
  4.865096E+03
  5.112051E+03
  4.943598E+03
  5.220992E+03
  1.388461E+03
  7.625967E-03
  5.220483E+02
  5.231508E+02
  5.242552E+02
  5.253616E+02
  5.264700E+02
  5.275804E+02
  5.286927E+02
  5.298071E+02
  5.309235E+02
  5.323808E+02
  5.338545E+02
  5.353305E+02
  5.368089E+02
  5.382898E+02
  5.397730E+02
  5.412586E+02
  5.424446E+02
  5.429981E+02
  5.435530E+02
  5.441094E+02
  5.446674E+02
  5.452269E+02
  5.457880E+02
  5.463574E+02
  5.470238E+02
  5.476914E+02
  5.483600E+02
  5.490298E+02
  5.497007E+02
  5.503728E+02
  5.510924E+02
  5.520345E+02
  5.529773E+02
  5.539208E+02
  5.548651E+02
  5.558101E+02
  5.567559E+02
  5.577706E+02
  5.588266E+02
  5.598829E+02
  5.609394E+02
  5.619964E+02
  5.630536E+02
  5.640781E+02
  5.650538E+02
  5.660297E+02
  5.670055E+02
  5.679815E+02
  5.689574E+02
  5.697441E+02
  5.703376E+02
  5.709316E+02
  5.715261E+02
  5.721211E+02
  5.727166E+02
  5.727734E+02
  5.727589E+02
  5.727466E+02
  5.727366E+02
  5.727288E+02
  5.724021E+02
  5.718129E+02
  5.712288E+02
  5.706498E+02
  5.700758E+02
  5.693263E+02
  5.683878E+02
  5.674570E+02
  5.665340E+02
  5.656187E+02
  5.646946E+02
  5.637709E+02
  5.628559E+02
  5.619497E+02
  5.610882E+02
  5.605887E+02
  5.600963E+02
  5.596110E+02
  5.591328E+02
  5.590892E+02
  5.591942E+02
  5.593032E+02
  5.594165E+02
  5.597675E+02
  5.602637E+02
  5.607620E+02
  5.612625E+02
  5.618115E+02
  5.623815E+02
  5.629526E+02
  5.635247E+02
  5.639432E+02
  5.643582E+02
  5.647738E+02
  5.650548E+02
  5.651621E+02
  5.652696E+02
  5.653476E+02
  5.650626E+02
  5.647776E+02
  5.644927E+02
  5.638651E+02
  5.631915E+02
  5.625179E+02
  5.615994E+02
  5.606371E+02
  5.596747E+02
  5.585266E+02
  5.573722E+02
  5.561842E+02
  5.548827E+02
  5.535821E+02
  5.522029E+02
  5.507780E+02
  5.493351E+02
  5.477876E+02
  5.462435E+02
  5.445691E+02
  5.428681E+02
  5.410798E+02
  5.392307E+02
  5.373293E+02
  5.353660E+02
  5.333405E+02
  5.312364E+02
  5.290621E+02
  5.268275E+02
  5.245562E+02
  5.222745E+02
  5.200702E+02
  5.179529E+02
  5.159883E+02
  5.143431E+02
  5.129602E+02
  5.119645E+02
  5.116293E+02
  5.118777E+02
  5.128778E+02
  5.149063E+02
  5.186575E+02
  5.259336E+02
  5.396396E+02
  5.648889E+02
  6.106012E+02
  6.944844E+02
  8.087664E+02
  8.730612E+02
  1.011207E+03
  4.354280E+02
  2.409065E-03
  1.659016E+03
  1.656920E+03
  1.654828E+03
  1.652738E+03
  1.650652E+03
  1.648569E+03
  1.646489E+03
  1.644412E+03
  1.642338E+03
  1.635795E+03
  1.629069E+03
  1.622345E+03
  1.615624E+03
  1.608906E+03
  1.602190E+03
  1.595476E+03
  1.588029E+03
  1.579038E+03
  1.570048E+03
  1.561059E+03
  1.552071E+03
  1.543083E+03
  1.534096E+03
  1.525164E+03
  1.516988E+03
  1.508812E+03
  1.500636E+03
  1.492462E+03
  1.484287E+03
  1.476113E+03
  1.468218E+03
  1.461646E+03
  1.455074E+03
  1.448503E+03
  1.441933E+03
  1.435362E+03
  1.428793E+03
  1.423533E+03
  1.419060E+03
  1.414587E+03
  1.410114E+03
  1.405641E+03
  1.401168E+03
  1.397975E+03
  1.396668E+03
  1.395360E+03
  1.394053E+03
  1.392745E+03
  1.391438E+03
  1.392240E+03
  1.395201E+03
  1.398162E+03
  1.401123E+03
  1.404085E+03
  1.407047E+03
  1.414168E+03
  1.421858E+03
  1.429551E+03
  1.437245E+03
  1.444941E+03
  1.454881E+03
  1.466687E+03
  1.478498E+03
  1.490314E+03
  1.502135E+03
  1.515167E+03
  1.529516E+03
  1.543875E+03
  1.558242E+03
  1.572618E+03
  1.587314E+03
  1.602177E+03
  1.617050E+03
  1.631934E+03
  1.646689E+03
  1.660077E+03
  1.673474E+03
  1.686880E+03
  1.700295E+03
  1.711523E+03
  1.722018E+03
  1.732519E+03
  1.743013E+03
  1.751356E+03
  1.758381E+03
  1.765408E+03
  1.772438E+03
  1.777123E+03
  1.780803E+03
  1.784486E+03
  1.788170E+03
  1.788926E+03
  1.789609E+03
  1.790293E+03
  1.789808E+03
  1.787818E+03
  1.785829E+03
  1.783652E+03
  1.779169E+03
  1.774687E+03
  1.770205E+03
  1.763431E+03
  1.756351E+03
  1.749271E+03
  1.739765E+03
  1.729826E+03
  1.719887E+03
  1.707022E+03
  1.694054E+03
  1.680391E+03
  1.664372E+03
  1.648354E+03
  1.630483E+03
  1.611511E+03
  1.592106E+03
  1.570354E+03
  1.548606E+03
  1.524757E+03
  1.500415E+03
  1.474762E+03
  1.448157E+03
  1.420781E+03
  1.392498E+03
  1.363735E+03
  1.334373E+03
  1.304721E+03
  1.274814E+03
  1.244898E+03
  1.214981E+03
  1.185611E+03
  1.156625E+03
  1.128334E+03
  1.101238E+03
  1.075017E+03
  1.050023E+03
  1.026805E+03
  1.004938E+03
  9.846913E+02
  9.665501E+02
  9.520227E+02
  9.457130E+02
  9.557843E+02
  9.968832E+02
  1.092288E+03
  1.280051E+03
  1.528007E+03
  1.615845E+03
  1.695446E+03
 -3.674674E+01
  2.368736E-08
  1.188087E+00
  1.188004E+00
  1.187923E+00
  1.187842E+00
  1.187762E+00
  1.187682E+00
  1.187604E+00
  1.187527E+00
  1.187450E+00
  1.186692E+00
  1.185906E+00
  1.185122E+00
  1.184338E+00
  1.183554E+00
  1.182772E+00
  1.181990E+00
  1.180957E+00
  1.179395E+00
  1.177833E+00
  1.176272E+00
  1.174711E+00
  1.173150E+00
  1.171590E+00
  1.170021E+00
  1.168326E+00
  1.166631E+00
  1.164936E+00
  1.163242E+00
  1.161548E+00
  1.159854E+00
  1.158158E+00
  1.156447E+00
  1.154737E+00
  1.153027E+00
  1.151317E+00
  1.149607E+00
  1.147897E+00
  1.146173E+00
  1.144440E+00
  1.142708E+00
  1.140975E+00
  1.139243E+00
  1.137511E+00
  1.135805E+00
  1.134139E+00
  1.132474E+00
  1.130808E+00
  1.129142E+00
  1.127476E+00
  1.125886E+00
  1.124372E+00
  1.122858E+00
  1.121345E+00
  1.119832E+00
  1.118319E+00
  1.116962E+00
  1.115627E+00
  1.114292E+00
  1.112958E+00
  1.111625E+00
  1.110362E+00
  1.109156E+00
  1.107953E+00
  1.106750E+00
  1.105550E+00
  1.104335E+00
  1.103105E+00
  1.101878E+00
  1.100653E+00
  1.099431E+00
  1.098050E+00
  1.096591E+00
  1.095135E+00
  1.093682E+00
  1.092195E+00
  1.090339E+00
  1.088486E+00
  1.086636E+00
  1.084788E+00
  1.082534E+00
  1.080145E+00
  1.077757E+00
  1.075370E+00
  1.072576E+00
  1.069532E+00
  1.066488E+00
  1.063446E+00
  1.059926E+00
  1.056202E+00
  1.052479E+00
  1.048756E+00
  1.044407E+00
  1.040043E+00
  1.035679E+00
  1.031044E+00
  1.026059E+00
  1.021075E+00
  1.016043E+00
  1.010429E+00
  1.004816E+00
  9.992028E-01
  9.930281E-01
  9.867784E-01
  9.805289E-01
  9.737294E-01
  9.668318E-01
  9.599343E-01
  9.523863E-01
  9.448159E-01
  9.370873E-01
  9.288225E-01
  9.205586E-01
  9.118541E-01
  9.028881E-01
  8.938140E-01
  8.841475E-01
  8.744834E-01
  8.642585E-01
  8.539032E-01
  8.431638E-01
  8.321459E-01
  8.208409E-01
  8.091978E-01
  7.972893E-01
  7.850511E-01
  7.725164E-01
  7.597241E-01
  7.465683E-01
  7.332718E-01
  7.195228E-01
  7.056273E-01
  6.914674E-01
  6.770071E-01
  6.623526E-01
  6.474445E-01
  6.321771E-01
  6.166258E-01
  6.007599E-01
  5.845749E-01
  5.681865E-01
  5.523004E-01
  5.384037E-01
  5.289855E-01
  5.284387E-01
  5.460862E-01
  5.738059E-01
  5.548977E-01
  5.860340E-01
  1.558488E-01
  8.559821E-07
  9.374986E-01
  9.394784E-01
  9.414618E-01
  9.434487E-01
  9.454391E-01
  9.474331E-01
  9.494307E-01
  9.514319E-01
  9.534367E-01
  9.560537E-01
  9.587002E-01
  9.613509E-01
  9.640059E-01
  9.666652E-01
  9.693288E-01
  9.719967E-01
  9.741265E-01
  9.751203E-01
  9.761169E-01
  9.771162E-01
  9.781182E-01
  9.791229E-01
  9.801305E-01
  9.811530E-01
  9.823498E-01
  9.835486E-01
  9.847494E-01
  9.859522E-01
  9.871571E-01
  9.883639E-01
  9.896563E-01
  9.913480E-01
  9.930410E-01
  9.947355E-01
  9.964312E-01
  9.981283E-01
  9.998268E-01
  1.001649E+00
  1.003545E+00
  1.005442E+00
  1.007340E+00
  1.009238E+00
  1.011136E+00
  1.012976E+00
  1.014728E+00
  1.016481E+00
  1.018233E+00
  1.019986E+00
  1.021738E+00
  1.023151E+00
  1.024217E+00
  1.025284E+00
  1.026351E+00
  1.027420E+00
  1.028489E+00
  1.028591E+00
  1.028565E+00
  1.028543E+00
  1.028525E+00
  1.028511E+00
  1.027924E+00
  1.026866E+00
  1.025817E+00
  1.024777E+00
  1.023747E+00
  1.022401E+00
  1.020715E+00
  1.019044E+00
  1.017386E+00
  1.015743E+00
  1.014083E+00
  1.012424E+00
  1.010781E+00
  1.009154E+00
  1.007607E+00
  1.006710E+00
  1.005826E+00
  1.004954E+00
  1.004095E+00
  1.004017E+00
  1.004205E+00
  1.004401E+00
  1.004605E+00
  1.005235E+00
  1.006126E+00
  1.007021E+00
  1.007920E+00
  1.008906E+00
  1.009929E+00
  1.010955E+00
  1.011982E+00
  1.012734E+00
  1.013479E+00
  1.014225E+00
  1.014730E+00
  1.014923E+00
  1.015116E+00
  1.015256E+00
  1.014744E+00
  1.014232E+00
  1.013721E+00
  1.012594E+00
  1.011384E+00
  1.010174E+00
  1.008525E+00
  1.006797E+00
  1.005068E+00
  1.003007E+00
  1.000933E+00
  9.988000E-01
  9.964629E-01
  9.941273E-01
  9.916504E-01
  9.890916E-01
  9.865005E-01
  9.837215E-01
  9.809484E-01
  9.779417E-01
  9.748869E-01
  9.716755E-01
  9.683549E-01
  9.649403E-01
  9.614146E-01
  9.577772E-01
  9.539986E-01
  9.500940E-01
  9.460810E-01
  9.420022E-01
  9.379048E-01
  9.339463E-01
  9.301441E-01
  9.266160E-01
  9.236616E-01
  9.211780E-01
  9.193901E-01
  9.187880E-01
  9.192342E-01
  9.210302E-01
  9.246729E-01
  9.314093E-01
  9.444759E-01
  9.690892E-01
  1.014432E+00
  1.096523E+00
  1.247161E+00
  1.452389E+00
  1.567850E+00
  1.815933E+00
  7.819452E-01
  4.326219E-06
  1.107746E+00
  1.106346E+00
  1.104949E+00
  1.103554E+00
  1.102161E+00
  1.100770E+00
  1.099381E+00
  1.097994E+00
  1.096610E+00
  1.092240E+00
  1.087749E+00
  1.083260E+00
  1.078772E+00
  1.074286E+00
  1.069802E+00
  1.065319E+00
  1.060347E+00
  1.054343E+00
  1.048341E+00
  1.042338E+00
  1.036337E+00
  1.030336E+00
  1.024335E+00
  1.018371E+00
  1.012911E+00
  1.007452E+00
  1.001994E+00
  9.965351E-01
  9.910770E-01
  9.856191E-01
  9.803472E-01
  9.759591E-01
  9.715713E-01
  9.671837E-01
  9.627964E-01
  9.584093E-01
  9.540225E-01
  9.505110E-01
  9.475240E-01
  9.445371E-01
  9.415504E-01
  9.385639E-01
  9.355775E-01
  9.334455E-01
  9.325723E-01
  9.316993E-01
  9.308262E-01
  9.299532E-01
  9.290802E-01
  9.296160E-01
  9.315929E-01
  9.335701E-01
  9.355474E-01
  9.375250E-01
  9.395029E-01
  9.442576E-01
  9.493925E-01
  9.545287E-01
  9.596662E-01
  9.648051E-01
  9.714419E-01
  9.793250E-01
  9.872113E-01
  9.951009E-01
  1.002994E+00
  1.011695E+00
  1.021277E+00
  1.030864E+00
  1.040457E+00
  1.050056E+00
  1.059869E+00
  1.069793E+00
  1.079724E+00
  1.089663E+00
  1.099515E+00
  1.108454E+00
  1.117399E+00
  1.126350E+00
  1.135308E+00
  1.142805E+00
  1.149813E+00
  1.156824E+00
  1.163831E+00
  1.169402E+00
  1.174093E+00
  1.178785E+00
  1.183479E+00
  1.186607E+00
  1.189064E+00
  1.191523E+00
  1.193983E+00
  1.194488E+00
  1.194944E+00
  1.195401E+00
  1.195077E+00
  1.193749E+00
  1.192420E+00
  1.190966E+00
  1.187973E+00
  1.184981E+00
  1.181988E+00
  1.177465E+00
  1.172737E+00
  1.168010E+00
  1.161663E+00
  1.155026E+00
  1.148390E+00
  1.139800E+00
  1.131141E+00
  1.122018E+00
  1.111322E+00
  1.100627E+00
  1.088694E+00
  1.076026E+00
  1.063069E+00
  1.048545E+00
  1.034023E+00
  1.018099E+00
  1.001846E+00
  9.847172E-01
  9.669527E-01
  9.486733E-01
  9.297880E-01
  9.105826E-01
  8.909776E-01
  8.711786E-01
  8.512091E-01
  8.312341E-01
  8.112576E-01
  7.916470E-01
  7.722929E-01
  7.534026E-01
  7.353103E-01
  7.178019E-01
  7.011134E-01
  6.856103E-01
  6.710097E-01
  6.574906E-01
  6.453775E-01
  6.356773E-01
  6.314643E-01
  6.381890E-01
  6.656313E-01
  7.293344E-01
  8.547062E-01
  1.020269E+00
  1.078920E+00
  1.132070E+00
 -2.453625E-02
  1.581634E-11
  9.372831E-01
  9.372171E-01
  9.371516E-01
  9.370867E-01
  9.370224E-01
  9.369587E-01
  9.368955E-01
  9.368330E-01
  9.367710E-01
  9.361715E-01
  9.355503E-01
  9.349296E-01
  9.343095E-01
  9.336898E-01
  9.330707E-01
  9.324521E-01
  9.316351E-01
  9.304008E-01
  9.291668E-01
  9.279331E-01
  9.266996E-01
  9.254664E-01
  9.242335E-01
  9.229936E-01
  9.216543E-01
  9.203151E-01
  9.189762E-01
  9.176374E-01
  9.162988E-01
  9.149603E-01
  9.136198E-01
  9.122684E-01
  9.109172E-01
  9.095661E-01
  9.082151E-01
  9.068643E-01
  9.055136E-01
  9.041519E-01
  9.027837E-01
  9.014155E-01
  9.000474E-01
  8.986794E-01
  8.973115E-01
  8.959653E-01
  8.946510E-01
  8.933367E-01
  8.920225E-01
  8.907083E-01
  8.893942E-01
  8.881401E-01
  8.869475E-01
  8.857551E-01
  8.845627E-01
  8.833705E-01
  8.821783E-01
  8.811109E-01
  8.800609E-01
  8.790113E-01
  8.779622E-01
  8.769134E-01
  8.759201E-01
  8.749734E-01
  8.740277E-01
  8.730830E-01
  8.721393E-01
  8.711846E-01
  8.702183E-01
  8.692537E-01
  8.682907E-01
  8.673295E-01
  8.662432E-01
  8.650951E-01
  8.639490E-01
  8.628049E-01
  8.616331E-01
  8.601708E-01
  8.587101E-01
  8.572511E-01
  8.557939E-01
  8.540165E-01
  8.521317E-01
  8.502480E-01
  8.483652E-01
  8.461602E-01
  8.437586E-01
  8.413575E-01
  8.389569E-01
  8.361798E-01
  8.332417E-01
  8.303038E-01
  8.273662E-01
  8.239354E-01
  8.204923E-01
  8.170494E-01
  8.133925E-01
  8.094599E-01
  8.055273E-01
  8.015573E-01
  7.971287E-01
  7.927002E-01
  7.882718E-01
  7.834005E-01
  7.784700E-01
  7.735396E-01
  7.681756E-01
  7.627341E-01
  7.572927E-01
  7.513382E-01
  7.453660E-01
  7.392691E-01
  7.327492E-01
  7.262301E-01
  7.193633E-01
  7.122904E-01
  7.051321E-01
  6.975065E-01
  6.898828E-01
  6.818166E-01
  6.736476E-01
  6.651756E-01
  6.564838E-01
  6.475654E-01
  6.383803E-01
  6.289857E-01
  6.193309E-01
  6.094420E-01
  5.993498E-01
  5.889708E-01
  5.784807E-01
  5.676334E-01
  5.566705E-01
  5.454988E-01
  5.340900E-01
  5.225279E-01
  5.107657E-01
  4.987198E-01
  4.864498E-01
  4.739316E-01
  4.611615E-01
  4.482310E-01
  4.356965E-01
  4.247314E-01
  4.172991E-01
  4.168650E-01
  4.307835E-01
  4.526469E-01
  4.377277E-01
  4.622854E-01
  1.504760E-01
  5.542055E-02
  4.622778E-02
  4.632536E-02
  4.642311E-02
  4.652103E-02
  4.661912E-02
  4.671739E-02
  4.681582E-02
  4.691443E-02
  4.701321E-02
  4.714218E-02
  4.727259E-02
  4.740322E-02
  4.753404E-02
  4.766508E-02
  4.779633E-02
  4.792778E-02
  4.803270E-02
  4.808161E-02
  4.813064E-02
  4.817981E-02
  4.822911E-02
  4.827854E-02
  4.832810E-02
  4.837841E-02
  4.843731E-02
  4.849631E-02
  4.855541E-02
  4.861460E-02
  4.867388E-02
  4.873327E-02
  4.879687E-02
  4.888018E-02
  4.896355E-02
  4.904699E-02
  4.913049E-02
  4.921406E-02
  4.929769E-02
  4.938745E-02
  4.948087E-02
  4.957432E-02
  4.966780E-02
  4.976131E-02
  4.985484E-02
  4.994550E-02
  5.003188E-02
  5.011827E-02
  5.020467E-02
  5.029107E-02
  5.037747E-02
  5.044717E-02
  5.049981E-02
  5.055249E-02
  5.060521E-02
  5.065798E-02
  5.071079E-02
  5.071600E-02
  5.071489E-02
  5.071398E-02
  5.071327E-02
  5.071275E-02
  5.068402E-02
  5.063209E-02
  5.058059E-02
  5.052953E-02
  5.047891E-02
  5.041276E-02
  5.032988E-02
  5.024767E-02
  5.016613E-02
  5.008526E-02
  5.000360E-02
  4.992195E-02
  4.984107E-02
  4.976094E-02
  4.968477E-02
  4.964061E-02
  4.959708E-02
  4.955416E-02
  4.951185E-02
  4.950802E-02
  4.951733E-02
  4.952699E-02
  4.953701E-02
  4.956809E-02
  4.961201E-02
  4.965612E-02
  4.970042E-02
  4.974901E-02
  4.979947E-02
  4.985001E-02
  4.990066E-02
  4.993769E-02
  4.997443E-02
  5.001121E-02
  5.003608E-02
  5.004557E-02
  5.005507E-02
  5.006197E-02
  5.003672E-02
  5.001148E-02
  4.998624E-02
  4.993066E-02
  4.987101E-02
  4.981135E-02
  4.973002E-02
  4.964481E-02
  4.955959E-02
  4.945794E-02
  4.935572E-02
  4.925053E-02
  4.913530E-02
  4.902015E-02
  4.889803E-02
  4.877188E-02
  4.864413E-02
  4.850713E-02
  4.837041E-02
  4.822217E-02
  4.807156E-02
  4.791323E-02
  4.774951E-02
  4.758116E-02
  4.740731E-02
  4.722796E-02
  4.704164E-02
  4.684909E-02
  4.665119E-02
  4.645003E-02
  4.624795E-02
  4.605271E-02
  4.586516E-02
  4.569112E-02
  4.554534E-02
  4.542278E-02
  4.533450E-02
  4.530467E-02
  4.532652E-02
  4.541491E-02
  4.559434E-02
  4.592629E-02
  4.657034E-02
  4.778372E-02
  5.001918E-02
  5.406650E-02
  6.149363E-02
  7.161227E-02
  7.730464E-02
  8.953586E-02
  4.719000E-02
  1.750751E-02
  1.469072E-01
  1.467214E-01
  1.465360E-01
  1.463508E-01
  1.461658E-01
  1.459812E-01
  1.457968E-01
  1.456127E-01
  1.454289E-01
  1.448492E-01
  1.442534E-01
  1.436578E-01
  1.430624E-01
  1.424672E-01
  1.418722E-01
  1.412774E-01
  1.406177E-01
  1.398213E-01
  1.390249E-01
  1.382287E-01
  1.374325E-01
  1.366363E-01
  1.358402E-01
  1.350490E-01
  1.343247E-01
  1.336004E-01
  1.328762E-01
  1.321521E-01
  1.314279E-01
  1.307038E-01
  1.300044E-01
  1.294222E-01
  1.288400E-01
  1.282579E-01
  1.276758E-01
  1.270938E-01
  1.265118E-01
  1.260459E-01
  1.256496E-01
  1.252533E-01
  1.248571E-01
  1.244608E-01
  1.240646E-01
  1.237818E-01
  1.236659E-01
  1.235501E-01
  1.234343E-01
  1.233185E-01
  1.232027E-01
  1.232739E-01
  1.235363E-01
  1.237986E-01
  1.240611E-01
  1.243235E-01
  1.245860E-01
  1.252170E-01
  1.258983E-01
  1.265799E-01
  1.272616E-01
  1.279435E-01
  1.288241E-01
  1.298701E-01
  1.309165E-01
  1.319633E-01
  1.330106E-01
  1.341651E-01
  1.354364E-01
  1.367083E-01
  1.379811E-01
  1.392545E-01
  1.405563E-01
  1.418729E-01
  1.431903E-01
  1.445087E-01
  1.458155E-01
  1.470012E-01
  1.481877E-01
  1.493750E-01
  1.505631E-01
  1.515574E-01
  1.524868E-01
  1.534167E-01
  1.543459E-01
  1.550847E-01
  1.557067E-01
  1.563289E-01
  1.569514E-01
  1.573661E-01
  1.576920E-01
  1.580180E-01
  1.583442E-01
  1.584110E-01
  1.584715E-01
  1.585320E-01
  1.584891E-01
  1.583128E-01
  1.581366E-01
  1.579437E-01
  1.575468E-01
  1.571499E-01
  1.567530E-01
  1.561531E-01
  1.555261E-01
  1.548991E-01
  1.540574E-01
  1.531773E-01
  1.522972E-01
  1.511580E-01
  1.500098E-01
  1.487999E-01
  1.473815E-01
  1.459631E-01
  1.443807E-01
  1.427007E-01
  1.409825E-01
  1.390564E-01
  1.371306E-01
  1.350188E-01
  1.328634E-01
  1.305919E-01
  1.282360E-01
  1.258119E-01
  1.233074E-01
  1.207604E-01
  1.181604E-01
  1.155346E-01
  1.128863E-01
  1.102371E-01
  1.075878E-01
  1.049869E-01
  1.024201E-01
  9.991473E-02
  9.751519E-02
  9.519304E-02
  9.297962E-02
  9.092337E-02
  8.898678E-02
  8.719360E-02
  8.558686E-02
  8.430008E-02
  8.374095E-02
  8.463227E-02
  8.827094E-02
  9.671814E-02
  1.133431E-01
  1.352975E-01
  1.430740E-01
  1.501209E-01
 -3.982469E-03
  1.721443E-07
  9.374560E-01
  9.373903E-01
  9.373252E-01
  9.372606E-01
  9.371967E-01
  9.371333E-01
  9.370705E-01
  9.370083E-01
  9.369466E-01
  9.363479E-01
  9.357274E-01
  9.351074E-01
  9.344880E-01
  9.338691E-01
  9.332507E-01
  9.326328E-01
  9.318165E-01
  9.305829E-01
  9.293496E-01
  9.281165E-01
  9.268837E-01
  9.256511E-01
  9.244188E-01
  9.231797E-01
  9.218409E-01