 Title= "ADflow Lift Distribution Data"
Variables = "eta" "CoordinateX" "CoordinateY" "CoordinateZ" "Lift" "Drag" "Moment" "Normalized Lift" "Normalized Drag" "Normalized Moment" "CL" "CD" "CM" "CLp" "CDp" "CMp" "CLv" "CDv" "CMv" "Elliptical" "thickness" "twist" "chord" "fx" "fy" "fz" 
Zone T= "LiftDist_01 allWalls: : z normal"
 I=          150
 DATAPACKING=BLOCK
  0.000000E+00
  6.711405E-03
  1.342281E-02
  2.013422E-02
  2.684563E-02
  3.355704E-02
  4.026845E-02
  4.697986E-02
  5.369127E-02
  6.040268E-02
  6.711409E-02
  7.382550E-02
  8.053691E-02
  8.724832E-02
  9.395973E-02
  1.006711E-01
  1.073825E-01
  1.140940E-01
  1.208054E-01
  1.275168E-01
  1.342282E-01
  1.409396E-01
  1.476510E-01
  1.543624E-01
  1.610738E-01
  1.677852E-01
  1.744966E-01
  1.812081E-01
  1.879195E-01
  1.946309E-01
  2.013423E-01
  2.080537E-01
  2.147651E-01
  2.214765E-01
  2.281879E-01
  2.348993E-01
  2.416107E-01
  2.483221E-01
  2.550336E-01
  2.617450E-01
  2.684564E-01
  2.751678E-01
  2.818792E-01
  2.885906E-01
  2.953020E-01
  3.020134E-01
  3.087248E-01
  3.154362E-01
  3.221476E-01
  3.288591E-01
  3.355705E-01
  3.422819E-01
  3.489933E-01
  3.557047E-01
  3.624161E-01
  3.691275E-01
  3.758389E-01
  3.825503E-01
  3.892617E-01
  3.959732E-01
  4.026846E-01
  4.093960E-01
  4.161074E-01
  4.228188E-01
  4.295302E-01
  4.362416E-01
  4.429530E-01
  4.496644E-01
  4.563758E-01
  4.630872E-01
  4.697987E-01
  4.765101E-01
  4.832215E-01
  4.899329E-01
  4.966443E-01
  5.033557E-01
  5.100671E-01
  5.167785E-01
  5.234899E-01
  5.302013E-01
  5.369128E-01
  5.436242E-01
  5.503356E-01
  5.570470E-01
  5.637584E-01
  5.704698E-01
  5.771812E-01
  5.838926E-01
  5.906040E-01
  5.973154E-01
  6.040268E-01
  6.107383E-01
  6.174497E-01
  6.241611E-01
  6.308725E-01
  6.375839E-01
  6.442953E-01
  6.510067E-01
  6.577181E-01
  6.644295E-01
  6.711409E-01
  6.778524E-01
  6.845638E-01
  6.912752E-01
  6.979866E-01
  7.046980E-01
  7.114094E-01
  7.181208E-01
  7.248322E-01
  7.315436E-01
  7.382550E-01
  7.449664E-01
  7.516779E-01
  7.583893E-01
  7.651007E-01
  7.718121E-01
  7.785235E-01
  7.852349E-01
  7.919463E-01
  7.986577E-01
  8.053691E-01
  8.120805E-01
  8.187919E-01
  8.255034E-01
  8.322148E-01
  8.389262E-01
  8.456376E-01
  8.523490E-01
  8.590604E-01
  8.657718E-01
  8.724832E-01
  8.791946E-01
  8.859060E-01
  8.926175E-01
  8.993289E-01
  9.060403E-01
  9.127517E-01
  9.194631E-01
  9.261745E-01
  9.328859E-01
  9.395973E-01
  9.463087E-01
  9.530201E-01
  9.597315E-01
  9.664430E-01
  9.731544E-01
  9.798658E-01
  9.865772E-01
  9.932886E-01
  1.000000E+00
  0.000000E+00
  0.000000E+00
  0.000000E+00
  0.000000E+00
  0.000000E+00
  0.000000E+00
  0.000000E+00
  0.000000E+00
  0.000000E+00
  0.000000E+00
  0.000000E+00
  0.000000E+00
  0.000000E+00
  0.000000E+00
  0.000000E+00
  0.000000E+00
  0.000000E+00
  0.000000E+00
  0.000000E+00
  0.000000E+00
  0.000000E+00
  0.000000E+00
  0.000000E+00
  0.000000E+00
  0.000000E+00
  0.000000E+00
  0.000000E+00
  0.000000E+00
  0.000000E+00
  0.000000E+00
  0.000000E+00
  0.000000E+00
  0.000000E+00
  0.000000E+00
  0.000000E+00
  0.000000E+00
  0.000000E+00
  0.000000E+00
  0.000000E+00
  0.000000E+00
  0.000000E+00
  0.000000E+00
  0.000000E+00
  0.000000E+00
  0.000000E+00
  0.000000E+00
  0.000000E+00
  0.000000E+00
  0.000000E+00
  0.000000E+00
  0.000000E+00
  0.000000E+00
  0.000000E+00
  0.000000E+00
  0.000000E+00
  0.000000E+00
  0.000000E+00
  0.000000E+00
  0.000000E+00
  0.000000E+00
  0.000000E+00
  0.000000E+00
  0.000000E+00
  0.000000E+00
  0.000000E+00
  0.000000E+00
  0.000000E+00
  0.000000E+00
  0.000000E+00
  0.000000E+00
  0.000000E+00
  0.000000E+00
  0.000000E+00
  0.000000E+00
  0.000000E+00
  0.000000E+00
  0.000000E+00
  0.000000E+00
  0.000000E+00
  0.000000E+00
  0.000000E+00
  0.000000E+00
  0.000000E+00
  0.000000E+00
  0.000000E+00
  0.000000E+00
  0.000000E+00
  0.000000E+00
  0.000000E+00
  0.000000E+00
  0.000000E+00
  0.000000E+00
  0.000000E+00
  0.000000E+00
  0.000000E+00
  0.000000E+00
  0.000000E+00
  0.000000E+00
  0.000000E+00
  0.000000E+00
  0.000000E+00
  0.000000E+00
  0.000000E+00
  0.000000E+00
  0.000000E+00
  0.000000E+00
  0.000000E+00
  0.000000E+00
  0.000000E+00
  0.000000E+00
  0.000000E+00
  0.000000E+00
  0.000000E+00
  0.000000E+00
  0.000000E+00
  0.000000E+00
  0.000000E+00
  0.000000E+00
  0.000000E+00
  0.000000E+00
  0.000000E+00
  0.000000E+00
  0.000000E+00
  0.000000E+00
  0.000000E+00
  0.000000E+00
  0.000000E+00
  0.000000E+00
  0.000000E+00
  0.000000E+00
  0.000000E+00
  0.000000E+00
  0.000000E+00
  0.000000E+00
  0.000000E+00
  0.000000E+00
  0.000000E+00
  0.000000E+00
  0.000000E+00
  0.000000E+00
  0.000000E+00
  0.000000E+00
  0.000000E+00
  0.000000E+00
  0.000000E+00
  0.000000E+00
  0.000000E+00
  0.000000E+00
  0.000000E+00
  0.000000E+00
  0.000000E+00
  0.000000E+00
  0.000000E+00
  0.000000E+00
  0.000000E+00
  0.000000E+00
  0.000000E+00
  0.000000E+00
  0.000000E+00
  0.000000E+00
  0.000000E+00
  0.000000E+00
  0.000000E+00
  0.000000E+00
  0.000000E+00
  0.000000E+00
  0.000000E+00
  0.000000E+00
  0.000000E+00
  0.000000E+00
  0.000000E+00
  0.000000E+00
  0.000000E+00
  0.000000E+00
  0.000000E+00
  0.000000E+00
  0.000000E+00
  0.000000E+00
  0.000000E+00
  0.000000E+00
  0.000000E+00
  0.000000E+00
  0.000000E+00
  0.000000E+00
  0.000000E+00
  0.000000E+00
  0.000000E+00
  0.000000E+00
  0.000000E+00
  0.000000E+00
  0.000000E+00
  0.000000E+00
  0.000000E+00
  0.000000E+00
  0.000000E+00
  0.000000E+00
  0.000000E+00
  0.000000E+00
  0.000000E+00
  0.000000E+00
  0.000000E+00
  0.000000E+00
  0.000000E+00
  0.000000E+00
  0.000000E+00
  0.000000E+00
  0.000000E+00
  0.000000E+00
  0.000000E+00
  0.000000E+00
  0.000000E+00
  0.000000E+00
  0.000000E+00
  0.000000E+00
  0.000000E+00
  0.000000E+00
  0.000000E+00
  0.000000E+00
  0.000000E+00
  0.000000E+00
  0.000000E+00
  0.000000E+00
  0.000000E+00
  0.000000E+00
  0.000000E+00
  0.000000E+00
  0.000000E+00
  0.000000E+00
  0.000000E+00
  0.000000E+00
  0.000000E+00
  0.000000E+00
  0.000000E+00
  0.000000E+00
  0.000000E+00
  0.000000E+00
  0.000000E+00
  0.000000E+00
  0.000000E+00
  0.000000E+00
  0.000000E+00
  0.000000E+00
  0.000000E+00
  0.000000E+00
  0.000000E+00
  0.000000E+00
  0.000000E+00
  0.000000E+00
  0.000000E+00
  0.000000E+00
  0.000000E+00
  0.000000E+00
  0.000000E+00
  0.000000E+00
  0.000000E+00
  0.000000E+00
  0.000000E+00
  0.000000E+00
  0.000000E+00
  0.000000E+00
  0.000000E+00
  0.000000E+00
  0.000000E+00
  0.000000E+00
  0.000000E+00
  0.000000E+00
  0.000000E+00
  0.000000E+00
  0.000000E+00
  0.000000E+00
  0.000000E+00
  0.000000E+00
  0.000000E+00
  0.000000E+00
  0.000000E+00
  0.000000E+00
  0.000000E+00
  0.000000E+00
  0.000000E+00
  0.000000E+00
  0.000000E+00
  0.000000E+00
  0.000000E+00
  0.000000E+00
  0.000000E+00
  0.000000E+00
  0.000000E+00
  0.000000E+00
  0.000000E+00
  0.000000E+00
  0.000000E+00
  0.000000E+00
  0.000000E+00
  0.000000E+00
  0.000000E+00
  0.000000E+00
  0.000000E+00
  0.000000E+00
  0.000000E+00
  0.000000E+00
  1.000000E-08
  1.691809E-02
  3.383618E-02
  5.075427E-02
  6.767237E-02
  8.459046E-02
  1.015085E-01
  1.184266E-01
  1.353447E-01
  1.522628E-01
  1.691809E-01
  1.860990E-01
  2.030171E-01
  2.199352E-01
  2.368533E-01
  2.537714E-01
  2.706895E-01
  2.876076E-01
  3.045256E-01
  3.214437E-01
  3.383618E-01
  3.552799E-01
  3.721980E-01
  3.891161E-01
  4.060342E-01
  4.229523E-01
  4.398704E-01
  4.567885E-01
  4.737066E-01
  4.906247E-01
  5.075427E-01
  5.244608E-01
  5.413789E-01
  5.582970E-01
  5.752151E-01
  5.921332E-01
  6.090513E-01
  6.259694E-01
  6.428875E-01
  6.598056E-01
  6.767237E-01
  6.936418E-01
  7.105598E-01
  7.274779E-01
  7.443960E-01
  7.613141E-01
  7.782322E-01
  7.951503E-01
  8.120684E-01
  8.289865E-01
  8.459046E-01
  8.628227E-01
  8.797408E-01
  8.966589E-01
  9.135769E-01
  9.304950E-01
  9.474131E-01
  9.643312E-01
  9.812493E-01
  9.981674E-01
  1.015085E+00
  1.032004E+00
  1.048922E+00
  1.065840E+00
  1.082758E+00
  1.099676E+00
  1.116594E+00
  1.133512E+00
  1.150430E+00
  1.167348E+00
  1.184266E+00
  1.201185E+00
  1.218103E+00
  1.235021E+00
  1.251939E+00
  1.268857E+00
  1.285775E+00
  1.302693E+00
  1.319611E+00
  1.336529E+00
  1.353447E+00
  1.370365E+00
  1.387284E+00
  1.404202E+00
  1.421120E+00
  1.438038E+00
  1.454956E+00
  1.471874E+00
  1.488792E+00
  1.505710E+00
  1.522628E+00
  1.539546E+00
  1.556464E+00
  1.573383E+00
  1.590301E+00
  1.607219E+00
  1.624137E+00
  1.641055E+00
  1.657973E+00
  1.674891E+00
  1.691809E+00
  1.708727E+00
  1.725645E+00
  1.742563E+00
  1.759482E+00
  1.776400E+00
  1.793318E+00
  1.810236E+00
  1.827154E+00
  1.844072E+00
  1.860990E+00
  1.877908E+00
  1.894826E+00
  1.911744E+00
  1.928662E+00
  1.945581E+00
  1.962499E+00
  1.979417E+00
  1.996335E+00
  2.013253E+00
  2.030171E+00
  2.047089E+00
  2.064007E+00
  2.080925E+00
  2.097843E+00
  2.114761E+00
  2.131680E+00
  2.148598E+00
  2.165516E+00
  2.182434E+00
  2.199352E+00
  2.216270E+00
  2.233188E+00
  2.250106E+00
  2.267024E+00
  2.283942E+00
  2.300860E+00
  2.317779E+00
  2.334697E+00
  2.351615E+00
  2.368533E+00
  2.385451E+00
  2.402369E+00
  2.419287E+00
  2.436205E+00
  2.453123E+00
  2.470041E+00
  2.486959E+00
  2.503878E+00
  2.520796E+00
  1.098074E+04
  1.097922E+04
  1.097771E+04
  1.097619E+04
  1.097467E+04
  1.097315E+04
  1.097164E+04
  1.097012E+04
  1.096860E+04
  1.096421E+04
  1.095970E+04
  1.095519E+04
  1.095068E+04
  1.094617E+04
  1.094166E+04
  1.093715E+04
  1.093176E+04
  1.092455E+04
  1.091734E+04
  1.091013E+04
  1.090292E+04
  1.089571E+04
  1.088850E+04
  1.088110E+04
  1.087115E+04
  1.086119E+04
  1.085124E+04
  1.084128E+04
  1.083133E+04
  1.082137E+04
  1.081090E+04
  1.079796E+04
  1.078502E+04
  1.077208E+04
  1.075915E+04
  1.074621E+04
  1.073327E+04
  1.071838E+04
  1.070232E+04
  1.068626E+04
  1.067020E+04
  1.065414E+04
  1.063808E+04
  1.062075E+04
  1.060154E+04
  1.058233E+04
  1.056313E+04
  1.054392E+04
  1.052472E+04
  1.050391E+04
  1.048146E+04
  1.045902E+04
  1.043657E+04
  1.041412E+04
  1.039168E+04
  1.036624E+04
  1.034039E+04
  1.031454E+04
  1.028869E+04
  1.026284E+04
  1.023510E+04
  1.020578E+04
  1.017647E+04
  1.014715E+04
  1.011784E+04
  1.008678E+04
  1.005384E+04
  1.002091E+04
  9.987966E+03
  9.955028E+03
  9.919459E+03
  9.882568E+03
  9.845677E+03
  9.808787E+03
  9.771514E+03
  9.730479E+03
  9.689445E+03
  9.648411E+03
  9.607379E+03
  9.563222E+03
  9.518016E+03
  9.472810E+03
  9.427606E+03
  9.379825E+03
  9.330472E+03
  9.281121E+03
  9.231773E+03
  9.179755E+03
  9.126597E+03
  9.073442E+03
  9.020291E+03
  8.963970E+03
  8.907576E+03
  8.851190E+03
  8.793485E+03
  8.734087E+03
  8.674704E+03
  8.615106E+03
  8.552728E+03
  8.490380E+03
  8.428062E+03
  8.363368E+03
  8.298398E+03
  8.233473E+03
  8.166123E+03
  8.098386E+03
  8.030703E+03
  7.959398E+03
  7.888023E+03
  7.815657E+03
  7.739802E+03
  7.664002E+03
  7.585119E+03
  7.504419E+03
  7.422959E+03
  7.337179E+03
  7.251438E+03
  7.161611E+03
  7.070839E+03
  6.977299E+03
  6.881746E+03
  6.784094E+03
  6.683967E+03
  6.581901E+03
  6.477427E+03
  6.370848E+03
  6.262438E+03
  6.151497E+03
  6.039571E+03
  5.924499E+03
  5.808402E+03
  5.690463E+03
  5.570451E+03
  5.449121E+03
  5.326090E+03
  5.200738E+03
  5.073615E+03
  4.944560E+03
  4.813586E+03
  4.681469E+03
  4.552923E+03
  4.438020E+03
  4.352837E+03
  4.324410E+03
  4.414138E+03
  4.545812E+03
  4.292017E+03
  4.579238E+03
  1.331520E+03
  7.307328E-03
  5.972521E+02
  5.972166E+02
  5.971811E+02
  5.971457E+02
  5.971102E+02
  5.970747E+02
  5.970393E+02
  5.970038E+02
  5.969683E+02
  5.969192E+02
  5.968696E+02
  5.968199E+02
  5.967702E+02
  5.967206E+02
  5.966709E+02
  5.966213E+02
  5.965950E+02
  5.966176E+02
  5.966403E+02
  5.966631E+02
  5.966858E+02
  5.967085E+02
  5.967313E+02
  5.967581E+02
  5.968413E+02
  5.969245E+02
  5.970078E+02
  5.970911E+02
  5.971744E+02
  5.972578E+02
  5.973425E+02
  5.974336E+02
  5.975247E+02
  5.976158E+02
  5.977071E+02
  5.977984E+02
  5.978897E+02
  5.979775E+02
  5.980631E+02
  5.981488E+02
  5.982347E+02
  5.983207E+02
  5.984068E+02
  5.984886E+02
  5.985640E+02
  5.986395E+02
  5.987153E+02
  5.987912E+02
  5.988674E+02
  5.989059E+02
  5.989060E+02
  5.989063E+02
  5.989069E+02
  5.989077E+02
  5.989088E+02
  5.987550E+02
  5.985802E+02
  5.984056E+02
  5.982312E+02
  5.980571E+02
  5.977702E+02
  5.973896E+02
  5.970093E+02
  5.966291E+02
  5.962491E+02
  5.957760E+02
  5.952017E+02
  5.946276E+02
  5.940537E+02
  5.934799E+02
  5.927884E+02
  5.920377E+02
  5.912872E+02
  5.905370E+02
  5.897760E+02
  5.889083E+02
  5.880409E+02
  5.871737E+02
  5.863068E+02
  5.853168E+02
  5.842854E+02
  5.832544E+02
  5.822236E+02
  5.809309E+02
  5.794783E+02
  5.780257E+02
  5.765730E+02
  5.746600E+02
  5.725497E+02
  5.704391E+02
  5.683282E+02
  5.654581E+02
  5.625694E+02
  5.596809E+02
  5.563571E+02
  5.524741E+02
  5.485940E+02
  5.446329E+02
  5.396514E+02
  5.346777E+02
  5.297116E+02
  5.241252E+02
  5.184669E+02
  5.128206E+02
  5.070804E+02
  5.013345E+02
  4.956017E+02
  4.901244E+02
  4.846671E+02
  4.793311E+02
  4.743775E+02
  4.694320E+02
  4.648969E+02
  4.606067E+02
  4.564323E+02
  4.528639E+02
  4.492975E+02
  4.463033E+02
  4.434451E+02
  4.409587E+02
  4.387437E+02
  4.367368E+02
  4.349749E+02
  4.333023E+02
  4.317407E+02
  4.302098E+02
  4.287072E+02
  4.272177E+02
  4.257374E+02
  4.243038E+02
  4.229231E+02
  4.216333E+02
  4.205543E+02
  4.196678E+02
  4.190739E+02
  4.190371E+02
  4.195443E+02
  4.207774E+02
  4.230223E+02
  4.269135E+02
  4.339040E+02
  4.462193E+02
  4.676990E+02
  5.046792E+02
  5.698321E+02
  6.552902E+02
  6.979977E+02
  8.226361E+02
  3.681378E+02
  2.341333E-03
  2.005756E+03
  2.005402E+03
  2.005049E+03
  2.004695E+03
  2.004341E+03
  2.003987E+03
  2.003633E+03
  2.003279E+03
  2.002926E+03
  2.001930E+03
  2.000909E+03
  1.999887E+03
  1.998865E+03
  1.997844E+03
  1.996822E+03
  1.995800E+03
  1.994591E+03
  1.992987E+03
  1.991384E+03
  1.989780E+03
  1.988177E+03
  1.986573E+03
  1.984970E+03
  1.983322E+03
  1.981059E+03
  1.978796E+03
  1.976534E+03
  1.974271E+03
  1.972008E+03
  1.969745E+03
  1.967342E+03
  1.964276E+03
  1.961209E+03
  1.958143E+03
  1.955077E+03
  1.952010E+03
  1.948944E+03
  1.945330E+03
  1.941389E+03
  1.937448E+03
  1.933507E+03
  1.929566E+03
  1.925624E+03
  1.921343E+03
  1.916561E+03
  1.911779E+03
  1.906997E+03
  1.902214E+03
  1.897433E+03
  1.892276E+03
  1.886736E+03
  1.881196E+03
  1.875657E+03
  1.870117E+03
  1.864578E+03
  1.858451E+03
  1.852244E+03
  1.846036E+03
  1.839829E+03
  1.833622E+03
  1.827087E+03
  1.820280E+03
  1.813473E+03
  1.806667E+03
  1.799860E+03
  1.792734E+03
  1.785260E+03
  1.777802E+03
  1.770328E+03
  1.762854E+03
  1.754860E+03
  1.746604E+03
  1.738348E+03
  1.730092E+03
  1.721773E+03
  1.712834E+03
  1.703896E+03
  1.694957E+03
  1.686019E+03
  1.676692E+03
  1.667234E+03
  1.657777E+03
  1.648319E+03
  1.638565E+03
  1.628631E+03
  1.618696E+03
  1.608762E+03
  1.598679E+03
  1.588534E+03
  1.578390E+03
  1.568246E+03
  1.558352E+03
  1.548466E+03
  1.538581E+03
  1.528817E+03
  1.519208E+03
  1.509605E+03
  1.499993E+03
  1.490228E+03
  1.480475E+03
  1.470723E+03
  1.460616E+03
  1.450478E+03
  1.440358E+03
  1.429634E+03
  1.418821E+03
  1.408031E+03
  1.395877E+03
  1.383698E+03
  1.371072E+03
  1.356878E+03
  1.342705E+03
  1.327091E+03
  1.310625E+03
  1.293807E+03
  1.275006E+03
  1.256217E+03
  1.235620E+03
  1.214599E+03
  1.192478E+03
  1.169556E+03
  1.146004E+03
  1.121708E+03
  1.097049E+03
  1.071941E+03
  1.046684E+03
  1.021299E+03
  9.960903E+02
  9.709536E+02
  9.465745E+02
  9.226519E+02
  8.995501E+02
  8.778164E+02
  8.570988E+02
  8.378151E+02
  8.207011E+02
  8.053232E+02
  7.920259E+02
  7.813421E+02
  7.746455E+02
  7.756308E+02
  7.906244E+02
  8.308463E+02
  9.131052E+02
  1.064213E+03
  1.251979E+03
  1.303371E+03
  1.406981E+03
 -1.928277E+00
  2.272671E-08
  1.232901E+00
  1.232731E+00
  1.232560E+00
  1.232390E+00
  1.232220E+00
  1.232049E+00
  1.231879E+00
  1.231708E+00
  1.231538E+00
  1.231045E+00
  1.230538E+00
  1.230032E+00
  1.229526E+00
  1.229019E+00
  1.228513E+00
  1.228006E+00
  1.227402E+00
  1.226592E+00
  1.225783E+00
  1.224973E+00
  1.224163E+00
  1.223354E+00
  1.222544E+00
  1.221714E+00
  1.220596E+00
  1.219478E+00
  1.218360E+00
  1.217243E+00
  1.216125E+00
  1.215007E+00
  1.213831E+00
  1.212379E+00
  1.210926E+00
  1.209473E+00
  1.208021E+00
  1.206568E+00
  1.205116E+00
  1.203444E+00
  1.201640E+00
  1.199837E+00
  1.198034E+00
  1.196230E+00
  1.194427E+00
  1.192481E+00
  1.190325E+00
  1.188168E+00
  1.186012E+00
  1.183856E+00
  1.181699E+00
  1.179363E+00
  1.176843E+00
  1.174322E+00
  1.171802E+00
  1.169282E+00
  1.166762E+00
  1.163906E+00
  1.161003E+00
  1.158101E+00
  1.155198E+00
  1.152296E+00
  1.149181E+00
  1.145890E+00
  1.142598E+00
  1.139307E+00
  1.136015E+00
  1.132529E+00
  1.128830E+00
  1.125132E+00
  1.121434E+00
  1.117735E+00
  1.113742E+00
  1.109600E+00
  1.105458E+00
  1.101316E+00
  1.097131E+00
  1.092523E+00
  1.087916E+00
  1.083309E+00
  1.078702E+00
  1.073744E+00
  1.068668E+00
  1.063593E+00
  1.058517E+00
  1.053153E+00
  1.047611E+00
  1.042070E+00
  1.036529E+00
  1.030689E+00
  1.024720E+00
  1.018752E+00
  1.012785E+00
  1.006461E+00
  1.000129E+00
  9.937982E-01
  9.873192E-01
  9.806501E-01
  9.739826E-01
  9.672911E-01
  9.602874E-01
  9.532871E-01
  9.462901E-01
  9.390263E-01
  9.317316E-01
  9.244419E-01
  9.168799E-01
  9.092745E-01
  9.016752E-01
  8.936692E-01
  8.856553E-01
  8.775302E-01
  8.690133E-01
  8.605025E-01
  8.516457E-01
  8.425848E-01
  8.334386E-01
  8.238074E-01
  8.141805E-01
  8.040949E-01
  7.939031E-01
  7.834006E-01
  7.726720E-01
  7.617078E-01
  7.504657E-01
  7.390059E-01
  7.272758E-01
  7.153092E-01
  7.031370E-01
  6.906808E-01
  6.781139E-01
  6.651938E-01
  6.521586E-01
  6.389166E-01
  6.254418E-01
  6.118191E-01
  5.980053E-01
  5.839310E-01
  5.696578E-01
  5.551677E-01
  5.404622E-01
  5.256282E-01
  5.111953E-01
  4.982942E-01
  4.887300E-01
  4.855382E-01
  4.956128E-01
  5.103969E-01
  4.819012E-01
  5.141499E-01
  1.495011E-01
  8.204557E-07
  1.087682E+00
  1.087617E+00
  1.087553E+00
  1.087488E+00
  1.087424E+00
  1.087359E+00
  1.087294E+00
  1.087230E+00
  1.087165E+00
  1.087076E+00
  1.086985E+00
  1.086895E+00
  1.086805E+00
  1.086714E+00
  1.086624E+00
  1.086533E+00
  1.086485E+00
  1.086527E+00
  1.086568E+00
  1.086609E+00
  1.086651E+00
  1.086692E+00
  1.086734E+00
  1.086782E+00
  1.086934E+00
  1.087086E+00
  1.087237E+00
  1.087389E+00
  1.087541E+00
  1.087692E+00
  1.087847E+00
  1.088013E+00
  1.088178E+00
  1.088344E+00
  1.088511E+00
  1.088677E+00
  1.088843E+00
  1.089003E+00
  1.089159E+00
  1.089315E+00
  1.089472E+00
  1.089628E+00
  1.089785E+00
  1.089934E+00
  1.090071E+00
  1.090209E+00
  1.090347E+00
  1.090485E+00
  1.090624E+00
  1.090694E+00
  1.090694E+00
  1.090695E+00
  1.090696E+00
  1.090697E+00
  1.090699E+00
  1.090419E+00
  1.090101E+00
  1.089783E+00
  1.089465E+00
  1.089148E+00
  1.088626E+00
  1.087933E+00
  1.087240E+00
  1.086548E+00
  1.085856E+00
  1.084994E+00
  1.083948E+00
  1.082903E+00
  1.081857E+00
  1.080812E+00
  1.079553E+00
  1.078186E+00
  1.076819E+00
  1.075453E+00
  1.074067E+00
  1.072487E+00
  1.070907E+00
  1.069328E+00
  1.067749E+00
  1.065946E+00
  1.064068E+00
  1.062190E+00
  1.060313E+00
  1.057959E+00
  1.055313E+00
  1.052668E+00
  1.050023E+00
  1.046539E+00
  1.042695E+00
  1.038852E+00
  1.035008E+00
  1.029781E+00
  1.024520E+00
  1.019260E+00
  1.013206E+00
  1.006135E+00
  9.990686E-01
  9.918549E-01
  9.827829E-01
  9.737251E-01
  9.646811E-01
  9.545075E-01
  9.442029E-01
  9.339202E-01
  9.234663E-01
  9.130023E-01
  9.025620E-01
  8.925870E-01
  8.826486E-01
  8.729310E-01
  8.639098E-01
  8.549032E-01
  8.466441E-01
  8.388310E-01
  8.312289E-01
  8.247303E-01
  8.182354E-01
  8.127826E-01
  8.075773E-01
  8.030493E-01
  7.990155E-01
  7.953605E-01
  7.921520E-01
  7.891059E-01
  7.862619E-01
  7.834739E-01
  7.807375E-01
  7.780249E-01
  7.753291E-01
  7.727183E-01
  7.702038E-01
  7.678549E-01
  7.658900E-01
  7.642755E-01
  7.631939E-01
  7.631269E-01
  7.640506E-01
  7.662962E-01
  7.703845E-01
  7.774710E-01
  7.902017E-01
  8.126296E-01
  8.517472E-01
  9.190936E-01
  1.037746E+00
  1.193378E+00
  1.271154E+00
  1.498139E+00
  6.704320E-01
  4.263904E-06
  1.261039E+00
  1.260817E+00
  1.260594E+00
  1.260372E+00
  1.260149E+00
  1.259927E+00
  1.259704E+00
  1.259482E+00
  1.259259E+00
  1.258634E+00
  1.257991E+00
  1.257349E+00
  1.256707E+00
  1.256064E+00
  1.255422E+00
  1.254780E+00
  1.254019E+00
  1.253011E+00
  1.252003E+00
  1.250995E+00
  1.249987E+00
  1.248979E+00
  1.247970E+00
  1.246935E+00
  1.245512E+00
  1.244089E+00
  1.242666E+00
  1.241244E+00
  1.239821E+00
  1.238398E+00
  1.236888E+00
  1.234960E+00
  1.233032E+00
  1.231104E+00
  1.229176E+00
  1.227248E+00
  1.225320E+00
  1.223049E+00
  1.220571E+00
  1.218093E+00
  1.215615E+00
  1.213137E+00
  1.210659E+00
  1.207968E+00
  1.204961E+00
  1.201954E+00
  1.198948E+00
  1.195941E+00
  1.192935E+00
  1.189693E+00
  1.186210E+00
  1.182727E+00
  1.179244E+00
  1.175762E+00
  1.172279E+00
  1.168427E+00
  1.164524E+00
  1.160621E+00
  1.156719E+00
  1.152816E+00
  1.148708E+00
  1.144428E+00
  1.140149E+00
  1.135869E+00
  1.131590E+00
  1.127110E+00
  1.122411E+00
  1.117722E+00
  1.113023E+00
  1.108324E+00
  1.103298E+00
  1.098107E+00
  1.092917E+00
  1.087726E+00
  1.082496E+00
  1.076876E+00
  1.071256E+00
  1.065637E+00
  1.060017E+00
  1.054153E+00
  1.048207E+00
  1.042261E+00
  1.036315E+00
  1.030182E+00
  1.023936E+00
  1.017690E+00
  1.011444E+00
  1.005106E+00
  9.987274E-01
  9.923496E-01
  9.859721E-01
  9.797514E-01
  9.735358E-01
  9.673214E-01
  9.611824E-01
  9.551414E-01
  9.491036E-01
  9.430607E-01
  9.369215E-01
  9.307895E-01
  9.246580E-01
  9.183041E-01
  9.119301E-01
  9.055677E-01
  8.988252E-01
  8.920271E-01
  8.852432E-01
  8.776018E-01
  8.699447E-01
  8.620069E-01
  8.530828E-01
  8.441721E-01
  8.343555E-01
  8.240033E-01
  8.134297E-01
  8.016093E-01
  7.897964E-01
  7.768464E-01
  7.636303E-01
  7.497231E-01
  7.353118E-01
  7.205041E-01
  7.052291E-01
  6.897260E-01
  6.739400E-01
  6.580608E-01
  6.421012E-01
  6.262520E-01
  6.104483E-01
  5.951208E-01
  5.800805E-01
  5.655561E-01
  5.518920E-01
  5.388666E-01
  5.267427E-01
  5.159830E-01
  5.063148E-01
  4.979546E-01
  4.912376E-01
  4.870274E-01
  4.876469E-01
  4.970735E-01
  5.223614E-01
  5.740784E-01
  6.690815E-01
  7.871320E-01
  8.194424E-01
  8.845827E-01
 -1.212327E-03
  1.428851E-11
  9.723514E-01
  9.722170E-01
  9.720827E-01
  9.719483E-01
  9.718140E-01
  9.716796E-01
  9.715453E-01
  9.714109E-01
  9.712766E-01
  9.708877E-01
  9.704884E-01
  9.700890E-01
  9.696896E-01
  9.692902E-01
  9.688909E-01
  9.684915E-01
  9.680150E-01
  9.673766E-01
  9.667381E-01
  9.660996E-01
  9.654612E-01
  9.648227E-01
  9.641843E-01
  9.635296E-01
  9.626481E-01
  9.617667E-01
  9.608852E-01
  9.600038E-01
  9.591223E-01
  9.582409E-01
  9.573136E-01
  9.561681E-01
  9.550226E-01
  9.538771E-01
  9.527316E-01
  9.515862E-01
  9.504408E-01
  9.491224E-01
  9.477003E-01
  9.462782E-01
  9.448562E-01
  9.434342E-01
  9.420123E-01
  9.404777E-01
  9.387771E-01
  9.370765E-01
  9.353760E-01
  9.336756E-01
  9.319751E-01
  9.301328E-01
  9.281452E-01
  9.261576E-01
  9.241702E-01
  9.221828E-01
  9.201954E-01
  9.179426E-01
  9.156535E-01
  9.133646E-01
  9.110757E-01
  9.087868E-01
  9.063302E-01
  9.037343E-01
  9.011384E-01
  8.985426E-01
  8.959468E-01
  8.931972E-01
  8.902804E-01
  8.873636E-01
  8.844468E-01
  8.815300E-01
  8.783803E-01
  8.751135E-01
  8.718467E-01
  8.685800E-01
  8.652794E-01
  8.616456E-01
  8.580119E-01
  8.543782E-01
  8.507445E-01
  8.468343E-01
  8.428310E-01
  8.388278E-01
  8.348247E-01
  8.305934E-01
  8.262230E-01
  8.218527E-01
  8.174826E-01
  8.128762E-01
  8.081689E-01
  8.034620E-01
  7.987553E-01
  7.937682E-01
  7.887746E-01
  7.837817E-01
  7.786721E-01
  7.734128E-01
  7.681546E-01
  7.628775E-01
  7.573543E-01
  7.518336E-01
  7.463153E-01
  7.405864E-01
  7.348328E-01
  7.290830E-01
  7.231181E-01
  7.171187E-01
  7.111239E-01
  7.048083E-01
  6.984862E-01
  6.920763E-01
  6.853576E-01
  6.786436E-01
  6.716570E-01
  6.645096E-01
  6.572951E-01
  6.496987E-01
  6.421057E-01
  6.341515E-01
  6.261138E-01
  6.178316E-01
  6.093713E-01
  6.007255E-01
  5.918607E-01
  5.828243E-01
  5.735748E-01
  5.641388E-01
  5.545406E-01
  5.447182E-01
  5.348083E-01
  5.246198E-01
  5.143402E-01
  5.038971E-01
  4.932703E-01
  4.825264E-01
  4.716314E-01
  4.605307E-01
  4.492729E-01
  4.378438E-01
  4.262445E-01
  4.145437E-01
  4.031590E-01
  3.929821E-01
  3.854368E-01
  3.829168E-01
  3.908590E-01
  4.025148E-01
  3.800386E-01
  4.054665E-01
  1.443048E-01
  5.310763E-02
  5.288704E-02
  5.288390E-02
  5.288076E-02
  5.287762E-02
  5.287448E-02
  5.287134E-02
  5.286820E-02
  5.286506E-02
  5.286192E-02
  5.285757E-02
  5.285318E-02
  5.284878E-02
  5.284439E-02
  5.283999E-02
  5.283560E-02
  5.283121E-02
  5.282888E-02
  5.283089E-02
  5.283291E-02
  5.283492E-02
  5.283694E-02
  5.283896E-02
  5.284098E-02
  5.284336E-02
  5.285073E-02
  5.285811E-02
  5.286549E-02
  5.287287E-02
  5.288026E-02
  5.288765E-02
  5.289516E-02
  5.290323E-02
  5.291130E-02
  5.291939E-02
  5.292747E-02
  5.293557E-02
  5.294367E-02
  5.295144E-02
  5.295904E-02
  5.296664E-02
  5.297425E-02
  5.298188E-02
  5.298951E-02
  5.299676E-02
  5.300345E-02
  5.301015E-02
  5.301687E-02
  5.302360E-02
  5.303035E-02
  5.303378E-02
  5.303379E-02
  5.303383E-02
  5.303389E-02
  5.303397E-02
  5.303407E-02
  5.302046E-02
  5.300498E-02
  5.298953E-02
  5.297409E-02
  5.295868E-02
  5.293327E-02
  5.289958E-02
  5.286590E-02
  5.283224E-02
  5.279859E-02
  5.275670E-02
  5.270585E-02
  5.265501E-02
  5.260419E-02
  5.255338E-02
  5.249214E-02
  5.242567E-02
  5.235921E-02
  5.229277E-02
  5.222538E-02
  5.214854E-02
  5.207172E-02
  5.199493E-02
  5.191815E-02
  5.183047E-02
  5.173913E-02
  5.164782E-02
  5.155653E-02
  5.144205E-02
  5.131340E-02
  5.118476E-02
  5.105611E-02
  5.088670E-02
  5.069983E-02
  5.051293E-02
  5.032600E-02
  5.007186E-02
  4.981607E-02
  4.956030E-02
  4.926599E-02
  4.892217E-02
  4.857861E-02
  4.822787E-02
  4.778677E-02
  4.734636E-02
  4.690662E-02
  4.641193E-02
  4.591085E-02
  4.541082E-02
  4.490246E-02
  4.439358E-02
  4.388584E-02
  4.340073E-02
  4.291738E-02
  4.244476E-02
  4.200602E-02
  4.156797E-02
  4.116629E-02
  4.078631E-02
  4.041659E-02
  4.010057E-02
  3.978472E-02
  3.951959E-02
  3.926650E-02
  3.904637E-02
  3.885029E-02
  3.867265E-02
  3.851673E-02
  3.836872E-02
  3.823054E-02
  3.809509E-02
  3.796214E-02
  3.783034E-02
  3.769935E-02
  3.757249E-02
  3.745028E-02
  3.733612E-02
  3.724060E-02
  3.716210E-02
  3.710948E-02
  3.710616E-02
  3.715100E-02
  3.726009E-02
  3.745875E-02
  3.780316E-02
  3.842197E-02
  3.951226E-02
  4.141400E-02
  4.468822E-02
  5.045695E-02
  5.802352E-02
  6.180453E-02
  7.283994E-02
  3.989729E-02
  1.701616E-02
  1.776109E-01
  1.775796E-01
  1.775483E-01
  1.775170E-01
  1.774856E-01
  1.774543E-01
  1.774230E-01
  1.773916E-01
  1.773603E-01
  1.772722E-01
  1.771817E-01
  1.770913E-01
  1.770008E-01
  1.769104E-01
  1.768199E-01
  1.767294E-01
  1.766223E-01
  1.764804E-01
  1.763384E-01
  1.761964E-01
  1.760544E-01
  1.759125E-01
  1.757705E-01
  1.756246E-01
  1.754243E-01
  1.752239E-01
  1.750235E-01
  1.748232E-01
  1.746228E-01
  1.744225E-01
  1.742097E-01
  1.739382E-01
  1.736667E-01
  1.733952E-01
  1.731237E-01
  1.728522E-01
  1.725807E-01
  1.722608E-01
  1.719118E-01
  1.715628E-01
  1.712139E-01
  1.708649E-01
  1.705159E-01
  1.701369E-01
  1.697134E-01
  1.692900E-01
  1.688666E-01
  1.684431E-01
  1.680197E-01
  1.675631E-01
  1.670726E-01
  1.665821E-01
  1.660916E-01
  1.656011E-01
  1.651106E-01
  1.645680E-01
  1.640184E-01
  1.634687E-01
  1.629191E-01
  1.623694E-01
  1.617908E-01
  1.611880E-01
  1.605853E-01
  1.599826E-01
  1.593798E-01
  1.587488E-01
  1.580870E-01
  1.574266E-01
  1.567647E-01
  1.561029E-01
  1.553950E-01
  1.546639E-01
  1.539328E-01
  1.532017E-01
  1.524650E-01
  1.516735E-01
  1.508820E-01
  1.500904E-01
  1.492989E-01
  1.484730E-01
  1.476355E-01
  1.467980E-01
  1.459605E-01
  1.450967E-01
  1.442169E-01
  1.433372E-01
  1.424574E-01
  1.415646E-01
  1.406662E-01
  1.397679E-01
  1.388697E-01
  1.379936E-01
  1.371181E-01
  1.362429E-01
  1.353783E-01
  1.345275E-01
  1.336772E-01
  1.328261E-01
  1.319615E-01
  1.310979E-01
  1.302343E-01
  1.293393E-01
  1.284415E-01
  1.275453E-01
  1.265955E-01
  1.256378E-01
  1.246820E-01
  1.236055E-01
  1.225268E-01
  1.214084E-01
  1.201512E-01
  1.188959E-01
  1.175130E-01
  1.160547E-01
  1.145653E-01
  1.129003E-01
  1.112365E-01
  1.094125E-01
  1.075512E-01
  1.055926E-01
  1.035630E-01
  1.014776E-01
  9.932648E-02
  9.714322E-02
  9.492014E-02
  9.268391E-02
  9.043634E-02
  8.820431E-02
  8.597864E-02
  8.382003E-02
  8.170179E-02
  7.965620E-02
  7.773172E-02
  7.589715E-02
  7.418950E-02
  7.267393E-02
  7.131205E-02
  7.013436E-02
  6.918807E-02
  6.859479E-02
  6.868170E-02
  7.000898E-02
  7.357011E-02
  8.085343E-02
  9.423295E-02
  1.108581E-01
  1.154076E-01
  1.245805E-01
 -2.089789E-04
  1.651714E-07
  9.725418E-01
  9.724075E-01
  9.722731E-01
  9.721388E-01
  9.720044E-01
  9.718701E-01
  9.717358E-01
  9.716014E-01
  9.714671E-01
  9.710783E-01
  9.706790E-01
  9.702796E-01
  9.698803E-01
  9.694810E-01
  9.690817E-01
  9.686824E-01
  9.682059E-01
  9.675676E-01
  9.669293E-01
  9.662909E-01
  9.656526E-01
  9.650143E-01
  9.643760E-01
  9.637214E-01
  9.628402E-01