 Title= "ADflow Lift Distribution Data"
Variables = "eta" "CoordinateX" "CoordinateY" "CoordinateZ" "Lift" "Drag" "Moment" "Normalized Lift" "Normalized Drag" "Normalized Moment" "CL" "CD" "CM" "CLp" "CDp" "CMp" "CLv" "CDv" "CMv" "Elliptical" "thickness" "twist" "chord" "fx" "fy" "fz" 
Zone T= "LiftDist_01 allWalls: : z normal"
 I=          150
 DATAPACKING=BLOCK
  0.000000E+00
  6.711405E-03
  1.342281E-02
  2.013422E-02
  2.684563E-02
  3.355704E-02
  4.026845E-02
  4.697986E-02
  5.369127E-02
  6.040268E-02
  6.711409E-02
  7.382550E-02
  8.053691E-02
  8.724832E-02
  9.395973E-02
  1.006711E-01
  1.073825E-01
  1.140940E-01
  1.208054E-01
  1.275168E-01
  1.342282E-01
  1.409396E-01
  1.476510E-01
  1.543624E-01
  1.610738E-01
  1.677852E-01
  1.744966E-01
  1.812081E-01
  1.879195E-01
  1.946309E-01
  2.013423E-01
  2.080537E-01
  2.147651E-01
  2.214765E-01
  2.281879E-01
  2.348993E-01
  2.416107E-01
  2.483221E-01
  2.550336E-01
  2.617450E-01
  2.684564E-01
  2.751678E-01
  2.818792E-01
  2.885906E-01
  2.953020E-01
  3.020134E-01
  3.087248E-01
  3.154362E-01
  3.221476E-01
  3.288591E-01
  3.355705E-01
  3.422819E-01
  3.489933E-01
  3.557047E-01
  3.624161E-01
  3.691275E-01
  3.758389E-01
  3.825503E-01
  3.892617E-01
  3.959732E-01
  4.026846E-01
  4.093960E-01
  4.161074E-01
  4.228188E-01
  4.295302E-01
  4.362416E-01
  4.429530E-01
  4.496644E-01
  4.563758E-01
  4.630872E-01
  4.697987E-01
  4.765101E-01
  4.832215E-01
  4.899329E-01
  4.966443E-01
  5.033557E-01
  5.100671E-01
  5.167785E-01
  5.234899E-01
  5.302013E-01
  5.369128E-01
  5.436242E-01
  5.503356E-01
  5.570470E-01
  5.637584E-01
  5.704698E-01
  5.771812E-01
  5.838926E-01
  5.906040E-01
  5.973154E-01
  6.040268E-01
  6.107383E-01
  6.174497E-01
  6.241611E-01
  6.308725E-01
  6.375839E-01
  6.442953E-01
  6.510067E-01
  6.577181E-01
  6.644295E-01
  6.711409E-01
  6.778524E-01
  6.845638E-01
  6.912752E-01
  6.979866E-01
  7.046980E-01
  7.114094E-01
  7.181208E-01
  7.248322E-01
  7.315436E-01
  7.382550E-01
  7.449664E-01
  7.516779E-01
  7.583893E-01
  7.651007E-01
  7.718121E-01
  7.785235E-01
  7.852349E-01
  7.919463E-01
  7.986577E-01
  8.053691E-01
  8.120805E-01
  8.187919E-01
  8.255034E-01
  8.322148E-01
  8.389262E-01
  8.456376E-01
  8.523490E-01
  8.590604E-01
  8.657718E-01
  8.724832E-01
  8.791946E-01
  8.859060E-01
  8.926175E-01
  8.993289E-01
  9.060403E-01
  9.127517E-01
  9.194631E-01
  9.261745E-01
  9.328859E-01
  9.395973E-01
  9.463087E-01
  9.530201E-01
  9.597315E-01
  9.664430E-01
  9.731544E-01
  9.798658E-01
  9.865772E-01
  9.932886E-01
  1.000000E+00
  0.000000E+00
  0.000000E+00
  0.000000E+00
  0.000000E+00
  0.000000E+00
  0.000000E+00
  0.000000E+00
  0.000000E+00
  0.000000E+00
  0.000000E+00
  0.000000E+00
  0.000000E+00
  0.000000E+00
  0.000000E+00
  0.000000E+00
  0.000000E+00
  0.000000E+00
  0.000000E+00
  0.000000E+00
  0.000000E+00
  0.000000E+00
  0.000000E+00
  0.000000E+00
  0.000000E+00
  0.000000E+00
  0.000000E+00
  0.000000E+00
  0.000000E+00
  0.000000E+00
  0.000000E+00
  0.000000E+00
  0.000000E+00
  0.000000E+00
  0.000000E+00
  0.000000E+00
  0.000000E+00
  0.000000E+00
  0.000000E+00
  0.000000E+00
  0.000000E+00
  0.000000E+00
  0.000000E+00
  0.000000E+00
  0.000000E+00
  0.000000E+00
  0.000000E+00
  0.000000E+00
  0.000000E+00
  0.000000E+00
  0.000000E+00
  0.000000E+00
  0.000000E+00
  0.000000E+00
  0.000000E+00
  0.000000E+00
  0.000000E+00
  0.000000E+00
  0.000000E+00
  0.000000E+00
  0.000000E+00
  0.000000E+00
  0.000000E+00
  0.000000E+00
  0.000000E+00
  0.000000E+00
  0.000000E+00
  0.000000E+00
  0.000000E+00
  0.000000E+00
  0.000000E+00
  0.000000E+00
  0.000000E+00
  0.000000E+00
  0.000000E+00
  0.000000E+00
  0.000000E+00
  0.000000E+00
  0.000000E+00
  0.000000E+00
  0.000000E+00
  0.000000E+00
  0.000000E+00
  0.000000E+00
  0.000000E+00
  0.000000E+00
  0.000000E+00
  0.000000E+00
  0.000000E+00
  0.000000E+00
  0.000000E+00
  0.000000E+00
  0.000000E+00
  0.000000E+00
  0.000000E+00
  0.000000E+00
  0.000000E+00
  0.000000E+00
  0.000000E+00
  0.000000E+00
  0.000000E+00
  0.000000E+00
  0.000000E+00
  0.000000E+00
  0.000000E+00
  0.000000E+00
  0.000000E+00
  0.000000E+00
  0.000000E+00
  0.000000E+00
  0.000000E+00
  0.000000E+00
  0.000000E+00
  0.000000E+00
  0.000000E+00
  0.000000E+00
  0.000000E+00
  0.000000E+00
  0.000000E+00
  0.000000E+00
  0.000000E+00
  0.000000E+00
  0.000000E+00
  0.000000E+00
  0.000000E+00
  0.000000E+00
  0.000000E+00
  0.000000E+00
  0.000000E+00
  0.000000E+00
  0.000000E+00
  0.000000E+00
  0.000000E+00
  0.000000E+00
  0.000000E+00
  0.000000E+00
  0.000000E+00
  0.000000E+00
  0.000000E+00
  0.000000E+00
  0.000000E+00
  0.000000E+00
  0.000000E+00
  0.000000E+00
  0.000000E+00
  0.000000E+00
  0.000000E+00
  0.000000E+00
  0.000000E+00
  0.000000E+00
  0.000000E+00
  0.000000E+00
  0.000000E+00
  0.000000E+00
  0.000000E+00
  0.000000E+00
  0.000000E+00
  0.000000E+00
  0.000000E+00
  0.000000E+00
  0.000000E+00
  0.000000E+00
  0.000000E+00
  0.000000E+00
  0.000000E+00
  0.000000E+00
  0.000000E+00
  0.000000E+00
  0.000000E+00
  0.000000E+00
  0.000000E+00
  0.000000E+00
  0.000000E+00
  0.000000E+00
  0.000000E+00
  0.000000E+00
  0.000000E+00
  0.000000E+00
  0.000000E+00
  0.000000E+00
  0.000000E+00
  0.000000E+00
  0.000000E+00
  0.000000E+00
  0.000000E+00
  0.000000E+00
  0.000000E+00
  0.000000E+00
  0.000000E+00
  0.000000E+00
  0.000000E+00
  0.000000E+00
  0.000000E+00
  0.000000E+00
  0.000000E+00
  0.000000E+00
  0.000000E+00
  0.000000E+00
  0.000000E+00
  0.000000E+00
  0.000000E+00
  0.000000E+00
  0.000000E+00
  0.000000E+00
  0.000000E+00
  0.000000E+00
  0.000000E+00
  0.000000E+00
  0.000000E+00
  0.000000E+00
  0.000000E+00
  0.000000E+00
  0.000000E+00
  0.000000E+00
  0.000000E+00
  0.000000E+00
  0.000000E+00
  0.000000E+00
  0.000000E+00
  0.000000E+00
  0.000000E+00
  0.000000E+00
  0.000000E+00
  0.000000E+00
  0.000000E+00
  0.000000E+00
  0.000000E+00
  0.000000E+00
  0.000000E+00
  0.000000E+00
  0.000000E+00
  0.000000E+00
  0.000000E+00
  0.000000E+00
  0.000000E+00
  0.000000E+00
  0.000000E+00
  0.000000E+00
  0.000000E+00
  0.000000E+00
  0.000000E+00
  0.000000E+00
  0.000000E+00
  0.000000E+00
  0.000000E+00
  0.000000E+00
  0.000000E+00
  0.000000E+00
  0.000000E+00
  0.000000E+00
  0.000000E+00
  0.000000E+00
  0.000000E+00
  0.000000E+00
  0.000000E+00
  0.000000E+00
  0.000000E+00
  0.000000E+00
  0.000000E+00
  0.000000E+00
  0.000000E+00
  0.000000E+00
  0.000000E+00
  0.000000E+00
  0.000000E+00
  0.000000E+00
  0.000000E+00
  0.000000E+00
  0.000000E+00
  0.000000E+00
  0.000000E+00
  0.000000E+00
  0.000000E+00
  0.000000E+00
  0.000000E+00
  0.000000E+00
  0.000000E+00
  0.000000E+00
  0.000000E+00
  0.000000E+00
  0.000000E+00
  0.000000E+00
  0.000000E+00
  0.000000E+00
  0.000000E+00
  0.000000E+00
  0.000000E+00
  0.000000E+00
  0.000000E+00
  0.000000E+00
  0.000000E+00
  0.000000E+00
  0.000000E+00
  0.000000E+00
  0.000000E+00
  0.000000E+00
  0.000000E+00
  0.000000E+00
  0.000000E+00
  0.000000E+00
  0.000000E+00
  1.000000E-08
  1.691809E-02
  3.383618E-02
  5.075427E-02
  6.767237E-02
  8.459046E-02
  1.015085E-01
  1.184266E-01
  1.353447E-01
  1.522628E-01
  1.691809E-01
  1.860990E-01
  2.030171E-01
  2.199352E-01
  2.368533E-01
  2.537714E-01
  2.706895E-01
  2.876076E-01
  3.045256E-01
  3.214437E-01
  3.383618E-01
  3.552799E-01
  3.721980E-01
  3.891161E-01
  4.060342E-01
  4.229523E-01
  4.398704E-01
  4.567885E-01
  4.737066E-01
  4.906247E-01
  5.075427E-01
  5.244608E-01
  5.413789E-01
  5.582970E-01
  5.752151E-01
  5.921332E-01
  6.090513E-01
  6.259694E-01
  6.428875E-01
  6.598056E-01
  6.767237E-01
  6.936418E-01
  7.105598E-01
  7.274779E-01
  7.443960E-01
  7.613141E-01
  7.782322E-01
  7.951503E-01
  8.120684E-01
  8.289865E-01
  8.459046E-01
  8.628227E-01
  8.797408E-01
  8.966589E-01
  9.135769E-01
  9.304950E-01
  9.474131E-01
  9.643312E-01
  9.812493E-01
  9.981674E-01
  1.015085E+00
  1.032004E+00
  1.048922E+00
  1.065840E+00
  1.082758E+00
  1.099676E+00
  1.116594E+00
  1.133512E+00
  1.150430E+00
  1.167348E+00
  1.184266E+00
  1.201185E+00
  1.218103E+00
  1.235021E+00
  1.251939E+00
  1.268857E+00
  1.285775E+00
  1.302693E+00
  1.319611E+00
  1.336529E+00
  1.353447E+00
  1.370365E+00
  1.387284E+00
  1.404202E+00
  1.421120E+00
  1.438038E+00
  1.454956E+00
  1.471874E+00
  1.488792E+00
  1.505710E+00
  1.522628E+00
  1.539546E+00
  1.556464E+00
  1.573383E+00
  1.590301E+00
  1.607219E+00
  1.624137E+00
  1.641055E+00
  1.657973E+00
  1.674891E+00
  1.691809E+00
  1.708727E+00
  1.725645E+00
  1.742563E+00
  1.759482E+00
  1.776400E+00
  1.793318E+00
  1.810236E+00
  1.827154E+00
  1.844072E+00
  1.860990E+00
  1.877908E+00
  1.894826E+00
  1.911744E+00
  1.928662E+00
  1.945581E+00
  1.962499E+00
  1.979417E+00
  1.996335E+00
  2.013253E+00
  2.030171E+00
  2.047089E+00
  2.064007E+00
  2.080925E+00
  2.097843E+00
  2.114761E+00
  2.131680E+00
  2.148598E+00
  2.165516E+00
  2.182434E+00
  2.199352E+00
  2.216270E+00
  2.233188E+00
  2.250106E+00
  2.267024E+00
  2.283942E+00
  2.300860E+00
  2.317779E+00
  2.334697E+00
  2.351615E+00
  2.368533E+00
  2.385451E+00
  2.402369E+00
  2.419287E+00
  2.436205E+00
  2.453123E+00
  2.470041E+00
  2.486959E+00
  2.503878E+00
  2.520796E+00
  1.137472E+04
  1.137296E+04
  1.137120E+04
  1.136943E+04
  1.136767E+04
  1.136590E+04
  1.136414E+04
  1.136238E+04
  1.136061E+04
  1.135552E+04
  1.135030E+04
  1.134508E+04
  1.133985E+04
  1.133463E+04
  1.132940E+04
  1.132418E+04
  1.131794E+04
  1.130958E+04
  1.130121E+04
  1.129285E+04
  1.128448E+04
  1.127612E+04
  1.126776E+04
  1.125918E+04
  1.124756E+04
  1.123594E+04
  1.122432E+04
  1.121271E+04
  1.120109E+04
  1.118947E+04
  1.117723E+04
  1.116202E+04
  1.114681E+04
  1.113160E+04
  1.111639E+04
  1.110119E+04
  1.108598E+04
  1.106829E+04
  1.104911E+04
  1.102993E+04
  1.101076E+04
  1.099158E+04
  1.097240E+04
  1.095144E+04
  1.092785E+04
  1.090425E+04
  1.088066E+04
  1.085707E+04
  1.083347E+04
  1.080738E+04
  1.077875E+04
  1.075011E+04
  1.072147E+04
  1.069283E+04
  1.066419E+04
  1.063038E+04
  1.059586E+04
  1.056135E+04
  1.052683E+04
  1.049232E+04
  1.045408E+04
  1.041275E+04
  1.037142E+04
  1.033010E+04
  1.028877E+04
  1.024371E+04
  1.019458E+04
  1.014546E+04
  1.009634E+04
  1.004723E+04
  9.992321E+03
  9.934505E+03
  9.876698E+03
  9.818900E+03
  9.760295E+03
  9.693695E+03
  9.627115E+03
  9.560555E+03
  9.494015E+03
  9.422018E+03
  9.348212E+03
  9.274440E+03
  9.200703E+03
  9.123847E+03
  9.045110E+03
  8.966416E+03
  8.887765E+03
  8.807050E+03
  8.725478E+03
  8.643950E+03
  8.562465E+03
  8.480157E+03
  8.397865E+03
  8.315612E+03
  8.233626E+03
  8.151967E+03
  8.070336E+03
  7.988796E+03
  7.908049E+03
  7.827320E+03
  7.746609E+03
  7.666682E+03
  7.586870E+03
  7.507070E+03
  7.428190E+03
  7.349482E+03
  7.270783E+03
  7.192854E+03
  7.114959E+03
  7.037123E+03
  6.959465E+03
  6.881815E+03
  6.803976E+03
  6.726028E+03
  6.647953E+03
  6.569160E+03
  6.490373E+03
  6.410487E+03
  6.330343E+03
  6.249174E+03
  6.167259E+03
  6.084373E+03
  6.000347E+03
  5.915263E+03
  5.828870E+03
  5.741138E+03
  5.652241E+03
  5.561482E+03
  5.469995E+03
  5.375866E+03
  5.280758E+03
  5.183892E+03
  5.084805E+03
  4.984240E+03
  4.881708E+03
  4.776508E+03
  4.669417E+03
  4.560397E+03
  4.449652E+03
  4.338154E+03
  4.230304E+03
  4.134755E+03
  4.064579E+03
  4.044049E+03
  4.138005E+03
  4.281236E+03
  4.092535E+03
  4.586969E+03
  8.505930E+02
  5.285308E-03
  6.700941E+02
  6.700366E+02
  6.699790E+02
  6.699214E+02
  6.698638E+02
  6.698063E+02
  6.697487E+02
  6.696911E+02
  6.696335E+02
  6.695220E+02
  6.694083E+02
  6.692945E+02
  6.691808E+02
  6.690671E+02
  6.689533E+02
  6.688396E+02
  6.687312E+02
  6.686342E+02
  6.685372E+02
  6.684401E+02
  6.683431E+02
  6.682461E+02
  6.681491E+02
  6.680492E+02
  6.679096E+02
  6.677701E+02
  6.676305E+02
  6.674909E+02
  6.673514E+02
  6.672118E+02
  6.670447E+02
  6.667468E+02
  6.664488E+02
  6.661508E+02
  6.658528E+02
  6.655548E+02
  6.652568E+02
  6.647971E+02
  6.642404E+02
  6.636837E+02
  6.631269E+02
  6.625702E+02
  6.620135E+02
  6.613097E+02
  6.603891E+02
  6.594685E+02
  6.585480E+02
  6.576274E+02
  6.567068E+02
  6.555502E+02
  6.541522E+02
  6.527542E+02
  6.513562E+02
  6.499582E+02
  6.485602E+02
  6.466226E+02
  6.446113E+02
  6.425999E+02
  6.405886E+02
  6.385772E+02
  6.361524E+02
  6.333842E+02
  6.306161E+02
  6.278480E+02
  6.250800E+02
  6.219094E+02
  6.183019E+02
  6.146951E+02
  6.110890E+02
  6.074836E+02
  6.032979E+02
  5.988228E+02
  5.943506E+02
  5.898812E+02
  5.853431E+02
  5.801096E+02
  5.748836E+02
  5.696650E+02
  5.644539E+02
  5.590666E+02
  5.536304E+02
  5.482077E+02
  5.427985E+02
  5.375910E+02
  5.325152E+02
  5.274569E+02
  5.224160E+02
  5.176762E+02
  5.130758E+02
  5.084934E+02
  5.039291E+02
  4.996515E+02
  4.953965E+02
  4.911572E+02
  4.869460E+02
  4.827633E+02
  4.785922E+02
  4.744059E+02
  4.698997E+02
  4.654005E+02
  4.609084E+02
  4.559670E+02
  4.509682E+02
  4.459729E+02
  4.407962E+02
  4.355877E+02
  4.303802E+02
  4.253006E+02
  4.202251E+02
  4.152268E+02
  4.104907E+02
  4.057533E+02
  4.013125E+02
  3.970473E+02
  3.928658E+02
  3.891452E+02
  3.854226E+02
  3.821490E+02
  3.789804E+02
  3.761203E+02
  3.734850E+02
  3.710728E+02
  3.689237E+02
  3.669627E+02
  3.652352E+02
  3.637176E+02
  3.623826E+02
  3.613382E+02
  3.604072E+02
  3.599169E+02
  3.596087E+02
  3.596285E+02
  3.601205E+02
  3.609545E+02
  3.622668E+02
  3.643376E+02
  3.670673E+02
  3.706283E+02
  3.752816E+02
  3.815985E+02
  3.908405E+02
  4.048666E+02
  4.268985E+02
  4.625853E+02
  5.238913E+02
  6.046003E+02
  6.546050E+02
  7.842520E+02
  2.862705E+02
  1.584221E-03
  1.978214E+03
  1.977961E+03
  1.977708E+03
  1.977455E+03
  1.977202E+03
  1.976949E+03
  1.976696E+03
  1.976443E+03
  1.976190E+03
  1.975514E+03
  1.974820E+03
  1.974127E+03
  1.973433E+03
  1.972740E+03
  1.972046E+03
  1.971352E+03
  1.970544E+03
  1.969492E+03
  1.968441E+03
  1.967390E+03
  1.966339E+03
  1.965288E+03
  1.964237E+03
  1.963154E+03
  1.961627E+03
  1.960099E+03
  1.958572E+03
  1.957045E+03
  1.955518E+03
  1.953991E+03
  1.952344E+03
  1.950129E+03
  1.947913E+03
  1.945697E+03
  1.943482E+03
  1.941266E+03
  1.939051E+03
  1.936254E+03
  1.933109E+03
  1.929964E+03
  1.926819E+03
  1.923674E+03
  1.920528E+03
  1.916893E+03
  1.912534E+03
  1.908175E+03
  1.903817E+03
  1.899458E+03
  1.895099E+03
  1.889989E+03
  1.884109E+03
  1.878230E+03
  1.872350E+03
  1.866471E+03
  1.860591E+03
  1.852951E+03
  1.845070E+03
  1.837189E+03
  1.829308E+03
  1.821428E+03
  1.812003E+03
  1.801296E+03
  1.790589E+03
  1.779882E+03
  1.769176E+03
  1.756638E+03
  1.742110E+03
  1.727583E+03
  1.713058E+03
  1.698534E+03
  1.680771E+03
  1.661385E+03
  1.642003E+03
  1.622626E+03
  1.602728E+03
  1.577695E+03
  1.552674E+03
  1.527665E+03
  1.502668E+03
  1.473904E+03
  1.443891E+03
  1.413900E+03
  1.383931E+03
  1.352207E+03
  1.319384E+03
  1.286592E+03
  1.253829E+03
  1.220647E+03
  1.187305E+03
  1.153994E+03
  1.120714E+03
  1.088672E+03
  1.056688E+03
  1.024731E+03
  9.941045E+02
  9.651779E+02
  9.362717E+02
  9.077009E+02
  8.830096E+02
  8.583306E+02
  8.336637E+02
  8.127781E+02
  7.924035E+02
  7.720355E+02
  7.547892E+02
  7.381040E+02
  7.214222E+02
  7.076492E+02
  6.939799E+02
  6.808616E+02
  6.696035E+02
  6.583462E+02
  6.482446E+02
  6.388307E+02
  6.296073E+02
  6.215335E+02
  6.134599E+02
  6.061359E+02
  5.989897E+02
  5.922270E+02
  5.857440E+02
  5.795207E+02
  5.736029E+02
  5.679354E+02
  5.625775E+02
  5.575434E+02
  5.527910E+02
  5.485423E+02
  5.444910E+02
  5.412660E+02
  5.383924E+02
  5.361509E+02
  5.348052E+02
  5.340957E+02
  5.342646E+02
  5.357878E+02
  5.384860E+02
  5.427041E+02
  5.490124E+02
  5.587955E+02
  5.755216E+02
  6.048617E+02
  6.567403E+02
  7.472990E+02
  9.077439E+02
  1.121270E+03
  1.237158E+03
  1.449669E+03
  3.676262E+01
  1.623935E-08
  1.291438E+00
  1.291237E+00
  1.291037E+00
  1.290837E+00
  1.290637E+00
  1.290436E+00
  1.290236E+00
  1.290036E+00
  1.289835E+00
  1.289258E+00
  1.288665E+00
  1.288072E+00
  1.287479E+00
  1.286885E+00
  1.286292E+00
  1.285699E+00
  1.284991E+00
  1.284041E+00
  1.283092E+00
  1.282142E+00
  1.281192E+00
  1.280243E+00
  1.279293E+00
  1.278319E+00
  1.277000E+00
  1.275681E+00
  1.274362E+00
  1.273043E+00
  1.271724E+00
  1.270405E+00
  1.269015E+00
  1.267288E+00
  1.265562E+00
  1.263835E+00
  1.262108E+00
  1.260381E+00
  1.258655E+00
  1.256646E+00
  1.254469E+00
  1.252292E+00
  1.250114E+00
  1.247937E+00
  1.245760E+00
  1.243380E+00
  1.240701E+00
  1.238022E+00
  1.235344E+00
  1.232665E+00
  1.229986E+00
  1.227024E+00
  1.223773E+00
  1.220521E+00
  1.217270E+00
  1.214018E+00
  1.210767E+00
  1.206928E+00
  1.203009E+00
  1.199090E+00
  1.195172E+00
  1.191253E+00
  1.186912E+00
  1.182219E+00
  1.177527E+00
  1.172835E+00
  1.168143E+00
  1.163027E+00
  1.157449E+00
  1.151872E+00
  1.146296E+00
  1.140720E+00
  1.134486E+00
  1.127921E+00
  1.121358E+00
  1.114796E+00
  1.108142E+00
  1.100581E+00
  1.093022E+00
  1.085465E+00
  1.077910E+00
  1.069736E+00
  1.061356E+00
  1.052980E+00
  1.044609E+00
  1.035883E+00
  1.026943E+00
  1.018009E+00
  1.009079E+00
  9.999150E-01
  9.906536E-01
  9.813973E-01
  9.721459E-01
  9.628009E-01
  9.534579E-01
  9.441192E-01
  9.348108E-01
  9.255396E-01
  9.162716E-01
  9.070139E-01
  8.978463E-01
  8.886806E-01
  8.795170E-01
  8.704424E-01
  8.613809E-01
  8.523207E-01
  8.433650E-01
  8.344289E-01
  8.254938E-01
  8.166460E-01
  8.078022E-01
  7.989650E-01
  7.901481E-01
  7.813320E-01
  7.724945E-01
  7.636446E-01
  7.547802E-01
  7.458345E-01
  7.368894E-01
  7.278194E-01
  7.187202E-01
  7.095046E-01
  7.002043E-01
  6.907939E-01
  6.812538E-01
  6.715938E-01
  6.617851E-01
  6.518244E-01
  6.417314E-01
  6.314270E-01
  6.210399E-01
  6.103529E-01
  5.995548E-01
  5.885570E-01
  5.773071E-01
  5.658893E-01
  5.542484E-01
  5.423044E-01
  5.301457E-01
  5.177680E-01
  5.051946E-01
  4.925356E-01
  4.802907E-01
  4.694425E-01
  4.614749E-01
  4.591441E-01
  4.698115E-01
  4.860733E-01
  4.646490E-01
  5.207850E-01
  9.657271E-02
  6.000713E-07
  1.220496E+00
  1.220391E+00
  1.220286E+00
  1.220181E+00
  1.220076E+00
  1.219972E+00
  1.219867E+00
  1.219762E+00
  1.219657E+00
  1.219454E+00
  1.219247E+00
  1.219040E+00
  1.218832E+00
  1.218625E+00
  1.218418E+00
  1.218211E+00
  1.218014E+00
  1.217837E+00
  1.217660E+00
  1.217483E+00
  1.217307E+00
  1.217130E+00
  1.216953E+00
  1.216771E+00
  1.216517E+00
  1.216263E+00
  1.216009E+00
  1.215755E+00
  1.215500E+00
  1.215246E+00
  1.214942E+00
  1.214399E+00
  1.213856E+00
  1.213314E+00
  1.212771E+00
  1.212228E+00
  1.211685E+00
  1.210848E+00
  1.209834E+00
  1.208820E+00
  1.207806E+00
  1.206792E+00
  1.205778E+00
  1.204496E+00
  1.202819E+00
  1.201143E+00
  1.199466E+00
  1.197789E+00
  1.196113E+00
  1.194006E+00
  1.191460E+00
  1.188913E+00
  1.186367E+00
  1.183821E+00
  1.181275E+00
  1.177745E+00
  1.174082E+00
  1.170419E+00
  1.166755E+00
  1.163092E+00
  1.158675E+00
  1.153633E+00
  1.148591E+00
  1.143550E+00
  1.138508E+00
  1.132733E+00
  1.126163E+00
  1.119593E+00
  1.113025E+00
  1.106458E+00
  1.098835E+00
  1.090684E+00
  1.082538E+00
  1.074398E+00
  1.066132E+00
  1.056600E+00
  1.047081E+00
  1.037576E+00
  1.028085E+00
  1.018273E+00
  1.008371E+00
  9.984945E-01
  9.886423E-01
  9.791575E-01
  9.699125E-01
  9.606994E-01
  9.515180E-01
  9.428849E-01
  9.345058E-01
  9.261597E-01
  9.178463E-01
  9.100552E-01
  9.023052E-01
  8.945839E-01
  8.869137E-01
  8.792954E-01
  8.716983E-01
  8.640734E-01
  8.558659E-01
  8.476711E-01
  8.394892E-01
  8.304891E-01
  8.213845E-01
  8.122861E-01
  8.028574E-01
  7.933706E-01
  7.838858E-01
  7.746340E-01
  7.653895E-01
  7.562858E-01
  7.476595E-01
  7.390309E-01
  7.309425E-01
  7.231739E-01
  7.155579E-01
  7.087812E-01
  7.020010E-01
  6.960385E-01
  6.902672E-01
  6.850580E-01
  6.802580E-01
  6.758646E-01
  6.719502E-01
  6.683785E-01
  6.652321E-01
  6.624680E-01
  6.600363E-01
  6.581341E-01
  6.564383E-01
  6.555454E-01
  6.549841E-01
  6.550202E-01
  6.559161E-01
  6.574353E-01
  6.598254E-01
  6.635972E-01
  6.685689E-01
  6.750549E-01
  6.835304E-01
  6.950357E-01
  7.118689E-01
  7.374159E-01
  7.775442E-01
  8.425436E-01
  9.542051E-01
  1.101207E+00
  1.192284E+00
  1.428421E+00
  5.214073E-01
  2.885469E-06
  1.447785E+00
  1.447600E+00
  1.447415E+00
  1.447230E+00
  1.447044E+00
  1.446859E+00
  1.446674E+00
  1.446489E+00
  1.446304E+00
  1.445809E+00
  1.445302E+00
  1.444794E+00
  1.444286E+00
  1.443779E+00
  1.443271E+00
  1.442763E+00
  1.442171E+00
  1.441402E+00
  1.440633E+00
  1.439864E+00
  1.439094E+00
  1.438325E+00
  1.437556E+00
  1.436763E+00
  1.435645E+00
  1.434528E+00
  1.433410E+00
  1.432292E+00
  1.431175E+00
  1.430057E+00
  1.428852E+00
  1.427230E+00
  1.425609E+00
  1.423987E+00
  1.422366E+00
  1.420744E+00
  1.419123E+00
  1.417076E+00
  1.414774E+00
  1.412473E+00
  1.410171E+00
  1.407869E+00
  1.405567E+00
  1.402906E+00
  1.399716E+00
  1.396526E+00
  1.393336E+00
  1.390146E+00
  1.386956E+00
  1.383216E+00
  1.378913E+00
  1.374610E+00
  1.370307E+00
  1.366004E+00
  1.361701E+00
  1.356109E+00
  1.350342E+00
  1.344574E+00
  1.338806E+00
  1.333039E+00
  1.326141E+00
  1.318305E+00
  1.310469E+00
  1.302633E+00
  1.294798E+00
  1.285621E+00
  1.274989E+00
  1.264357E+00
  1.253727E+00
  1.243097E+00
  1.230097E+00
  1.215909E+00
  1.201724E+00
  1.187543E+00
  1.172981E+00
  1.154659E+00
  1.136347E+00
  1.118044E+00
  1.099750E+00
  1.078699E+00
  1.056733E+00
  1.034784E+00
  1.012851E+00
  9.896325E-01
  9.656110E-01
  9.416114E-01
  9.176333E-01
  8.933485E-01
  8.689465E-01
  8.445675E-01
  8.202110E-01
  7.967604E-01
  7.733526E-01
  7.499648E-01
  7.275500E-01
  7.063797E-01
  6.852243E-01
  6.643144E-01
  6.462436E-01
  6.281819E-01
  6.101291E-01
  5.948436E-01
  5.799322E-01
  5.650256E-01
  5.524036E-01
  5.401923E-01
  5.279835E-01
  5.179035E-01
  5.078995E-01
  4.982986E-01
  4.900592E-01
  4.818204E-01
  4.744274E-01
  4.675377E-01
  4.607874E-01
  4.548784E-01
  4.489697E-01
  4.436095E-01
  4.383795E-01
  4.334301E-01
  4.286854E-01
  4.241308E-01
  4.197998E-01
  4.156519E-01
  4.117306E-01
  4.080464E-01
  4.045682E-01
  4.014588E-01
  3.984938E-01
  3.961335E-01
  3.940304E-01
  3.923899E-01
  3.914051E-01
  3.908858E-01
  3.910095E-01
  3.921242E-01
  3.940989E-01
  3.971860E-01
  4.018028E-01
  4.089627E-01
  4.212040E-01
  4.426770E-01
  4.806451E-01
  5.469218E-01
  6.643458E-01
  8.206178E-01
  9.054325E-01
  1.060962E+00
  2.690527E-02
  1.188501E-11
  1.007239E+00
  1.007083E+00
  1.006927E+00
  1.006771E+00
  1.006614E+00
  1.006458E+00
  1.006302E+00
  1.006146E+00
  1.005989E+00
  1.005539E+00
  1.005076E+00
  1.004614E+00
  1.004151E+00
  1.003689E+00
  1.003226E+00
  1.002763E+00
  1.002211E+00
  1.001470E+00
  1.000730E+00
  9.999891E-01
  9.992484E-01
  9.985078E-01
  9.977671E-01
  9.970072E-01
  9.959785E-01
  9.949498E-01
  9.939211E-01
  9.928924E-01
  9.918637E-01
  9.908350E-01
  9.897511E-01
  9.884043E-01
  9.870575E-01
  9.857108E-01
  9.843640E-01
  9.830173E-01
  9.816705E-01
  9.801041E-01
  9.784060E-01
  9.767079E-01
  9.750098E-01
  9.733117E-01
  9.716136E-01
  9.697574E-01
  9.676683E-01
  9.655791E-01
  9.634899E-01
  9.614008E-01
  9.593116E-01
  9.570016E-01
  9.544657E-01
  9.519297E-01
  9.493938E-01
  9.468579E-01
  9.443219E-01
  9.413281E-01
  9.382719E-01
  9.352156E-01
  9.321594E-01
  9.291031E-01
  9.257173E-01
  9.220578E-01
  9.183984E-01
  9.147390E-01
  9.110798E-01
  9.070896E-01
  9.027398E-01
  8.983903E-01
  8.940411E-01
  8.896922E-01
  8.848302E-01
  8.797107E-01
  8.745921E-01
  8.694743E-01
  8.642850E-01
  8.583877E-01
  8.524921E-01
  8.465983E-01
  8.407063E-01
  8.343311E-01
  8.277955E-01
  8.212631E-01
  8.147336E-01
  8.079279E-01
  8.009556E-01
  7.939871E-01
  7.870223E-01
  7.798748E-01
  7.726513E-01
  7.654317E-01
  7.582160E-01
  7.509273E-01
  7.436401E-01
  7.363563E-01
  7.290962E-01
  7.218651E-01
  7.146365E-01
  7.074160E-01
  7.002659E-01
  6.931172E-01
  6.859702E-01
  6.788927E-01
  6.718254E-01
  6.647591E-01
  6.577744E-01
  6.508049E-01
  6.438362E-01
  6.369356E-01
  6.300381E-01
  6.231457E-01
  6.162691E-01
  6.093931E-01
  6.025005E-01
  5.955981E-01
  5.886844E-01
  5.817072E-01
  5.747305E-01
  5.676564E-01
  5.605595E-01
  5.533718E-01
  5.461181E-01
  5.387784E-01
  5.313377E-01
  5.238034E-01
  5.161531E-01
  5.083843E-01
  5.005123E-01
  4.924755E-01
  4.843741E-01
  4.760389E-01
  4.676169E-01
  4.590393E-01
  4.502651E-01
  4.413599E-01
  4.322806E-01
  4.229650E-01
  4.134819E-01
  4.038281E-01
  3.940215E-01
  3.841482E-01
  3.745980E-01
  3.661370E-01
  3.599228E-01
  3.581049E-01
  3.664248E-01
  3.791080E-01
  3.623984E-01
  4.061811E-01
  9.217978E-02
  3.842953E-02
  5.933727E-02
  5.933217E-02
  5.932707E-02
  5.932197E-02
  5.931688E-02
  5.931178E-02
  5.930668E-02
  5.930158E-02
  5.929648E-02
  5.928661E-02
  5.927654E-02
  5.926646E-02
  5.925639E-02
  5.924632E-02
  5.923625E-02
  5.922618E-02
  5.921658E-02
  5.920799E-02
  5.919940E-02
  5.919081E-02
  5.918222E-02
  5.917362E-02
  5.916503E-02
  5.915619E-02
  5.914383E-02
  5.913147E-02
  5.911911E-02
  5.910676E-02
  5.909440E-02
  5.908204E-02
  5.906725E-02
  5.904086E-02
  5.901448E-02
  5.898809E-02
  5.896170E-02
  5.893532E-02
  5.890893E-02
  5.886822E-02
  5.881893E-02
  5.876963E-02
  5.872033E-02
  5.867104E-02
  5.862174E-02
  5.855942E-02
  5.847791E-02
  5.839639E-02
  5.831488E-02
  5.823336E-02
  5.815185E-02
  5.804944E-02
  5.792565E-02
  5.780186E-02
  5.767807E-02
  5.755428E-02
  5.743049E-02
  5.725892E-02
  5.708083E-02
  5.690273E-02
  5.672463E-02
  5.654653E-02
  5.633182E-02
  5.608671E-02
  5.584160E-02
  5.559649E-02
  5.535139E-02
  5.507065E-02
  5.475121E-02
  5.443184E-02
  5.411253E-02
  5.379327E-02
  5.342265E-02
  5.302639E-02
  5.263038E-02
  5.223462E-02
  5.183278E-02
  5.136936E-02
  5.090661E-02
  5.044451E-02
  4.998306E-02
  4.950602E-02
  4.902464E-02
  4.854447E-02
  4.806548E-02
  4.760435E-02
  4.715488E-02
  4.670695E-02
  4.626057E-02
  4.584084E-02
  4.543346E-02
  4.502768E-02
  4.462349E-02
  4.424470E-02
  4.386790E-02
  4.349250E-02
  4.311958E-02
  4.274920E-02
  4.237984E-02
  4.200913E-02
  4.161010E-02
  4.121169E-02
  4.081391E-02
  4.037636E-02
  3.993372E-02
  3.949139E-02
  3.903299E-02
  3.857178E-02
  3.811066E-02
  3.766087E-02
  3.721143E-02
  3.676883E-02
  3.634945E-02
  3.592995E-02
  3.553672E-02
  3.515903E-02
  3.478875E-02
  3.445928E-02
  3.412965E-02
  3.383976E-02
  3.355917E-02
  3.330591E-02
  3.307254E-02
  3.285894E-02
  3.266862E-02
  3.249497E-02
  3.234200E-02
  3.220761E-02
  3.208939E-02
  3.199690E-02
  3.191446E-02
  3.187104E-02
  3.184375E-02
  3.184550E-02
  3.188906E-02
  3.196292E-02
  3.207912E-02
  3.226249E-02
  3.250420E-02
  3.281954E-02
  3.323160E-02
  3.379096E-02
  3.460934E-02
  3.585137E-02
  3.780232E-02
  4.096243E-02
  4.639114E-02
  5.353801E-02
  5.796598E-02
  6.944636E-02
  3.102348E-02
  1.151889E-02
  1.751721E-01
  1.751497E-01
  1.751273E-01
  1.751049E-01
  1.750825E-01
  1.750601E-01
  1.750377E-01
  1.750153E-01
  1.749929E-01
  1.749331E-01
  1.748716E-01
  1.748102E-01
  1.747488E-01
  1.746874E-01
  1.746260E-01
  1.745645E-01
  1.744929E-01
  1.743998E-01
  1.743067E-01
  1.742137E-01
  1.741206E-01
  1.740275E-01
  1.739344E-01
  1.738385E-01
  1.737033E-01
  1.735681E-01
  1.734329E-01
  1.732976E-01
  1.731624E-01
  1.730272E-01
  1.728813E-01
  1.726852E-01
  1.724890E-01
  1.722928E-01
  1.720966E-01
  1.719004E-01
  1.717042E-01
  1.714566E-01
  1.711781E-01
  1.708996E-01
  1.706211E-01
  1.703426E-01
  1.700641E-01
  1.697421E-01
  1.693562E-01
  1.689702E-01
  1.685843E-01
  1.681983E-01
  1.678124E-01
  1.673598E-01
  1.668392E-01
  1.663186E-01
  1.657980E-01
  1.652773E-01
  1.647567E-01
  1.640802E-01
  1.633824E-01
  1.626846E-01
  1.619867E-01
  1.612889E-01
  1.604544E-01
  1.595063E-01
  1.585582E-01
  1.576102E-01
  1.566621E-01
  1.555519E-01
  1.542655E-01
  1.529791E-01
  1.516930E-01
  1.504069E-01
  1.488340E-01
  1.471173E-01
  1.454011E-01
  1.436853E-01
  1.419234E-01
  1.397067E-01
  1.374911E-01
  1.352765E-01
  1.330630E-01
  1.305160E-01
  1.278583E-01
  1.252026E-01
  1.225488E-01
  1.197396E-01
  1.168331E-01
  1.139293E-01
  1.110281E-01
  1.080897E-01
  1.051372E-01
  1.021875E-01
  9.924048E-02
  9.640308E-02
  9.357086E-02
  9.074106E-02
  8.802899E-02
  8.546751E-02
  8.290783E-02
  8.037784E-02
  7.819140E-02
  7.600606E-02
  7.382178E-02
  7.197235E-02
  7.016817E-02
  6.836458E-02
  6.683741E-02
  6.535994E-02
  6.388276E-02
  6.266316E-02
  6.145274E-02
  6.029111E-02
  5.929420E-02
  5.829737E-02
  5.740286E-02
  5.656924E-02
  5.575251E-02
  5.503755E-02
  5.432262E-02
  5.367407E-02
  5.304126E-02
  5.244241E-02
  5.186832E-02
  5.131724E-02
  5.079321E-02
  5.029133E-02
  4.981688E-02
  4.937110E-02
  4.895026E-02
  4.857403E-02
  4.821528E-02
  4.792970E-02
  4.767524E-02
  4.747675E-02
  4.735758E-02
  4.729476E-02
  4.730971E-02
  4.744459E-02
  4.768352E-02
  4.805704E-02
  4.861564E-02
  4.948195E-02
  5.096306E-02
  5.356116E-02
  5.815506E-02
  6.617413E-02
  8.038170E-02
  9.928963E-02
  1.095517E-01
  1.283698E-01
  3.984009E-03
  1.180765E-07
  1.007497E+00
  1.007341E+00
  1.007184E+00
  1.007028E+00
  1.006872E+00
  1.006716E+00
  1.006560E+00
  1.006403E+00
  1.006247E+00
  1.005797E+00
  1.005334E+00
  1.004872E+00
  1.004409E+00
  1.003946E+00
  1.003484E+00
  1.003021E+00
  1.002469E+00
  1.001728E+00
  1.000988E+00
  1.000247E+00
  9.995065E-01
  9.987659E-01
  9.980253E-01
  9.972655E-01
  9.962369E-01