 Title= "ADflow Lift Distribution Data"
Variables = "eta" "CoordinateX" "CoordinateY" "CoordinateZ" "Lift" "Drag" "Moment" "Normalized Lift" "Normalized Drag" "Normalized Moment" "CL" "CD" "CM" "CLp" "CDp" "CMp" "CLv" "CDv" "CMv" "Elliptical" "thickness" "twist" "chord" "fx" "fy" "fz" 
Zone T= "LiftDist_01 allWalls: : z normal"
 I=          150
 DATAPACKING=BLOCK
  0.000000E+00
  6.711405E-03
  1.342281E-02
  2.013422E-02
  2.684563E-02
  3.355704E-02
  4.026845E-02
  4.697986E-02
  5.369127E-02
  6.040268E-02
  6.711409E-02
  7.382550E-02
  8.053691E-02
  8.724832E-02
  9.395973E-02
  1.006711E-01
  1.073825E-01
  1.140940E-01
  1.208054E-01
  1.275168E-01
  1.342282E-01
  1.409396E-01
  1.476510E-01
  1.543624E-01
  1.610738E-01
  1.677852E-01
  1.744966E-01
  1.812081E-01
  1.879195E-01
  1.946309E-01
  2.013423E-01
  2.080537E-01
  2.147651E-01
  2.214765E-01
  2.281879E-01
  2.348993E-01
  2.416107E-01
  2.483221E-01
  2.550336E-01
  2.617450E-01
  2.684564E-01
  2.751678E-01
  2.818792E-01
  2.885906E-01
  2.953020E-01
  3.020134E-01
  3.087248E-01
  3.154362E-01
  3.221476E-01
  3.288591E-01
  3.355705E-01
  3.422819E-01
  3.489933E-01
  3.557047E-01
  3.624161E-01
  3.691275E-01
  3.758389E-01
  3.825503E-01
  3.892617E-01
  3.959732E-01
  4.026846E-01
  4.093960E-01
  4.161074E-01
  4.228188E-01
  4.295302E-01
  4.362416E-01
  4.429530E-01
  4.496644E-01
  4.563758E-01
  4.630872E-01
  4.697987E-01
  4.765101E-01
  4.832215E-01
  4.899329E-01
  4.966443E-01
  5.033557E-01
  5.100671E-01
  5.167785E-01
  5.234899E-01
  5.302013E-01
  5.369128E-01
  5.436242E-01
  5.503356E-01
  5.570470E-01
  5.637584E-01
  5.704698E-01
  5.771812E-01
  5.838926E-01
  5.906040E-01
  5.973154E-01
  6.040268E-01
  6.107383E-01
  6.174497E-01
  6.241611E-01
  6.308725E-01
  6.375839E-01
  6.442953E-01
  6.510067E-01
  6.577181E-01
  6.644295E-01
  6.711409E-01
  6.778524E-01
  6.845638E-01
  6.912752E-01
  6.979866E-01
  7.046980E-01
  7.114094E-01
  7.181208E-01
  7.248322E-01
  7.315436E-01
  7.382550E-01
  7.449664E-01
  7.516779E-01
  7.583893E-01
  7.651007E-01
  7.718121E-01
  7.785235E-01
  7.852349E-01
  7.919463E-01
  7.986577E-01
  8.053691E-01
  8.120805E-01
  8.187919E-01
  8.255034E-01
  8.322148E-01
  8.389262E-01
  8.456376E-01
  8.523490E-01
  8.590604E-01
  8.657718E-01
  8.724832E-01
  8.791946E-01
  8.859060E-01
  8.926175E-01
  8.993289E-01
  9.060403E-01
  9.127517E-01
  9.194631E-01
  9.261745E-01
  9.328859E-01
  9.395973E-01
  9.463087E-01
  9.530201E-01
  9.597315E-01
  9.664430E-01
  9.731544E-01
  9.798658E-01
  9.865772E-01
  9.932886E-01
  1.000000E+00
  0.000000E+00
  0.000000E+00
  0.000000E+00
  0.000000E+00
  0.000000E+00
  0.000000E+00
  0.000000E+00
  0.000000E+00
  0.000000E+00
  0.000000E+00
  0.000000E+00
  0.000000E+00
  0.000000E+00
  0.000000E+00
  0.000000E+00
  0.000000E+00
  0.000000E+00
  0.000000E+00
  0.000000E+00
  0.000000E+00
  0.000000E+00
  0.000000E+00
  0.000000E+00
  0.000000E+00
  0.000000E+00
  0.000000E+00
  0.000000E+00
  0.000000E+00
  0.000000E+00
  0.000000E+00
  0.000000E+00
  0.000000E+00
  0.000000E+00
  0.000000E+00
  0.000000E+00
  0.000000E+00
  0.000000E+00
  0.000000E+00
  0.000000E+00
  0.000000E+00
  0.000000E+00
  0.000000E+00
  0.000000E+00
  0.000000E+00
  0.000000E+00
  0.000000E+00
  0.000000E+00
  0.000000E+00
  0.000000E+00
  0.000000E+00
  0.000000E+00
  0.000000E+00
  0.000000E+00
  0.000000E+00
  0.000000E+00
  0.000000E+00
  0.000000E+00
  0.000000E+00
  0.000000E+00
  0.000000E+00
  0.000000E+00
  0.000000E+00
  0.000000E+00
  0.000000E+00
  0.000000E+00
  0.000000E+00
  0.000000E+00
  0.000000E+00
  0.000000E+00
  0.000000E+00
  0.000000E+00
  0.000000E+00
  0.000000E+00
  0.000000E+00
  0.000000E+00
  0.000000E+00
  0.000000E+00
  0.000000E+00
  0.000000E+00
  0.000000E+00
  0.000000E+00
  0.000000E+00
  0.000000E+00
  0.000000E+00
  0.000000E+00
  0.000000E+00
  0.000000E+00
  0.000000E+00
  0.000000E+00
  0.000000E+00
  0.000000E+00
  0.000000E+00
  0.000000E+00
  0.000000E+00
  0.000000E+00
  0.000000E+00
  0.000000E+00
  0.000000E+00
  0.000000E+00
  0.000000E+00
  0.000000E+00
  0.000000E+00
  0.000000E+00
  0.000000E+00
  0.000000E+00
  0.000000E+00
  0.000000E+00
  0.000000E+00
  0.000000E+00
  0.000000E+00
  0.000000E+00
  0.000000E+00
  0.000000E+00
  0.000000E+00
  0.000000E+00
  0.000000E+00
  0.000000E+00
  0.000000E+00
  0.000000E+00
  0.000000E+00
  0.000000E+00
  0.000000E+00
  0.000000E+00
  0.000000E+00
  0.000000E+00
  0.000000E+00
  0.000000E+00
  0.000000E+00
  0.000000E+00
  0.000000E+00
  0.000000E+00
  0.000000E+00
  0.000000E+00
  0.000000E+00
  0.000000E+00
  0.000000E+00
  0.000000E+00
  0.000000E+00
  0.000000E+00
  0.000000E+00
  0.000000E+00
  0.000000E+00
  0.000000E+00
  0.000000E+00
  0.000000E+00
  0.000000E+00
  0.000000E+00
  0.000000E+00
  0.000000E+00
  0.000000E+00
  0.000000E+00
  0.000000E+00
  0.000000E+00
  0.000000E+00
  0.000000E+00
  0.000000E+00
  0.000000E+00
  0.000000E+00
  0.000000E+00
  0.000000E+00
  0.000000E+00
  0.000000E+00
  0.000000E+00
  0.000000E+00
  0.000000E+00
  0.000000E+00
  0.000000E+00
  0.000000E+00
  0.000000E+00
  0.000000E+00
  0.000000E+00
  0.000000E+00
  0.000000E+00
  0.000000E+00
  0.000000E+00
  0.000000E+00
  0.000000E+00
  0.000000E+00
  0.000000E+00
  0.000000E+00
  0.000000E+00
  0.000000E+00
  0.000000E+00
  0.000000E+00
  0.000000E+00
  0.000000E+00
  0.000000E+00
  0.000000E+00
  0.000000E+00
  0.000000E+00
  0.000000E+00
  0.000000E+00
  0.000000E+00
  0.000000E+00
  0.000000E+00
  0.000000E+00
  0.000000E+00
  0.000000E+00
  0.000000E+00
  0.000000E+00
  0.000000E+00
  0.000000E+00
  0.000000E+00
  0.000000E+00
  0.000000E+00
  0.000000E+00
  0.000000E+00
  0.000000E+00
  0.000000E+00
  0.000000E+00
  0.000000E+00
  0.000000E+00
  0.000000E+00
  0.000000E+00
  0.000000E+00
  0.000000E+00
  0.000000E+00
  0.000000E+00
  0.000000E+00
  0.000000E+00
  0.000000E+00
  0.000000E+00
  0.000000E+00
  0.000000E+00
  0.000000E+00
  0.000000E+00
  0.000000E+00
  0.000000E+00
  0.000000E+00
  0.000000E+00
  0.000000E+00
  0.000000E+00
  0.000000E+00
  0.000000E+00
  0.000000E+00
  0.000000E+00
  0.000000E+00
  0.000000E+00
  0.000000E+00
  0.000000E+00
  0.000000E+00
  0.000000E+00
  0.000000E+00
  0.000000E+00
  0.000000E+00
  0.000000E+00
  0.000000E+00
  0.000000E+00
  0.000000E+00
  0.000000E+00
  0.000000E+00
  0.000000E+00
  0.000000E+00
  0.000000E+00
  0.000000E+00
  0.000000E+00
  0.000000E+00
  0.000000E+00
  0.000000E+00
  0.000000E+00
  0.000000E+00
  0.000000E+00
  0.000000E+00
  0.000000E+00
  0.000000E+00
  0.000000E+00
  0.000000E+00
  0.000000E+00
  0.000000E+00
  0.000000E+00
  0.000000E+00
  0.000000E+00
  0.000000E+00
  0.000000E+00
  0.000000E+00
  0.000000E+00
  0.000000E+00
  0.000000E+00
  0.000000E+00
  0.000000E+00
  0.000000E+00
  0.000000E+00
  0.000000E+00
  0.000000E+00
  0.000000E+00
  0.000000E+00
  0.000000E+00
  0.000000E+00
  0.000000E+00
  0.000000E+00
  0.000000E+00
  0.000000E+00
  0.000000E+00
  0.000000E+00
  0.000000E+00
  0.000000E+00
  0.000000E+00
  0.000000E+00
  0.000000E+00
  0.000000E+00
  1.000000E-08
  1.691809E-02
  3.383618E-02
  5.075427E-02
  6.767237E-02
  8.459046E-02
  1.015085E-01
  1.184266E-01
  1.353447E-01
  1.522628E-01
  1.691809E-01
  1.860990E-01
  2.030171E-01
  2.199352E-01
  2.368533E-01
  2.537714E-01
  2.706895E-01
  2.876076E-01
  3.045256E-01
  3.214437E-01
  3.383618E-01
  3.552799E-01
  3.721980E-01
  3.891161E-01
  4.060342E-01
  4.229523E-01
  4.398704E-01
  4.567885E-01
  4.737066E-01
  4.906247E-01
  5.075427E-01
  5.244608E-01
  5.413789E-01
  5.582970E-01
  5.752151E-01
  5.921332E-01
  6.090513E-01
  6.259694E-01
  6.428875E-01
  6.598056E-01
  6.767237E-01
  6.936418E-01
  7.105598E-01
  7.274779E-01
  7.443960E-01
  7.613141E-01
  7.782322E-01
  7.951503E-01
  8.120684E-01
  8.289865E-01
  8.459046E-01
  8.628227E-01
  8.797408E-01
  8.966589E-01
  9.135769E-01
  9.304950E-01
  9.474131E-01
  9.643312E-01
  9.812493E-01
  9.981674E-01
  1.015085E+00
  1.032004E+00
  1.048922E+00
  1.065840E+00
  1.082758E+00
  1.099676E+00
  1.116594E+00
  1.133512E+00
  1.150430E+00
  1.167348E+00
  1.184266E+00
  1.201185E+00
  1.218103E+00
  1.235021E+00
  1.251939E+00
  1.268857E+00
  1.285775E+00
  1.302693E+00
  1.319611E+00
  1.336529E+00
  1.353447E+00
  1.370365E+00
  1.387284E+00
  1.404202E+00
  1.421120E+00
  1.438038E+00
  1.454956E+00
  1.471874E+00
  1.488792E+00
  1.505710E+00
  1.522628E+00
  1.539546E+00
  1.556464E+00
  1.573383E+00
  1.590301E+00
  1.607219E+00
  1.624137E+00
  1.641055E+00
  1.657973E+00
  1.674891E+00
  1.691809E+00
  1.708727E+00
  1.725645E+00
  1.742563E+00
  1.759482E+00
  1.776400E+00
  1.793318E+00
  1.810236E+00
  1.827154E+00
  1.844072E+00
  1.860990E+00
  1.877908E+00
  1.894826E+00
  1.911744E+00
  1.928662E+00
  1.945581E+00
  1.962499E+00
  1.979417E+00
  1.996335E+00
  2.013253E+00
  2.030171E+00
  2.047089E+00
  2.064007E+00
  2.080925E+00
  2.097843E+00
  2.114761E+00
  2.131680E+00
  2.148598E+00
  2.165516E+00
  2.182434E+00
  2.199352E+00
  2.216270E+00
  2.233188E+00
  2.250106E+00
  2.267024E+00
  2.283942E+00
  2.300860E+00
  2.317779E+00
  2.334697E+00
  2.351615E+00
  2.368533E+00
  2.385451E+00
  2.402369E+00
  2.419287E+00
  2.436205E+00
  2.453123E+00
  2.470041E+00
  2.486959E+00
  2.503878E+00
  2.520796E+00
  1.097232E+04
  1.097083E+04
  1.096934E+04
  1.096785E+04
  1.096636E+04
  1.096487E+04
  1.096338E+04
  1.096189E+04
  1.096039E+04
  1.095609E+04
  1.095167E+04
  1.094724E+04
  1.094282E+04
  1.093840E+04
  1.093398E+04
  1.092956E+04
  1.092429E+04
  1.091723E+04
  1.091018E+04
  1.090312E+04
  1.089607E+04
  1.088902E+04
  1.088196E+04
  1.087473E+04
  1.086500E+04
  1.085527E+04
  1.084554E+04
  1.083581E+04
  1.082608E+04
  1.081636E+04
  1.080612E+04
  1.079349E+04
  1.078085E+04
  1.076821E+04
  1.075558E+04
  1.074294E+04
  1.073031E+04
  1.071576E+04
  1.070007E+04
  1.068438E+04
  1.066869E+04
  1.065300E+04
  1.063731E+04
  1.062037E+04
  1.060158E+04
  1.058280E+04
  1.056401E+04
  1.054523E+04
  1.052645E+04
  1.050608E+04
  1.048411E+04
  1.046214E+04
  1.044016E+04
  1.041819E+04
  1.039622E+04
  1.037130E+04
  1.034598E+04
  1.032066E+04
  1.029534E+04
  1.027002E+04
  1.024283E+04
  1.021408E+04
  1.018534E+04
  1.015659E+04
  1.012785E+04
  1.009739E+04
  1.006506E+04
  1.003274E+04
  1.000042E+04
  9.968094E+03
  9.933189E+03
  9.896987E+03
  9.860786E+03
  9.824585E+03
  9.788005E+03
  9.747702E+03
  9.707401E+03
  9.667099E+03
  9.626799E+03
  9.583367E+03
  9.538882E+03
  9.494398E+03
  9.449914E+03
  9.402830E+03
  9.354160E+03
  9.305491E+03
  9.256824E+03
  9.205392E+03
  9.152779E+03
  9.100169E+03
  9.047563E+03
  8.991491E+03
  8.935341E+03
  8.879200E+03
  8.821565E+03
  8.762012E+03
  8.702478E+03
  8.642700E+03
  8.579727E+03
  8.516792E+03
  8.453895E+03
  8.388143E+03
  8.322060E+03
  8.256032E+03
  8.187077E+03
  8.117652E+03
  8.048292E+03
  7.974819E+03
  7.901266E+03
  7.826643E+03
  7.748246E+03
  7.669908E+03
  7.588334E+03
  7.504853E+03
  7.420591E+03
  7.331892E+03
  7.243231E+03
  7.150464E+03
  7.056747E+03
  6.960331E+03
  6.861952E+03
  6.761586E+03
  6.658879E+03
  6.554387E+03
  6.447680E+03
  6.339099E+03
  6.228890E+03
  6.116485E+03
  6.003229E+03
  5.887278E+03
  5.770458E+03
  5.652072E+03
  5.531920E+03
  5.410639E+03
  5.287893E+03
  5.163124E+03
  5.036818E+03
  4.908876E+03
  4.779413E+03
  4.649432E+03
  4.523995E+03
  4.413456E+03
  4.334337E+03
  4.314178E+03
  4.414652E+03
  4.557132E+03
  4.303266E+03
  4.573875E+03
  1.358540E+03
  7.630289E-03
  5.951066E+02
  5.950706E+02
  5.950346E+02
  5.949986E+02
  5.949626E+02
  5.949266E+02
  5.948906E+02
  5.948546E+02
  5.948186E+02
  5.947690E+02
  5.947189E+02
  5.946688E+02
  5.946186E+02
  5.945685E+02
  5.945183E+02
  5.944682E+02
  5.944416E+02
  5.944642E+02
  5.944869E+02
  5.945096E+02
  5.945323E+02
  5.945550E+02
  5.945777E+02
  5.946044E+02
  5.946869E+02
  5.947695E+02
  5.948521E+02
  5.949347E+02
  5.950174E+02
  5.951000E+02
  5.951839E+02
  5.952731E+02
  5.953625E+02
  5.954518E+02
  5.955413E+02
  5.956308E+02
  5.957204E+02
  5.958053E+02
  5.958875E+02
  5.959699E+02
  5.960523E+02
  5.961349E+02
  5.962176E+02
  5.962969E+02
  5.963711E+02
  5.964456E+02
  5.965202E+02
  5.965951E+02
  5.966701E+02
  5.967159E+02
  5.967318E+02
  5.967479E+02
  5.967642E+02
  5.967808E+02
  5.967977E+02
  5.966844E+02
  5.965537E+02
  5.964232E+02
  5.962929E+02
  5.961628E+02
  5.959288E+02
  5.956085E+02
  5.952884E+02
  5.949684E+02
  5.946487E+02
  5.942310E+02
  5.937068E+02
  5.931828E+02
  5.926589E+02
  5.921353E+02
  5.914657E+02
  5.907229E+02
  5.899803E+02
  5.892379E+02
  5.884775E+02
  5.875380E+02
  5.865988E+02
  5.856597E+02
  5.847209E+02
  5.835987E+02
  5.824147E+02
  5.812310E+02
  5.800474E+02
  5.785925E+02
  5.769720E+02
  5.753513E+02
  5.737306E+02
  5.716956E+02
  5.694832E+02
  5.672707E+02
  5.650579E+02
  5.622114E+02
  5.593497E+02
  5.564885E+02
  5.532796E+02
  5.496242E+02
  5.459719E+02
  5.422580E+02
  5.377594E+02
  5.332681E+02
  5.287841E+02
  5.238673E+02
  5.189026E+02
  5.139486E+02
  5.089784E+02
  5.040150E+02
  4.990629E+02
  4.943511E+02
  4.896572E+02
  4.850626E+02
  4.807803E+02
  4.765048E+02
  4.725486E+02
  4.687831E+02
  4.651048E+02
  4.618792E+02
  4.586561E+02
  4.558404E+02
  4.531224E+02
  4.506606E+02
  4.483858E+02
  4.462364E+02
  4.442345E+02
  4.422497E+02
  4.402862E+02
  4.382820E+02
  4.362435E+02
  4.341469E+02
  4.320305E+02
  4.298945E+02
  4.277954E+02
  4.257604E+02
  4.239234E+02
  4.222774E+02
  4.209294E+02
  4.201689E+02
  4.199922E+02
  4.206017E+02
  4.223148E+02
  4.258226E+02
  4.326556E+02
  4.450989E+02
  4.670877E+02
  5.051170E+02
  5.722002E+02
  6.600995E+02
  7.025786E+02
  8.248199E+02
  3.739883E+02
  2.440268E-03
  2.007515E+03
  2.007179E+03
  2.006844E+03
  2.006508E+03
  2.006172E+03
  2.005837E+03
  2.005501E+03
  2.005165E+03
  2.004829E+03
  2.003890E+03
  2.002926E+03
  2.001962E+03
  2.000999E+03
  2.000035E+03
  1.999071E+03
  1.998107E+03
  1.996968E+03
  1.995462E+03
  1.993956E+03
  1.992451E+03
  1.990945E+03
  1.989439E+03
  1.987933E+03
  1.986386E+03
  1.984260E+03
  1.982134E+03
  1.980008E+03
  1.977882E+03
  1.975756E+03
  1.973630E+03
  1.971371E+03
  1.968479E+03
  1.965587E+03
  1.962695E+03
  1.959803E+03
  1.956911E+03
  1.954018E+03
  1.950595E+03
  1.946854E+03
  1.943112E+03
  1.939371E+03
  1.935630E+03
  1.931889E+03
  1.927810E+03
  1.923233E+03
  1.918657E+03
  1.914081E+03
  1.909505E+03
  1.904928E+03
  1.899975E+03
  1.894636E+03
  1.889298E+03
  1.883959E+03
  1.878620E+03
  1.873282E+03
  1.867345E+03
  1.861327E+03
  1.855309E+03
  1.849291E+03
  1.843274E+03
  1.836918E+03
  1.830281E+03
  1.823644E+03
  1.817007E+03
  1.810370E+03
  1.803413E+03
  1.796108E+03
  1.788819E+03
  1.781513E+03
  1.774208E+03
  1.766401E+03
  1.758341E+03
  1.750281E+03
  1.742221E+03
  1.734098E+03
  1.725358E+03
  1.716619E+03
  1.707879E+03
  1.699139E+03
  1.689955E+03
  1.680621E+03
  1.671287E+03
  1.661954E+03
  1.652211E+03
  1.642218E+03
  1.632226E+03
  1.622234E+03
  1.611855E+03
  1.601311E+03
  1.590768E+03
  1.580225E+03
  1.569423E+03
  1.558617E+03
  1.547813E+03
  1.536847E+03
  1.525674E+03
  1.514508E+03
  1.503282E+03
  1.491280E+03
  1.479290E+03
  1.467313E+03
  1.454415E+03
  1.441424E+03
  1.428453E+03
  1.414456E+03
  1.400296E+03
  1.386160E+03
  1.370336E+03
  1.354475E+03
  1.338128E+03
  1.320077E+03
  1.302047E+03
  1.282554E+03
  1.262195E+03
  1.241497E+03
  1.218886E+03
  1.196285E+03
  1.172037E+03
  1.147403E+03
  1.121859E+03
  1.095652E+03
  1.069016E+03
  1.041877E+03
  1.014613E+03
  9.871945E+02
  9.599501E+02
  9.328584E+02
  9.063965E+02
  8.801815E+02
  8.553363E+02
  8.311592E+02
  8.081813E+02
  7.870029E+02
  7.671094E+02
  7.489891E+02
  7.334609E+02
  7.199763E+02
  7.089264E+02
  7.009104E+02
  6.974469E+02
  7.024286E+02
  7.223065E+02
  7.685145E+02
  8.579894E+02
  1.017093E+03
  1.211876E+03
  1.265278E+03
  1.357740E+03
 -6.415327E+00
  2.375724E-08
  1.231918E+00
  1.231751E+00
  1.231583E+00
  1.231416E+00
  1.231248E+00
  1.231081E+00
  1.230914E+00
  1.230746E+00
  1.230579E+00
  1.230095E+00
  1.229599E+00
  1.229102E+00
  1.228606E+00
  1.228109E+00
  1.227613E+00
  1.227117E+00
  1.226525E+00
  1.225733E+00
  1.224941E+00
  1.224149E+00
  1.223357E+00
  1.222565E+00
  1.221773E+00
  1.220961E+00
  1.219868E+00
  1.218776E+00
  1.217684E+00
  1.216591E+00
  1.215499E+00
  1.214407E+00
  1.213258E+00
  1.211839E+00
  1.210420E+00
  1.209002E+00
  1.207583E+00
  1.206164E+00
  1.204746E+00
  1.203113E+00
  1.201351E+00
  1.199589E+00
  1.197827E+00
  1.196066E+00
  1.194304E+00
  1.192402E+00
  1.190293E+00
  1.188184E+00
  1.186075E+00
  1.183966E+00
  1.181857E+00
  1.179571E+00
  1.177104E+00
  1.174637E+00
  1.172170E+00
  1.169703E+00
  1.167236E+00
  1.164438E+00
  1.161595E+00
  1.158753E+00
  1.155910E+00
  1.153067E+00
  1.150014E+00
  1.146787E+00
  1.143559E+00
  1.140332E+00
  1.137105E+00
  1.133685E+00
  1.130056E+00
  1.126426E+00
  1.122797E+00
  1.119168E+00
  1.115249E+00
  1.111185E+00
  1.107120E+00
  1.103056E+00
  1.098949E+00
  1.094424E+00
  1.089899E+00
  1.085374E+00
  1.080849E+00
  1.075973E+00
  1.070978E+00
  1.065984E+00
  1.060990E+00
  1.055703E+00
  1.050239E+00
  1.044774E+00
  1.039310E+00
  1.033536E+00
  1.027629E+00
  1.021722E+00
  1.015816E+00
  1.009520E+00
  1.003216E+00
  9.969125E-01
  9.904416E-01
  9.837553E-01
  9.770711E-01
  9.703596E-01
  9.632893E-01
  9.562232E-01
  9.491614E-01
  9.417791E-01
  9.343596E-01
  9.269464E-01
  9.192044E-01
  9.114098E-01
  9.036224E-01
  8.953732E-01
  8.871150E-01
  8.787367E-01
  8.699347E-01
  8.611392E-01
  8.519806E-01
  8.426077E-01
  8.331472E-01
  8.231885E-01
  8.132341E-01
  8.028187E-01
  7.922966E-01
  7.814715E-01
  7.704259E-01
  7.591574E-01
  7.476259E-01
  7.358941E-01
  7.239135E-01
  7.117226E-01
  6.993489E-01
  6.867287E-01
  6.740128E-01
  6.609944E-01
  6.478784E-01
  6.345866E-01
  6.210966E-01
  6.074798E-01
  5.936985E-01
  5.796900E-01
  5.655090E-01
  5.511443E-01
  5.366088E-01
  5.220152E-01
  5.079317E-01
  4.955210E-01
  4.866378E-01
  4.843745E-01
  4.956552E-01
  5.116522E-01
  4.831494E-01
  5.135321E-01
  1.525302E-01
  8.566911E-07
  1.083614E+00
  1.083548E+00
  1.083483E+00
  1.083417E+00
  1.083352E+00
  1.083286E+00
  1.083221E+00
  1.083155E+00
  1.083089E+00
  1.082999E+00
  1.082908E+00
  1.082817E+00
  1.082725E+00
  1.082634E+00
  1.082543E+00
  1.082451E+00
  1.082403E+00
  1.082444E+00
  1.082485E+00
  1.082527E+00
  1.082568E+00
  1.082609E+00
  1.082651E+00
  1.082699E+00
  1.082850E+00
  1.083000E+00
  1.083150E+00
  1.083301E+00
  1.083451E+00
  1.083602E+00
  1.083755E+00
  1.083917E+00
  1.084080E+00
  1.084242E+00
  1.084405E+00
  1.084568E+00
  1.084731E+00
  1.084886E+00
  1.085036E+00
  1.085186E+00
  1.085336E+00
  1.085486E+00
  1.085637E+00
  1.085781E+00
  1.085916E+00
  1.086052E+00
  1.086188E+00
  1.086324E+00
  1.086461E+00
  1.086544E+00
  1.086573E+00
  1.086602E+00
  1.086632E+00
  1.086662E+00
  1.086693E+00
  1.086487E+00
  1.086249E+00
  1.086011E+00
  1.085774E+00
  1.085537E+00
  1.085111E+00
  1.084528E+00
  1.083945E+00
  1.083362E+00
  1.082780E+00
  1.082020E+00
  1.081065E+00
  1.080111E+00
  1.079157E+00
  1.078203E+00
  1.076984E+00
  1.075632E+00
  1.074280E+00
  1.072928E+00
  1.071543E+00
  1.069832E+00
  1.068122E+00
  1.066412E+00
  1.064703E+00
  1.062659E+00
  1.060504E+00
  1.058348E+00
  1.056193E+00
  1.053544E+00
  1.050593E+00
  1.047642E+00
  1.044691E+00
  1.040985E+00
  1.036957E+00
  1.032928E+00
  1.028899E+00
  1.023716E+00
  1.018505E+00
  1.013295E+00
  1.007452E+00
  1.000796E+00
  9.941457E-01
  9.873832E-01
  9.791918E-01
  9.710138E-01
  9.628490E-01
  9.538961E-01
  9.448559E-01
  9.358353E-01
  9.267852E-01
  9.177476E-01
  9.087304E-01
  9.001508E-01
  8.916038E-01
  8.832376E-01
  8.754400E-01
  8.676550E-01
  8.604512E-01
  8.535947E-01
  8.468971E-01
  8.410236E-01
  8.351546E-01
  8.300277E-01
  8.250786E-01
  8.205958E-01
  8.164538E-01
  8.125401E-01
  8.088949E-01
  8.052808E-01
  8.017054E-01
  7.980560E-01
  7.943442E-01
  7.905266E-01
  7.866730E-01
  7.827835E-01
  7.789613E-01
  7.752557E-01
  7.719109E-01
  7.689137E-01
  7.664591E-01
  7.650744E-01
  7.647526E-01
  7.658625E-01
  7.689818E-01
  7.753691E-01
  7.878111E-01
  8.104687E-01
  8.505075E-01
  9.197542E-01
  1.041904E+00
  1.201958E+00
  1.279307E+00
  1.501893E+00
  6.809853E-01
  4.443419E-06
  1.273738E+00
  1.273525E+00
  1.273311E+00
  1.273098E+00
  1.272885E+00
  1.272672E+00
  1.272459E+00
  1.272246E+00
  1.272033E+00
  1.271438E+00
  1.270826E+00
  1.270214E+00
  1.269603E+00
  1.268991E+00
  1.268380E+00
  1.267768E+00
  1.267045E+00
  1.266090E+00
  1.265135E+00
  1.264179E+00
  1.263224E+00
  1.262269E+00
  1.261313E+00
  1.260332E+00
  1.258983E+00
  1.257634E+00
  1.256285E+00
  1.254936E+00
  1.253587E+00
  1.252238E+00
  1.250805E+00
  1.248970E+00
  1.247135E+00
  1.245300E+00
  1.243465E+00
  1.241630E+00
  1.239795E+00
  1.237623E+00
  1.235249E+00
  1.232875E+00
  1.230501E+00
  1.228127E+00
  1.225754E+00
  1.223166E+00
  1.220262E+00
  1.217358E+00
  1.214455E+00
  1.211551E+00
  1.208648E+00
  1.205505E+00
  1.202118E+00
  1.198730E+00
  1.195343E+00
  1.191956E+00
  1.188569E+00
  1.184802E+00
  1.180984E+00
  1.177165E+00
  1.173347E+00
  1.169529E+00
  1.165496E+00
  1.161285E+00
  1.157074E+00
  1.152863E+00
  1.148652E+00
  1.144238E+00
  1.139603E+00
  1.134978E+00
  1.130343E+00
  1.125708E+00
  1.120754E+00
  1.115640E+00
  1.110526E+00
  1.105412E+00
  1.100259E+00
  1.094713E+00
  1.089168E+00
  1.083623E+00
  1.078077E+00
  1.072250E+00
  1.066328E+00
  1.060406E+00
  1.054484E+00
  1.048302E+00
  1.041962E+00
  1.035622E+00
  1.029282E+00
  1.022697E+00
  1.016007E+00
  1.009318E+00
  1.002629E+00
  9.957749E-01
  9.889185E-01
  9.820635E-01
  9.751057E-01
  9.680170E-01
  9.609319E-01
  9.538096E-01
  9.461943E-01
  9.385870E-01
  9.309875E-01
  9.228041E-01
  9.145614E-01
  9.063312E-01
  8.974507E-01
  8.884665E-01
  8.794972E-01
  8.694569E-01
  8.593935E-01
  8.490215E-01
  8.375685E-01
  8.261285E-01
  8.137606E-01
  8.008434E-01
  7.877105E-01
  7.733642E-01
  7.590246E-01
  7.436396E-01
  7.280098E-01
  7.118025E-01
  6.951742E-01
  6.782745E-01
  6.610550E-01
  6.437565E-01
  6.263598E-01
  6.090736E-01
  5.918843E-01
  5.750946E-01
  5.584616E-01
  5.426977E-01
  5.273577E-01
  5.127786E-01
  4.993413E-01
  4.867191E-01
  4.752221E-01
  4.653697E-01
  4.568139E-01
  4.498029E-01
  4.447169E-01
  4.425193E-01
  4.456801E-01
  4.582924E-01
  4.876107E-01
  5.443811E-01
  6.453297E-01
  7.689164E-01
  8.027994E-01
  8.614652E-01
 -4.070426E-03
  1.507360E-11
  9.716059E-01
  9.714739E-01
  9.713419E-01
  9.712099E-01
  9.710779E-01
  9.709458E-01
  9.708138E-01
  9.706818E-01
  9.705498E-01
  9.701686E-01
  9.697771E-01
  9.693855E-01
  9.689940E-01
  9.686025E-01
  9.682110E-01
  9.678194E-01
  9.673527E-01
  9.667282E-01
  9.661036E-01
  9.654790E-01
  9.648544E-01
  9.642299E-01
  9.636053E-01
  9.629649E-01
  9.621035E-01
  9.612421E-01
  9.603807E-01
  9.595194E-01
  9.586580E-01
  9.577966E-01
  9.568905E-01
  9.557717E-01
  9.546530E-01
  9.535342E-01
  9.524154E-01
  9.512967E-01
  9.501780E-01
  9.488901E-01
  9.475008E-01
  9.461115E-01
  9.447223E-01
  9.433330E-01
  9.419439E-01
  9.404439E-01
  9.387806E-01
  9.371174E-01
  9.354542E-01
  9.337910E-01
  9.321279E-01
  9.303251E-01
  9.283794E-01
  9.264338E-01
  9.244882E-01
  9.225427E-01
  9.205972E-01
  9.183907E-01
  9.161487E-01
  9.139067E-01
  9.116647E-01
  9.094228E-01
  9.070151E-01
  9.044696E-01
  9.019242E-01
  8.993788E-01
  8.968335E-01
  8.941362E-01
  8.912739E-01
  8.884115E-01
  8.855492E-01
  8.826870E-01
  8.795961E-01
  8.763903E-01
  8.731846E-01
  8.699788E-01
  8.667396E-01
  8.631706E-01
  8.596017E-01
  8.560329E-01
  8.524640E-01
  8.486180E-01
  8.446786E-01
  8.407393E-01
  8.368000E-01
  8.326305E-01
  8.283205E-01
  8.240107E-01
  8.197010E-01
  8.151465E-01
  8.104875E-01
  8.058288E-01
  8.011705E-01
  7.962053E-01
  7.912333E-01
  7.862621E-01
  7.811587E-01
  7.758855E-01
  7.706141E-01
  7.653209E-01
  7.597450E-01
  7.541723E-01
  7.486028E-01
  7.427804E-01
  7.369285E-01
  7.310813E-01
  7.249747E-01
  7.188265E-01
  7.126838E-01
  7.061769E-01
  6.996627E-01
  6.930539E-01
  6.861110E-01
  6.791732E-01
  6.719492E-01
  6.645564E-01
  6.570947E-01
  6.492403E-01
  6.413894E-01
  6.331754E-01
  6.248772E-01
  6.163402E-01
  6.076296E-01
  5.987430E-01
  5.896492E-01
  5.803972E-01
  5.709489E-01
  5.613345E-01
  5.515758E-01
  5.416223E-01
  5.315931E-01
  5.213251E-01
  5.109798E-01
  5.004956E-01
  4.898549E-01
  4.791140E-01
  4.682431E-01
  4.571930E-01
  4.460066E-01
  4.346753E-01
  4.232092E-01
  4.116972E-01
  4.005874E-01
  3.907969E-01
  3.837885E-01
  3.820007E-01
  3.908941E-01
  4.035068E-01
  3.810253E-01
  4.049824E-01
  1.472302E-01
  5.544236E-02
  5.269706E-02
  5.269387E-02
  5.269068E-02
  5.268750E-02
  5.268431E-02
  5.268112E-02
  5.267794E-02
  5.267475E-02
  5.267156E-02
  5.266717E-02
  5.266274E-02
  5.265830E-02
  5.265386E-02
  5.264942E-02
  5.264499E-02
  5.264055E-02
  5.263819E-02
  5.264020E-02
  5.264221E-02
  5.264423E-02
  5.264624E-02
  5.264826E-02
  5.265027E-02
  5.265264E-02
  5.265996E-02
  5.266727E-02
  5.267459E-02
  5.268191E-02
  5.268924E-02
  5.269657E-02
  5.270400E-02
  5.271191E-02
  5.271983E-02
  5.272775E-02
  5.273568E-02
  5.274361E-02
  5.275155E-02
  5.275908E-02
  5.276637E-02
  5.277367E-02
  5.278099E-02
  5.278831E-02
  5.279564E-02
  5.280267E-02
  5.280926E-02
  5.281586E-02
  5.282248E-02
  5.282912E-02
  5.283577E-02
  5.283983E-02
  5.284125E-02
  5.284268E-02
  5.284414E-02
  5.284562E-02
  5.284712E-02
  5.283710E-02
  5.282553E-02
  5.281398E-02
  5.280245E-02
  5.279094E-02
  5.277022E-02
  5.274186E-02
  5.271351E-02
  5.268519E-02
  5.265688E-02
  5.261989E-02
  5.257347E-02
  5.252707E-02
  5.248068E-02
  5.243431E-02
  5.237501E-02
  5.230924E-02
  5.224348E-02
  5.217773E-02
  5.211039E-02
  5.202719E-02
  5.194401E-02
  5.186085E-02
  5.177771E-02
  5.167832E-02
  5.157347E-02
  5.146864E-02
  5.136382E-02
  5.123498E-02
  5.109147E-02
  5.094795E-02
  5.080441E-02
  5.062421E-02
  5.042830E-02
  5.023237E-02
  5.003642E-02
  4.978437E-02
  4.953097E-02
  4.927762E-02
  4.899348E-02
  4.866981E-02
  4.834641E-02
  4.801756E-02
  4.761922E-02
  4.722154E-02
  4.682449E-02
  4.638910E-02
  4.594945E-02
  4.551075E-02
  4.507060E-02
  4.463105E-02
  4.419249E-02
  4.377520E-02
  4.335950E-02
  4.295258E-02
  4.257333E-02
  4.219468E-02
  4.184432E-02
  4.151085E-02
  4.118511E-02
  4.089949E-02
  4.061408E-02
  4.036478E-02
  4.012413E-02
  3.990618E-02
  3.970481E-02
  3.951454E-02
  3.933733E-02
  3.916163E-02
  3.898781E-02
  3.881037E-02
  3.862989E-02
  3.844424E-02
  3.825682E-02
  3.806764E-02
  3.788171E-02
  3.770143E-02
  3.753867E-02
  3.739281E-02
  3.727331E-02
  3.720582E-02
  3.719001E-02
  3.724380E-02
  3.739528E-02
  3.770567E-02
  3.831048E-02
  3.941203E-02
  4.135878E-02
  4.472579E-02
  5.066531E-02
  5.844786E-02
  6.220862E-02
  7.303163E-02
  4.053055E-02
  1.773120E-02
  1.777667E-01
  1.777370E-01
  1.777073E-01
  1.776775E-01
  1.776478E-01
  1.776181E-01
  1.775883E-01
  1.775586E-01
  1.775289E-01
  1.774458E-01
  1.773604E-01
  1.772751E-01
  1.771897E-01
  1.771044E-01
  1.770190E-01
  1.769337E-01
  1.768328E-01
  1.766995E-01
  1.765662E-01
  1.764329E-01
  1.762995E-01
  1.761662E-01
  1.760329E-01
  1.758959E-01
  1.757077E-01
  1.755194E-01
  1.753312E-01
  1.751430E-01
  1.749547E-01
  1.747665E-01
  1.745665E-01
  1.743104E-01
  1.740543E-01
  1.737982E-01
  1.735422E-01
  1.732861E-01
  1.730300E-01
  1.727269E-01
  1.723956E-01
  1.720644E-01
  1.717331E-01
  1.714018E-01
  1.710706E-01
  1.707094E-01
  1.703042E-01
  1.698990E-01
  1.694938E-01
  1.690886E-01
  1.686834E-01
  1.682449E-01
  1.677721E-01
  1.672994E-01
  1.668267E-01
  1.663540E-01
  1.658813E-01
  1.653556E-01
  1.648227E-01
  1.642898E-01
  1.637570E-01
  1.632241E-01
  1.626613E-01
  1.620736E-01
  1.614859E-01
  1.608982E-01
  1.603105E-01
  1.596944E-01
  1.590476E-01
  1.584021E-01
  1.577552E-01
  1.571083E-01
  1.564169E-01
  1.557032E-01
  1.549895E-01
  1.542758E-01
  1.535565E-01
  1.527825E-01
  1.520086E-01
  1.512346E-01
  1.504607E-01
  1.496474E-01
  1.488209E-01
  1.479943E-01
  1.471678E-01
  1.463050E-01
  1.454201E-01
  1.445353E-01
  1.436504E-01
  1.427313E-01
  1.417977E-01
  1.408640E-01
  1.399305E-01
  1.389740E-01
  1.380171E-01
  1.370604E-01
  1.360894E-01
  1.351001E-01
  1.341113E-01
  1.331174E-01
  1.320546E-01
  1.309929E-01
  1.299324E-01
  1.287903E-01
  1.276399E-01
  1.264911E-01
  1.252517E-01
  1.239977E-01
  1.227458E-01
  1.213444E-01
  1.199397E-01
  1.184920E-01
  1.168935E-01
  1.152967E-01
  1.135705E-01
  1.117677E-01
  1.099347E-01
  1.079325E-01
  1.059313E-01
  1.037842E-01
  1.016029E-01
  9.934112E-02
  9.702056E-02
  9.466213E-02
  9.225907E-02
  8.984496E-02
  8.741713E-02
  8.500468E-02
  8.260574E-02
  8.026253E-02
  7.794113E-02
  7.574098E-02
  7.359997E-02
  7.156512E-02
  6.968959E-02
  6.792780E-02
  6.632301E-02
  6.494773E-02
  6.375338E-02
  6.277461E-02
  6.206447E-02
  6.175742E-02
  6.219814E-02
  6.395785E-02
  6.804894E-02
  7.597103E-02
  9.005820E-02
  1.073043E-01
  1.120319E-01
  1.202177E-01
 -6.952537E-04
  1.726222E-07
  9.717944E-01
  9.716624E-01
  9.715304E-01
  9.713984E-01
  9.712664E-01
  9.711344E-01
  9.710023E-01
  9.708703E-01
  9.707383E-01
  9.703571E-01
  9.699657E-01
  9.695742E-01
  9.691827E-01
  9.687912E-01
  9.683997E-01
  9.680083E-01
  9.675416E-01
  9.669172E-01
  9.662927E-01
  9.656683E-01
  9.650438E-01
  9.644194E-01
  9.637949E-01
  9.631547E-01
  9.622935E-01