 Title= "ADflow Lift Distribution Data"
Variables = "eta" "CoordinateX" "CoordinateY" "CoordinateZ" "Lift" "Drag" "Moment" "Normalized Lift" "Normalized Drag" "Normalized Moment" "CL" "CD" "CM" "CLp" "CDp" "CMp" "CLv" "CDv" "CMv" "Elliptical" "thickness" "twist" "chord" "fx" "fy" "fz" 
Zone T= "LiftDist_01 allWalls: : z normal"
 I=          150
 DATAPACKING=BLOCK
  0.000000E+00
  6.711405E-03
  1.342281E-02
  2.013422E-02
  2.684563E-02
  3.355704E-02
  4.026845E-02
  4.697986E-02
  5.369127E-02
  6.040268E-02
  6.711409E-02
  7.382550E-02
  8.053691E-02
  8.724832E-02
  9.395973E-02
  1.006711E-01
  1.073825E-01
  1.140940E-01
  1.208054E-01
  1.275168E-01
  1.342282E-01
  1.409396E-01
  1.476510E-01
  1.543624E-01
  1.610738E-01
  1.677852E-01
  1.744966E-01
  1.812081E-01
  1.879195E-01
  1.946309E-01
  2.013423E-01
  2.080537E-01
  2.147651E-01
  2.214765E-01
  2.281879E-01
  2.348993E-01
  2.416107E-01
  2.483221E-01
  2.550336E-01
  2.617450E-01
  2.684564E-01
  2.751678E-01
  2.818792E-01
  2.885906E-01
  2.953020E-01
  3.020134E-01
  3.087248E-01
  3.154362E-01
  3.221476E-01
  3.288591E-01
  3.355705E-01
  3.422819E-01
  3.489933E-01
  3.557047E-01
  3.624161E-01
  3.691275E-01
  3.758389E-01
  3.825503E-01
  3.892617E-01
  3.959732E-01
  4.026846E-01
  4.093960E-01
  4.161074E-01
  4.228188E-01
  4.295302E-01
  4.362416E-01
  4.429530E-01
  4.496644E-01
  4.563758E-01
  4.630872E-01
  4.697987E-01
  4.765101E-01
  4.832215E-01
  4.899329E-01
  4.966443E-01
  5.033557E-01
  5.100671E-01
  5.167785E-01
  5.234899E-01
  5.302013E-01
  5.369128E-01
  5.436242E-01
  5.503356E-01
  5.570470E-01
  5.637584E-01
  5.704698E-01
  5.771812E-01
  5.838926E-01
  5.906040E-01
  5.973154E-01
  6.040268E-01
  6.107383E-01
  6.174497E-01
  6.241611E-01
  6.308725E-01
  6.375839E-01
  6.442953E-01
  6.510067E-01
  6.577181E-01
  6.644295E-01
  6.711409E-01
  6.778524E-01
  6.845638E-01
  6.912752E-01
  6.979866E-01
  7.046980E-01
  7.114094E-01
  7.181208E-01
  7.248322E-01
  7.315436E-01
  7.382550E-01
  7.449664E-01
  7.516779E-01
  7.583893E-01
  7.651007E-01
  7.718121E-01
  7.785235E-01
  7.852349E-01
  7.919463E-01
  7.986577E-01
  8.053691E-01
  8.120805E-01
  8.187919E-01
  8.255034E-01
  8.322148E-01
  8.389262E-01
  8.456376E-01
  8.523490E-01
  8.590604E-01
  8.657718E-01
  8.724832E-01
  8.791946E-01
  8.859060E-01
  8.926175E-01
  8.993289E-01
  9.060403E-01
  9.127517E-01
  9.194631E-01
  9.261745E-01
  9.328859E-01
  9.395973E-01
  9.463087E-01
  9.530201E-01
  9.597315E-01
  9.664430E-01
  9.731544E-01
  9.798658E-01
  9.865772E-01
  9.932886E-01
  1.000000E+00
  0.000000E+00
  0.000000E+00
  0.000000E+00
  0.000000E+00
  0.000000E+00
  0.000000E+00
  0.000000E+00
  0.000000E+00
  0.000000E+00
  0.000000E+00
  0.000000E+00
  0.000000E+00
  0.000000E+00
  0.000000E+00
  0.000000E+00
  0.000000E+00
  0.000000E+00
  0.000000E+00
  0.000000E+00
  0.000000E+00
  0.000000E+00
  0.000000E+00
  0.000000E+00
  0.000000E+00
  0.000000E+00
  0.000000E+00
  0.000000E+00
  0.000000E+00
  0.000000E+00
  0.000000E+00
  0.000000E+00
  0.000000E+00
  0.000000E+00
  0.000000E+00
  0.000000E+00
  0.000000E+00
  0.000000E+00
  0.000000E+00
  0.000000E+00
  0.000000E+00
  0.000000E+00
  0.000000E+00
  0.000000E+00
  0.000000E+00
  0.000000E+00
  0.000000E+00
  0.000000E+00
  0.000000E+00
  0.000000E+00
  0.000000E+00
  0.000000E+00
  0.000000E+00
  0.000000E+00
  0.000000E+00
  0.000000E+00
  0.000000E+00
  0.000000E+00
  0.000000E+00
  0.000000E+00
  0.000000E+00
  0.000000E+00
  0.000000E+00
  0.000000E+00
  0.000000E+00
  0.000000E+00
  0.000000E+00
  0.000000E+00
  0.000000E+00
  0.000000E+00
  0.000000E+00
  0.000000E+00
  0.000000E+00
  0.000000E+00
  0.000000E+00
  0.000000E+00
  0.000000E+00
  0.000000E+00
  0.000000E+00
  0.000000E+00
  0.000000E+00
  0.000000E+00
  0.000000E+00
  0.000000E+00
  0.000000E+00
  0.000000E+00
  0.000000E+00
  0.000000E+00
  0.000000E+00
  0.000000E+00
  0.000000E+00
  0.000000E+00
  0.000000E+00
  0.000000E+00
  0.000000E+00
  0.000000E+00
  0.000000E+00
  0.000000E+00
  0.000000E+00
  0.000000E+00
  0.000000E+00
  0.000000E+00
  0.000000E+00
  0.000000E+00
  0.000000E+00
  0.000000E+00
  0.000000E+00
  0.000000E+00
  0.000000E+00
  0.000000E+00
  0.000000E+00
  0.000000E+00
  0.000000E+00
  0.000000E+00
  0.000000E+00
  0.000000E+00
  0.000000E+00
  0.000000E+00
  0.000000E+00
  0.000000E+00
  0.000000E+00
  0.000000E+00
  0.000000E+00
  0.000000E+00
  0.000000E+00
  0.000000E+00
  0.000000E+00
  0.000000E+00
  0.000000E+00
  0.000000E+00
  0.000000E+00
  0.000000E+00
  0.000000E+00
  0.000000E+00
  0.000000E+00
  0.000000E+00
  0.000000E+00
  0.000000E+00
  0.000000E+00
  0.000000E+00
  0.000000E+00
  0.000000E+00
  0.000000E+00
  0.000000E+00
  0.000000E+00
  0.000000E+00
  0.000000E+00
  0.000000E+00
  0.000000E+00
  0.000000E+00
  0.000000E+00
  0.000000E+00
  0.000000E+00
  0.000000E+00
  0.000000E+00
  0.000000E+00
  0.000000E+00
  0.000000E+00
  0.000000E+00
  0.000000E+00
  0.000000E+00
  0.000000E+00
  0.000000E+00
  0.000000E+00
  0.000000E+00
  0.000000E+00
  0.000000E+00
  0.000000E+00
  0.000000E+00
  0.000000E+00
  0.000000E+00
  0.000000E+00
  0.000000E+00
  0.000000E+00
  0.000000E+00
  0.000000E+00
  0.000000E+00
  0.000000E+00
  0.000000E+00
  0.000000E+00
  0.000000E+00
  0.000000E+00
  0.000000E+00
  0.000000E+00
  0.000000E+00
  0.000000E+00
  0.000000E+00
  0.000000E+00
  0.000000E+00
  0.000000E+00
  0.000000E+00
  0.000000E+00
  0.000000E+00
  0.000000E+00
  0.000000E+00
  0.000000E+00
  0.000000E+00
  0.000000E+00
  0.000000E+00
  0.000000E+00
  0.000000E+00
  0.000000E+00
  0.000000E+00
  0.000000E+00
  0.000000E+00
  0.000000E+00
  0.000000E+00
  0.000000E+00
  0.000000E+00
  0.000000E+00
  0.000000E+00
  0.000000E+00
  0.000000E+00
  0.000000E+00
  0.000000E+00
  0.000000E+00
  0.000000E+00
  0.000000E+00
  0.000000E+00
  0.000000E+00
  0.000000E+00
  0.000000E+00
  0.000000E+00
  0.000000E+00
  0.000000E+00
  0.000000E+00
  0.000000E+00
  0.000000E+00
  0.000000E+00
  0.000000E+00
  0.000000E+00
  0.000000E+00
  0.000000E+00
  0.000000E+00
  0.000000E+00
  0.000000E+00
  0.000000E+00
  0.000000E+00
  0.000000E+00
  0.000000E+00
  0.000000E+00
  0.000000E+00
  0.000000E+00
  0.000000E+00
  0.000000E+00
  0.000000E+00
  0.000000E+00
  0.000000E+00
  0.000000E+00
  0.000000E+00
  0.000000E+00
  0.000000E+00
  0.000000E+00
  0.000000E+00
  0.000000E+00
  0.000000E+00
  0.000000E+00
  0.000000E+00
  0.000000E+00
  0.000000E+00
  0.000000E+00
  0.000000E+00
  0.000000E+00
  0.000000E+00
  0.000000E+00
  0.000000E+00
  0.000000E+00
  0.000000E+00
  0.000000E+00
  0.000000E+00
  0.000000E+00
  0.000000E+00
  0.000000E+00
  0.000000E+00
  0.000000E+00
  0.000000E+00
  0.000000E+00
  0.000000E+00
  0.000000E+00
  0.000000E+00
  0.000000E+00
  0.000000E+00
  0.000000E+00
  0.000000E+00
  0.000000E+00
  0.000000E+00
  0.000000E+00
  0.000000E+00
  0.000000E+00
  0.000000E+00
  0.000000E+00
  0.000000E+00
  0.000000E+00
  0.000000E+00
  0.000000E+00
  0.000000E+00
  0.000000E+00
  0.000000E+00
  0.000000E+00
  0.000000E+00
  0.000000E+00
  1.000000E-08
  1.691809E-02
  3.383618E-02
  5.075427E-02
  6.767237E-02
  8.459046E-02
  1.015085E-01
  1.184266E-01
  1.353447E-01
  1.522628E-01
  1.691809E-01
  1.860990E-01
  2.030171E-01
  2.199352E-01
  2.368533E-01
  2.537714E-01
  2.706895E-01
  2.876076E-01
  3.045256E-01
  3.214437E-01
  3.383618E-01
  3.552799E-01
  3.721980E-01
  3.891161E-01
  4.060342E-01
  4.229523E-01
  4.398704E-01
  4.567885E-01
  4.737066E-01
  4.906247E-01
  5.075427E-01
  5.244608E-01
  5.413789E-01
  5.582970E-01
  5.752151E-01
  5.921332E-01
  6.090513E-01
  6.259694E-01
  6.428875E-01
  6.598056E-01
  6.767237E-01
  6.936418E-01
  7.105598E-01
  7.274779E-01
  7.443960E-01
  7.613141E-01
  7.782322E-01
  7.951503E-01
  8.120684E-01
  8.289865E-01
  8.459046E-01
  8.628227E-01
  8.797408E-01
  8.966589E-01
  9.135769E-01
  9.304950E-01
  9.474131E-01
  9.643312E-01
  9.812493E-01
  9.981674E-01
  1.015085E+00
  1.032004E+00
  1.048922E+00
  1.065840E+00
  1.082758E+00
  1.099676E+00
  1.116594E+00
  1.133512E+00
  1.150430E+00
  1.167348E+00
  1.184266E+00
  1.201185E+00
  1.218103E+00
  1.235021E+00
  1.251939E+00
  1.268857E+00
  1.285775E+00
  1.302693E+00
  1.319611E+00
  1.336529E+00
  1.353447E+00
  1.370365E+00
  1.387284E+00
  1.404202E+00
  1.421120E+00
  1.438038E+00
  1.454956E+00
  1.471874E+00
  1.488792E+00
  1.505710E+00
  1.522628E+00
  1.539546E+00
  1.556464E+00
  1.573383E+00
  1.590301E+00
  1.607219E+00
  1.624137E+00
  1.641055E+00
  1.657973E+00
  1.674891E+00
  1.691809E+00
  1.708727E+00
  1.725645E+00
  1.742563E+00
  1.759482E+00
  1.776400E+00
  1.793318E+00
  1.810236E+00
  1.827154E+00
  1.844072E+00
  1.860990E+00
  1.877908E+00
  1.894826E+00
  1.911744E+00
  1.928662E+00
  1.945581E+00
  1.962499E+00
  1.979417E+00
  1.996335E+00
  2.013253E+00
  2.030171E+00
  2.047089E+00
  2.064007E+00
  2.080925E+00
  2.097843E+00
  2.114761E+00
  2.131680E+00
  2.148598E+00
  2.165516E+00
  2.182434E+00
  2.199352E+00
  2.216270E+00
  2.233188E+00
  2.250106E+00
  2.267024E+00
  2.283942E+00
  2.300860E+00
  2.317779E+00
  2.334697E+00
  2.351615E+00
  2.368533E+00
  2.385451E+00
  2.402369E+00
  2.419287E+00
  2.436205E+00
  2.453123E+00
  2.470041E+00
  2.486959E+00
  2.503878E+00
  2.520796E+00
  6.361767E+03
  6.361067E+03
  6.360367E+03
  6.359667E+03
  6.358967E+03
  6.358267E+03
  6.357566E+03
  6.356866E+03
  6.356166E+03
  6.354170E+03
  6.352120E+03
  6.350070E+03
  6.348020E+03
  6.345970E+03
  6.343920E+03
  6.341870E+03
  6.339446E+03
  6.336237E+03
  6.333028E+03
  6.329819E+03
  6.326610E+03
  6.323401E+03
  6.320192E+03
  6.316908E+03
  6.312570E+03
  6.308231E+03
  6.303893E+03
  6.299555E+03
  6.295217E+03
  6.290879E+03
  6.286334E+03
  6.280808E+03
  6.275282E+03
  6.269756E+03
  6.264229E+03
  6.258703E+03
  6.253177E+03
  6.246879E+03
  6.240120E+03
  6.233360E+03
  6.226600E+03
  6.219841E+03
  6.213081E+03
  6.205811E+03
  6.197788E+03
  6.189765E+03
  6.181743E+03
  6.173720E+03
  6.165697E+03
  6.157031E+03
  6.147708E+03
  6.138384E+03
  6.129061E+03
  6.119737E+03
  6.110414E+03
  6.099905E+03
  6.089233E+03
  6.078562E+03
  6.067891E+03
  6.057220E+03
  6.045784E+03
  6.033714E+03
  6.021643E+03
  6.009573E+03
  5.997502E+03
  5.984734E+03
  5.971207E+03
  5.957681E+03
  5.944154E+03
  5.930628E+03
  5.916090E+03
  5.901044E+03
  5.885999E+03
  5.870953E+03
  5.855760E+03
  5.839125E+03
  5.822490E+03
  5.805855E+03
  5.789219E+03
  5.771338E+03
  5.753038E+03
  5.734737E+03
  5.716437E+03
  5.697051E+03
  5.677004E+03
  5.656956E+03
  5.636909E+03
  5.615577E+03
  5.593695E+03
  5.571813E+03
  5.549932E+03
  5.526170E+03
  5.502362E+03
  5.478554E+03
  5.453861E+03
  5.428028E+03
  5.402196E+03
  5.376203E+03
  5.348243E+03
  5.320284E+03
  5.292325E+03
  5.262395E+03
  5.232202E+03
  5.202008E+03
  5.169824E+03
  5.137284E+03
  5.104744E+03
  5.069825E+03
  5.034821E+03
  4.999229E+03
  4.961641E+03
  4.924053E+03
  4.884765E+03
  4.844467E+03
  4.803725E+03
  4.760586E+03
  4.717446E+03
  4.671902E+03
  4.625789E+03
  4.577877E+03
  4.528653E+03
  4.477936E+03
  4.425461E+03
  4.371469E+03
  4.315599E+03
  4.257841E+03
  4.198441E+03
  4.136437E+03
  4.073411E+03
  4.006742E+03
  3.938755E+03
  3.868408E+03
  3.795217E+03
  3.720203E+03
  3.642822E+03
  3.562369E+03
  3.479679E+03
  3.394476E+03
  3.306434E+03
  3.214956E+03
  3.120121E+03
  3.023332E+03
  2.925697E+03
  2.836496E+03
  2.801542E+03
  2.812457E+03
  2.756905E+03
  3.484810E+03
  1.129313E+03
  3.186711E-03
  2.569171E+02
  2.569059E+02
  2.568947E+02
  2.568835E+02
  2.568723E+02
  2.568611E+02
  2.568500E+02
  2.568388E+02
  2.568276E+02
  2.568264E+02
  2.568256E+02
  2.568249E+02
  2.568241E+02
  2.568233E+02
  2.568226E+02
  2.568218E+02
  2.568403E+02
  2.568994E+02
  2.569584E+02
  2.570175E+02
  2.570765E+02
  2.571356E+02
  2.571946E+02
  2.572571E+02
  2.573682E+02
  2.574792E+02
  2.575902E+02
  2.577013E+02
  2.578123E+02
  2.579234E+02
  2.580379E+02
  2.581695E+02
  2.583010E+02
  2.584325E+02
  2.585640E+02
  2.586955E+02
  2.588270E+02
  2.589669E+02
  2.591119E+02
  2.592568E+02
  2.594018E+02
  2.595468E+02
  2.596917E+02
  2.598433E+02
  2.600048E+02
  2.601663E+02
  2.603278E+02
  2.604893E+02
  2.606508E+02
  2.608199E+02
  2.609967E+02
  2.611736E+02
  2.613505E+02
  2.615273E+02
  2.617042E+02
  2.618916E+02
  2.620804E+02
  2.622692E+02
  2.624580E+02
  2.626468E+02
  2.628406E+02
  2.630386E+02
  2.632366E+02
  2.634346E+02
  2.636326E+02
  2.638337E+02
  2.640382E+02
  2.642428E+02
  2.644473E+02
  2.646518E+02
  2.648587E+02
  2.650666E+02
  2.652746E+02
  2.654826E+02
  2.656906E+02
  2.658984E+02
  2.661063E+02
  2.663141E+02
  2.665220E+02
  2.667269E+02
  2.669308E+02
  2.671347E+02
  2.673386E+02
  2.675376E+02
  2.677336E+02
  2.679296E+02
  2.681256E+02
  2.683131E+02
  2.684970E+02
  2.686810E+02
  2.688649E+02
  2.690330E+02
  2.692006E+02
  2.693683E+02
  2.695271E+02
  2.696743E+02
  2.698216E+02
  2.699670E+02
  2.700898E+02
  2.702126E+02
  2.703355E+02
  2.704335E+02
  2.705282E+02
  2.706229E+02
  2.706910E+02
  2.707544E+02
  2.708178E+02
  2.708487E+02
  2.708785E+02
  2.709003E+02
  2.708950E+02
  2.708896E+02
  2.708612E+02
  2.708190E+02
  2.707710E+02
  2.706909E+02
  2.706109E+02
  2.705013E+02
  2.703846E+02
  2.702486E+02
  2.700985E+02
  2.699352E+02
  2.697563E+02
  2.695675E+02
  2.693661E+02
  2.691591E+02
  2.689471E+02
  2.687443E+02
  2.685450E+02
  2.683980E+02
  2.682923E+02
  2.682614E+02
  2.683935E+02
  2.686684E+02
  2.691613E+02
  2.700655E+02
  2.713503E+02
  2.731075E+02
  2.754528E+02
  2.785720E+02
  2.827888E+02
  2.885026E+02
  2.963907E+02
  3.089109E+02
  3.350685E+02
  3.771989E+02
  4.254717E+02
  5.895713E+02
  1.371675E+02
  1.109199E-03
  1.356326E+03
  1.356240E+03
  1.356154E+03
  1.356068E+03
  1.355982E+03
  1.355896E+03
  1.355810E+03
  1.355724E+03
  1.355638E+03
  1.355432E+03
  1.355222E+03
  1.355011E+03
  1.354801E+03
  1.354590E+03
  1.354380E+03
  1.354169E+03
  1.353944E+03
  1.353688E+03
  1.353432E+03
  1.353176E+03
  1.352920E+03
  1.352664E+03
  1.352408E+03
  1.352149E+03
  1.351844E+03
  1.351540E+03
  1.351235E+03
  1.350931E+03
  1.350626E+03
  1.350321E+03
  1.350002E+03
  1.349613E+03
  1.349224E+03
  1.348835E+03
  1.348446E+03
  1.348056E+03
  1.347667E+03
  1.347215E+03
  1.346724E+03
  1.346234E+03
  1.345744E+03
  1.345253E+03
  1.344763E+03
  1.344230E+03
  1.343632E+03
  1.343035E+03
  1.342438E+03
  1.341841E+03
  1.341244E+03
  1.340589E+03
  1.339876E+03
  1.339163E+03
  1.338450E+03
  1.337737E+03
  1.337024E+03
  1.336198E+03
  1.335358E+03
  1.334517E+03
  1.333676E+03
  1.332836E+03
  1.331919E+03
  1.330940E+03
  1.329960E+03
  1.328980E+03
  1.328000E+03
  1.326948E+03
  1.325816E+03
  1.324684E+03
  1.323553E+03
  1.322421E+03
  1.321179E+03
  1.319880E+03
  1.318582E+03
  1.317284E+03
  1.315969E+03
  1.314487E+03
  1.313006E+03
  1.311525E+03
  1.310043E+03
  1.308410E+03
  1.306727E+03
  1.305044E+03
  1.303360E+03
  1.301539E+03
  1.299633E+03
  1.297727E+03
  1.295821E+03
  1.293743E+03
  1.291593E+03
  1.289442E+03
  1.287291E+03
  1.284877E+03
  1.282457E+03
  1.280037E+03
  1.277487E+03
  1.274772E+03
  1.272056E+03
  1.269316E+03
  1.266277E+03
  1.263238E+03
  1.260199E+03
  1.256849E+03
  1.253457E+03
  1.250066E+03
  1.246349E+03
  1.242574E+03
  1.238799E+03
  1.234622E+03
  1.230432E+03
  1.226139E+03
  1.221500E+03
  1.216860E+03
  1.211919E+03
  1.206797E+03
  1.201595E+03
  1.195957E+03
  1.190319E+03
  1.184237E+03
  1.178049E+03
  1.171525E+03
  1.164756E+03
  1.157706E+03
  1.150324E+03
  1.142655E+03
  1.134631E+03
  1.126253E+03
  1.117568E+03
  1.108418E+03
  1.099085E+03
  1.089162E+03
  1.079061E+03
  1.068641E+03
  1.057945E+03
  1.047122E+03
  1.036178E+03
  1.025217E+03
  1.014304E+03
  1.003459E+03
  9.926891E+02
  9.819789E+02
  9.716737E+02
  9.627688E+02
  9.568376E+02
  9.603519E+02
  9.994113E+02
  1.079668E+03
  1.152659E+03
  1.533201E+03
  1.810835E+02
  9.655455E-09
  1.177848E+00
  1.177718E+00
  1.177589E+00
  1.177459E+00
  1.177329E+00
  1.177200E+00
  1.177070E+00
  1.176940E+00
  1.176811E+00
  1.176441E+00
  1.176062E+00
  1.175682E+00
  1.175302E+00
  1.174923E+00
  1.174543E+00
  1.174164E+00
  1.173715E+00
  1.173121E+00
  1.172527E+00
  1.171933E+00
  1.171339E+00
  1.170744E+00
  1.170150E+00
  1.169542E+00
  1.168739E+00
  1.167936E+00
  1.167133E+00
  1.166330E+00
  1.165526E+00
  1.164723E+00
  1.163882E+00
  1.162859E+00
  1.161835E+00
  1.160812E+00
  1.159789E+00
  1.158766E+00
  1.157743E+00
  1.156577E+00
  1.155325E+00
  1.154074E+00
  1.152822E+00
  1.151571E+00
  1.150319E+00
  1.148973E+00
  1.147488E+00
  1.146003E+00
  1.144517E+00
  1.143032E+00
  1.141546E+00
  1.139942E+00
  1.138216E+00
  1.136490E+00
  1.134763E+00
  1.133037E+00
  1.131311E+00
  1.129365E+00
  1.127390E+00
  1.125414E+00
  1.123438E+00
  1.121462E+00
  1.119345E+00
  1.117110E+00
  1.114876E+00
  1.112641E+00
  1.110406E+00
  1.108042E+00
  1.105538E+00
  1.103033E+00
  1.100529E+00
  1.098025E+00
  1.095333E+00
  1.092547E+00
  1.089762E+00
  1.086976E+00
  1.084163E+00
  1.081083E+00
  1.078003E+00
  1.074923E+00
  1.071844E+00
  1.068533E+00
  1.065145E+00
  1.061756E+00
  1.058368E+00
  1.054779E+00
  1.051067E+00
  1.047356E+00
  1.043644E+00
  1.039695E+00
  1.035643E+00
  1.031592E+00
  1.027541E+00
  1.023141E+00
  1.018733E+00
  1.014325E+00
  1.009754E+00
  1.004971E+00
  1.000188E+00
  9.953757E-01
  9.901992E-01
  9.850227E-01
  9.798461E-01
  9.743048E-01
  9.687146E-01
  9.631245E-01
  9.571658E-01
  9.511412E-01
  9.451166E-01
  9.386514E-01
  9.321707E-01
  9.255809E-01
  9.186217E-01
  9.116625E-01
  9.043886E-01
  8.969275E-01
  8.893845E-01
  8.813974E-01
  8.734104E-01
  8.649782E-01
  8.564405E-01
  8.475699E-01
  8.384564E-01
  8.290663E-01
  8.193509E-01
  8.093545E-01
  7.990104E-01
  7.883168E-01
  7.773194E-01
  7.658396E-01
  7.541707E-01
  7.418272E-01
  7.292398E-01
  7.162154E-01
  7.026646E-01
  6.887760E-01
  6.744493E-01
  6.595539E-01
  6.442444E-01
  6.284695E-01
  6.121688E-01
  5.952323E-01
  5.776741E-01
  5.597541E-01
  5.416774E-01
  5.251624E-01
  5.186908E-01
  5.207117E-01
  5.104264E-01
  6.451943E-01
  2.090864E-01
  5.900028E-07
  9.590178E-01
  9.589760E-01
  9.589343E-01
  9.588925E-01
  9.588508E-01
  9.588091E-01
  9.587673E-01
  9.587256E-01
  9.586838E-01
  9.586794E-01
  9.586765E-01
  9.586736E-01
  9.586708E-01
  9.586679E-01
  9.586650E-01
  9.586621E-01
  9.587313E-01
  9.589517E-01
  9.591721E-01
  9.593925E-01
  9.596129E-01
  9.598334E-01
  9.600538E-01
  9.602871E-01
  9.607016E-01
  9.611161E-01
  9.615306E-01
  9.619451E-01
  9.623596E-01
  9.627740E-01
  9.632018E-01
  9.636927E-01
  9.641836E-01
  9.646745E-01
  9.651654E-01
  9.656563E-01
  9.661472E-01
  9.666695E-01
  9.672106E-01
  9.677517E-01
  9.682928E-01
  9.688339E-01
  9.693750E-01
  9.699410E-01
  9.705438E-01
  9.711466E-01
  9.717493E-01
  9.723521E-01
  9.729549E-01
  9.735861E-01
  9.742463E-01
  9.749065E-01
  9.755667E-01
  9.762269E-01
  9.768871E-01
  9.775866E-01
  9.782914E-01
  9.789962E-01
  9.797010E-01
  9.804058E-01
  9.811292E-01
  9.818683E-01
  9.826073E-01
  9.833463E-01
  9.840853E-01
  9.848360E-01
  9.855995E-01
  9.863630E-01
  9.871265E-01
  9.878900E-01
  9.886621E-01
  9.894384E-01
  9.902147E-01
  9.909911E-01
  9.917674E-01
  9.925432E-01
  9.933191E-01
  9.940950E-01
  9.948708E-01
  9.956357E-01
  9.963969E-01
  9.971580E-01
  9.979192E-01
  9.986620E-01
  9.993936E-01
  1.000125E+00
  1.000857E+00
  1.001557E+00
  1.002243E+00
  1.002930E+00
  1.003617E+00
  1.004244E+00
  1.004870E+00
  1.005496E+00
  1.006088E+00
  1.006638E+00
  1.007188E+00
  1.007730E+00
  1.008189E+00
  1.008647E+00
  1.009106E+00
  1.009472E+00
  1.009825E+00
  1.010179E+00
  1.010433E+00
  1.010670E+00
  1.010906E+00
  1.011022E+00
  1.011133E+00
  1.011214E+00
  1.011194E+00
  1.011174E+00
  1.011068E+00
  1.010911E+00
  1.010731E+00
  1.010433E+00
  1.010134E+00
  1.009725E+00
  1.009289E+00
  1.008782E+00
  1.008221E+00
  1.007612E+00
  1.006944E+00
  1.006239E+00
  1.005488E+00
  1.004715E+00
  1.003924E+00
  1.003166E+00
  1.002422E+00
  1.001874E+00
  1.001479E+00
  1.001364E+00
  1.001857E+00
  1.002883E+00
  1.004723E+00
  1.008098E+00
  1.012894E+00
  1.019453E+00
  1.028208E+00
  1.039851E+00
  1.055592E+00
  1.076920E+00
  1.106365E+00
  1.153100E+00
  1.250741E+00
  1.408005E+00
  1.588197E+00
  2.200747E+00
  5.120176E-01
  4.140407E-06
  1.079561E+00
  1.079493E+00
  1.079424E+00
  1.079356E+00
  1.079288E+00
  1.079219E+00
  1.079151E+00
  1.079082E+00
  1.079014E+00
  1.078850E+00
  1.078683E+00
  1.078515E+00
  1.078347E+00
  1.078180E+00
  1.078012E+00
  1.077845E+00
  1.077666E+00
  1.077462E+00
  1.077258E+00
  1.077054E+00
  1.076851E+00
  1.076647E+00
  1.076443E+00
  1.076237E+00
  1.075994E+00
  1.075752E+00
  1.075510E+00
  1.075267E+00
  1.075025E+00
  1.074782E+00
  1.074528E+00
  1.074218E+00
  1.073909E+00
  1.073599E+00
  1.073289E+00
  1.072979E+00
  1.072670E+00
  1.072310E+00
  1.071919E+00
  1.071529E+00
  1.071139E+00
  1.070748E+00
  1.070358E+00
  1.069934E+00
  1.069458E+00
  1.068983E+00
  1.068508E+00
  1.068032E+00
  1.067557E+00
  1.067036E+00
  1.066468E+00
  1.065901E+00
  1.065333E+00
  1.064766E+00
  1.064198E+00
  1.063541E+00
  1.062872E+00
  1.062203E+00
  1.061534E+00
  1.060865E+00
  1.060135E+00
  1.059355E+00
  1.058576E+00
  1.057796E+00
  1.057016E+00
  1.056178E+00
  1.055277E+00
  1.054377E+00
  1.053476E+00
  1.052575E+00
  1.051586E+00
  1.050553E+00
  1.049520E+00
  1.048486E+00
  1.047440E+00
  1.046260E+00
  1.045081E+00
  1.043902E+00
  1.042723E+00
  1.041423E+00
  1.040084E+00
  1.038744E+00
  1.037404E+00
  1.035954E+00
  1.034437E+00
  1.032920E+00
  1.031403E+00
  1.029749E+00
  1.028037E+00
  1.026325E+00
  1.024613E+00
  1.022692E+00
  1.020766E+00
  1.018839E+00
  1.016810E+00
  1.014649E+00
  1.012487E+00
  1.010306E+00
  1.007887E+00
  1.005469E+00
  1.003050E+00
  1.000383E+00
  9.976837E-01
  9.949841E-01
  9.920257E-01
  9.890209E-01
  9.860162E-01
  9.826919E-01
  9.793565E-01
  9.759396E-01
  9.722471E-01
  9.685547E-01
  9.646215E-01
  9.605450E-01
  9.564045E-01
  9.519169E-01
  9.474294E-01
  9.425882E-01
  9.376631E-01
  9.324705E-01
  9.270827E-01
  9.214708E-01
  9.155954E-01
  9.094913E-01
  9.031042E-01
  8.964360E-01
  8.895235E-01
  8.822404E-01
  8.748121E-01
  8.669139E-01
  8.588738E-01
  8.505800E-01
  8.420667E-01
  8.334524E-01
  8.247416E-01
  8.160167E-01
  8.073308E-01
  7.986987E-01
  7.901264E-01
  7.816017E-01
  7.733993E-01
  7.663115E-01
  7.615906E-01
  7.643878E-01
  7.954769E-01
  8.593566E-01
  9.174538E-01
  1.220345E+00
  1.441326E-01
  7.685216E-12
  5.633403E-01
  5.632782E-01
  5.632162E-01
  5.631542E-01
  5.630922E-01
  5.630302E-01
  5.629682E-01
  5.629062E-01
  5.628442E-01
  5.626675E-01
  5.624859E-01
  5.623044E-01
  5.621229E-01
  5.619413E-01
  5.617598E-01
  5.615783E-01
  5.613636E-01
  5.610795E-01
  5.607953E-01
  5.605112E-01
  5.602270E-01
  5.599429E-01
  5.596587E-01
  5.593679E-01
  5.589837E-01
  5.585996E-01
  5.582154E-01
  5.578313E-01
  5.574471E-01
  5.570630E-01
  5.566606E-01
  5.561712E-01
  5.556819E-01
  5.551925E-01
  5.547032E-01
  5.542138E-01
  5.537245E-01
  5.531668E-01
  5.525682E-01
  5.519697E-01
  5.513711E-01
  5.507725E-01
  5.501739E-01
  5.495301E-01
  5.488197E-01
  5.481093E-01
  5.473989E-01
  5.466885E-01
  5.459780E-01
  5.452107E-01
  5.443851E-01
  5.435595E-01
  5.427339E-01
  5.419083E-01
  5.410827E-01
  5.401521E-01
  5.392071E-01
  5.382622E-01
  5.373172E-01
  5.363723E-01
  5.353596E-01
  5.342908E-01
  5.332219E-01
  5.321531E-01
  5.310842E-01
  5.299536E-01
  5.287558E-01
  5.275580E-01
  5.263602E-01
  5.251625E-01
  5.238751E-01
  5.225428E-01
  5.212105E-01
  5.198782E-01
  5.185328E-01
  5.170598E-01
  5.155867E-01
  5.141137E-01
  5.126406E-01
  5.110572E-01
  5.094367E-01
  5.078162E-01
  5.061956E-01
  5.044790E-01
  5.027038E-01
  5.009286E-01
  4.991533E-01
  4.972644E-01
  4.953267E-01
  4.933891E-01
  4.914514E-01
  4.893474E-01
  4.872391E-01
  4.851309E-01
  4.829443E-01
  4.806568E-01
  4.783693E-01
  4.760676E-01
  4.735918E-01
  4.711160E-01
  4.686401E-01
  4.659898E-01
  4.633162E-01
  4.606425E-01
  4.577926E-01
  4.549112E-01
  4.520297E-01
  4.489376E-01
  4.458380E-01
  4.426862E-01
  4.393578E-01
  4.360293E-01
  4.325504E-01
  4.289819E-01
  4.253742E-01
  4.215541E-01
  4.177341E-01
  4.137012E-01
  4.096178E-01
  4.053751E-01
  4.010163E-01
  3.965252E-01
  3.918786E-01
  3.870975E-01
  3.821501E-01
  3.770356E-01
  3.717758E-01
  3.662852E-01
  3.607043E-01
  3.548006E-01
  3.487803E-01
  3.425510E-01
  3.360699E-01
  3.294273E-01
  3.225752E-01
  3.154510E-01
  3.081288E-01
  3.005839E-01
  2.927877E-01
  2.846873E-01
  2.762896E-01
  2.677188E-01
  2.590731E-01
  2.511743E-01
  2.480791E-01
  2.490456E-01
  2.441264E-01
  3.085831E-01
  1.223563E-01
  2.316897E-02
  2.275024E-02
  2.274925E-02
  2.274826E-02
  2.274727E-02
  2.274628E-02
  2.274529E-02
  2.274430E-02
  2.274331E-02
  2.274232E-02
  2.274221E-02
  2.274214E-02
  2.274207E-02
  2.274201E-02
  2.274194E-02
  2.274187E-02
  2.274180E-02
  2.274344E-02
  2.274867E-02
  2.275390E-02
  2.275913E-02
  2.276436E-02
  2.276959E-02
  2.277481E-02
  2.278035E-02
  2.279018E-02
  2.280002E-02
  2.280985E-02
  2.281968E-02
  2.282951E-02
  2.283935E-02
  2.284949E-02
  2.286114E-02
  2.287278E-02
  2.288443E-02
  2.289608E-02
  2.290772E-02
  2.291937E-02
  2.293176E-02
  2.294459E-02
  2.295743E-02
  2.297026E-02
  2.298310E-02
  2.299594E-02
  2.300936E-02
  2.302366E-02
  2.303796E-02
  2.305226E-02
  2.306656E-02
  2.308086E-02
  2.309583E-02
  2.311150E-02
  2.312716E-02
  2.314282E-02
  2.315848E-02
  2.317414E-02
  2.319073E-02
  2.320745E-02
  2.322417E-02
  2.324089E-02
  2.325761E-02
  2.327478E-02
  2.329231E-02
  2.330984E-02
  2.332737E-02
  2.334490E-02
  2.336271E-02
  2.338082E-02
  2.339893E-02
  2.341705E-02
  2.343516E-02
  2.345347E-02
  2.347189E-02
  2.349031E-02
  2.350872E-02
  2.352714E-02
  2.354554E-02
  2.356395E-02
  2.358235E-02
  2.360076E-02
  2.361890E-02
  2.363696E-02
  2.365502E-02
  2.367307E-02
  2.369070E-02
  2.370805E-02
  2.372541E-02
  2.374276E-02
  2.375937E-02
  2.377565E-02
  2.379194E-02
  2.380823E-02
  2.382311E-02
  2.383796E-02
  2.385281E-02
  2.386687E-02
  2.387990E-02
  2.389294E-02
  2.390582E-02
  2.391670E-02
  2.392757E-02
  2.393845E-02
  2.394713E-02
  2.395551E-02
  2.396390E-02
  2.396993E-02
  2.397555E-02
  2.398116E-02
  2.398390E-02
  2.398653E-02
  2.398846E-02
  2.398799E-02
  2.398752E-02
  2.398500E-02
  2.398127E-02
  2.397701E-02
  2.396993E-02
  2.396284E-02
  2.395313E-02
  2.394280E-02
  2.393076E-02
  2.391747E-02
  2.390300E-02
  2.388717E-02
  2.387044E-02
  2.385261E-02
  2.383428E-02
  2.381551E-02
  2.379755E-02
  2.377990E-02
  2.376689E-02
  2.375753E-02
  2.375479E-02
  2.376649E-02
  2.379083E-02
  2.383448E-02
  2.391455E-02
  2.402831E-02
  2.418392E-02
  2.439160E-02
  2.466780E-02
  2.504120E-02
  2.554716E-02
  2.624567E-02
  2.735434E-02
  2.967062E-02
  3.340130E-02
  3.767590E-02
  5.220707E-02
  1.486152E-02
  8.064427E-03
  1.201039E-01
  1.200962E-01
  1.200886E-01
  1.200810E-01
  1.200734E-01
  1.200658E-01
  1.200582E-01
  1.200505E-01
  1.200429E-01
  1.200247E-01
  1.200061E-01
  1.199875E-01
  1.199688E-01
  1.199502E-01
  1.199315E-01
  1.199129E-01
  1.198930E-01
  1.198703E-01
  1.198476E-01
  1.198250E-01
  1.198023E-01
  1.197796E-01
  1.197570E-01
  1.197340E-01
  1.197070E-01
  1.196801E-01
  1.196531E-01
  1.196261E-01
  1.195992E-01
  1.195722E-01
  1.195439E-01
  1.195095E-01
  1.194750E-01
  1.194405E-01
  1.194061E-01
  1.193716E-01
  1.193371E-01
  1.192971E-01
  1.192537E-01
  1.192102E-01
  1.191668E-01
  1.191234E-01
  1.190800E-01
  1.190327E-01
  1.189799E-01
  1.189270E-01
  1.188741E-01
  1.188212E-01
  1.187683E-01
  1.187104E-01
  1.186472E-01
  1.185841E-01
  1.185209E-01
  1.184578E-01
  1.183946E-01
  1.183216E-01
  1.182471E-01
  1.181727E-01
  1.180983E-01
  1.180238E-01
  1.179427E-01
  1.178559E-01
  1.177691E-01
  1.176824E-01
  1.175956E-01
  1.175024E-01
  1.174022E-01
  1.173020E-01
  1.172018E-01
  1.171016E-01
  1.169916E-01
  1.168766E-01
  1.167616E-01
  1.166467E-01
  1.165302E-01
  1.163990E-01
  1.162679E-01
  1.161367E-01
  1.160055E-01
  1.158609E-01
  1.157119E-01
  1.155628E-01
  1.154137E-01
  1.152524E-01
  1.150837E-01
  1.149149E-01
  1.147461E-01
  1.145622E-01
  1.143717E-01
  1.141812E-01
  1.139908E-01
  1.137770E-01
  1.135627E-01
  1.133484E-01
  1.131226E-01
  1.128822E-01
  1.126417E-01
  1.123991E-01
  1.121300E-01
  1.118609E-01
  1.115917E-01
  1.112951E-01
  1.109948E-01
  1.106944E-01
  1.103653E-01
  1.100310E-01
  1.096967E-01
  1.093269E-01
  1.089558E-01
  1.085757E-01
  1.081649E-01
  1.077541E-01
  1.073165E-01
  1.068630E-01
  1.064024E-01
  1.059031E-01
  1.054039E-01
  1.048653E-01
  1.043173E-01
  1.037396E-01
  1.031402E-01
  1.025159E-01
  1.018622E-01
  1.011831E-01
  1.004726E-01
  9.973071E-02
  9.896168E-02
  9.815142E-02
  9.732500E-02
  9.644631E-02
  9.555182E-02
  9.462912E-02
  9.368199E-02
  9.272363E-02
  9.175453E-02
  9.078387E-02
  8.981754E-02
  8.885719E-02
  8.790351E-02
  8.695512E-02
  8.604258E-02
  8.525405E-02
  8.472883E-02
  8.504003E-02
  8.849877E-02
  9.560554E-02
  1.020690E-01
  1.357663E-01
  1.961964E-02
  7.019996E-08
  5.633944E-01
  5.633324E-01
  5.632704E-01
  5.632084E-01
  5.631464E-01
  5.630844E-01
  5.630224E-01
  5.629604E-01
  5.628984E-01
  5.627216E-01
  5.625401E-01
  5.623586E-01
  5.621770E-01
  5.619955E-01
  5.618140E-01
  5.616325E-01
  5.614179E-01
  5.611337E-01
  5.608496E-01
  5.605655E-01
  5.602814E-01
  5.599972E-01
  5.597131E-01
  5.594223E-01
  5.590382E-01