 Title= "ADflow Lift Distribution Data"
Variables = "eta" "CoordinateX" "CoordinateY" "CoordinateZ" "Lift" "Drag" "Moment" "Normalized Lift" "Normalized Drag" "Normalized Moment" "CL" "CD" "CM" "CLp" "CDp" "CMp" "CLv" "CDv" "CMv" "Elliptical" "thickness" "twist" "chord" "fx" "fy" "fz" 
Zone T= "LiftDist_01 allWalls: : z normal"
 I=          150
 DATAPACKING=BLOCK
  0.000000E+00
  6.711405E-03
  1.342281E-02
  2.013422E-02
  2.684563E-02
  3.355704E-02
  4.026845E-02
  4.697986E-02
  5.369127E-02
  6.040268E-02
  6.711409E-02
  7.382550E-02
  8.053691E-02
  8.724832E-02
  9.395973E-02
  1.006711E-01
  1.073825E-01
  1.140940E-01
  1.208054E-01
  1.275168E-01
  1.342282E-01
  1.409396E-01
  1.476510E-01
  1.543624E-01
  1.610738E-01
  1.677852E-01
  1.744966E-01
  1.812081E-01
  1.879195E-01
  1.946309E-01
  2.013423E-01
  2.080537E-01
  2.147651E-01
  2.214765E-01
  2.281879E-01
  2.348993E-01
  2.416107E-01
  2.483221E-01
  2.550336E-01
  2.617450E-01
  2.684564E-01
  2.751678E-01
  2.818792E-01
  2.885906E-01
  2.953020E-01
  3.020134E-01
  3.087248E-01
  3.154362E-01
  3.221476E-01
  3.288591E-01
  3.355705E-01
  3.422819E-01
  3.489933E-01
  3.557047E-01
  3.624161E-01
  3.691275E-01
  3.758389E-01
  3.825503E-01
  3.892617E-01
  3.959732E-01
  4.026846E-01
  4.093960E-01
  4.161074E-01
  4.228188E-01
  4.295302E-01
  4.362416E-01
  4.429530E-01
  4.496644E-01
  4.563758E-01
  4.630872E-01
  4.697987E-01
  4.765101E-01
  4.832215E-01
  4.899329E-01
  4.966443E-01
  5.033557E-01
  5.100671E-01
  5.167785E-01
  5.234899E-01
  5.302013E-01
  5.369128E-01
  5.436242E-01
  5.503356E-01
  5.570470E-01
  5.637584E-01
  5.704698E-01
  5.771812E-01
  5.838926E-01
  5.906040E-01
  5.973154E-01
  6.040268E-01
  6.107383E-01
  6.174497E-01
  6.241611E-01
  6.308725E-01
  6.375839E-01
  6.442953E-01
  6.510067E-01
  6.577181E-01
  6.644295E-01
  6.711409E-01
  6.778524E-01
  6.845638E-01
  6.912752E-01
  6.979866E-01
  7.046980E-01
  7.114094E-01
  7.181208E-01
  7.248322E-01
  7.315436E-01
  7.382550E-01
  7.449664E-01
  7.516779E-01
  7.583893E-01
  7.651007E-01
  7.718121E-01
  7.785235E-01
  7.852349E-01
  7.919463E-01
  7.986577E-01
  8.053691E-01
  8.120805E-01
  8.187919E-01
  8.255034E-01
  8.322148E-01
  8.389262E-01
  8.456376E-01
  8.523490E-01
  8.590604E-01
  8.657718E-01
  8.724832E-01
  8.791946E-01
  8.859060E-01
  8.926175E-01
  8.993289E-01
  9.060403E-01
  9.127517E-01
  9.194631E-01
  9.261745E-01
  9.328859E-01
  9.395973E-01
  9.463087E-01
  9.530201E-01
  9.597315E-01
  9.664430E-01
  9.731544E-01
  9.798658E-01
  9.865772E-01
  9.932886E-01
  1.000000E+00
  0.000000E+00
  0.000000E+00
  0.000000E+00
  0.000000E+00
  0.000000E+00
  0.000000E+00
  0.000000E+00
  0.000000E+00
  0.000000E+00
  0.000000E+00
  0.000000E+00
  0.000000E+00
  0.000000E+00
  0.000000E+00
  0.000000E+00
  0.000000E+00
  0.000000E+00
  0.000000E+00
  0.000000E+00
  0.000000E+00
  0.000000E+00
  0.000000E+00
  0.000000E+00
  0.000000E+00
  0.000000E+00
  0.000000E+00
  0.000000E+00
  0.000000E+00
  0.000000E+00
  0.000000E+00
  0.000000E+00
  0.000000E+00
  0.000000E+00
  0.000000E+00
  0.000000E+00
  0.000000E+00
  0.000000E+00
  0.000000E+00
  0.000000E+00
  0.000000E+00
  0.000000E+00
  0.000000E+00
  0.000000E+00
  0.000000E+00
  0.000000E+00
  0.000000E+00
  0.000000E+00
  0.000000E+00
  0.000000E+00
  0.000000E+00
  0.000000E+00
  0.000000E+00
  0.000000E+00
  0.000000E+00
  0.000000E+00
  0.000000E+00
  0.000000E+00
  0.000000E+00
  0.000000E+00
  0.000000E+00
  0.000000E+00
  0.000000E+00
  0.000000E+00
  0.000000E+00
  0.000000E+00
  0.000000E+00
  0.000000E+00
  0.000000E+00
  0.000000E+00
  0.000000E+00
  0.000000E+00
  0.000000E+00
  0.000000E+00
  0.000000E+00
  0.000000E+00
  0.000000E+00
  0.000000E+00
  0.000000E+00
  0.000000E+00
  0.000000E+00
  0.000000E+00
  0.000000E+00
  0.000000E+00
  0.000000E+00
  0.000000E+00
  0.000000E+00
  0.000000E+00
  0.000000E+00
  0.000000E+00
  0.000000E+00
  0.000000E+00
  0.000000E+00
  0.000000E+00
  0.000000E+00
  0.000000E+00
  0.000000E+00
  0.000000E+00
  0.000000E+00
  0.000000E+00
  0.000000E+00
  0.000000E+00
  0.000000E+00
  0.000000E+00
  0.000000E+00
  0.000000E+00
  0.000000E+00
  0.000000E+00
  0.000000E+00
  0.000000E+00
  0.000000E+00
  0.000000E+00
  0.000000E+00
  0.000000E+00
  0.000000E+00
  0.000000E+00
  0.000000E+00
  0.000000E+00
  0.000000E+00
  0.000000E+00
  0.000000E+00
  0.000000E+00
  0.000000E+00
  0.000000E+00
  0.000000E+00
  0.000000E+00
  0.000000E+00
  0.000000E+00
  0.000000E+00
  0.000000E+00
  0.000000E+00
  0.000000E+00
  0.000000E+00
  0.000000E+00
  0.000000E+00
  0.000000E+00
  0.000000E+00
  0.000000E+00
  0.000000E+00
  0.000000E+00
  0.000000E+00
  0.000000E+00
  0.000000E+00
  0.000000E+00
  0.000000E+00
  0.000000E+00
  0.000000E+00
  0.000000E+00
  0.000000E+00
  0.000000E+00
  0.000000E+00
  0.000000E+00
  0.000000E+00
  0.000000E+00
  0.000000E+00
  0.000000E+00
  0.000000E+00
  0.000000E+00
  0.000000E+00
  0.000000E+00
  0.000000E+00
  0.000000E+00
  0.000000E+00
  0.000000E+00
  0.000000E+00
  0.000000E+00
  0.000000E+00
  0.000000E+00
  0.000000E+00
  0.000000E+00
  0.000000E+00
  0.000000E+00
  0.000000E+00
  0.000000E+00
  0.000000E+00
  0.000000E+00
  0.000000E+00
  0.000000E+00
  0.000000E+00
  0.000000E+00
  0.000000E+00
  0.000000E+00
  0.000000E+00
  0.000000E+00
  0.000000E+00
  0.000000E+00
  0.000000E+00
  0.000000E+00
  0.000000E+00
  0.000000E+00
  0.000000E+00
  0.000000E+00
  0.000000E+00
  0.000000E+00
  0.000000E+00
  0.000000E+00
  0.000000E+00
  0.000000E+00
  0.000000E+00
  0.000000E+00
  0.000000E+00
  0.000000E+00
  0.000000E+00
  0.000000E+00
  0.000000E+00
  0.000000E+00
  0.000000E+00
  0.000000E+00
  0.000000E+00
  0.000000E+00
  0.000000E+00
  0.000000E+00
  0.000000E+00
  0.000000E+00
  0.000000E+00
  0.000000E+00
  0.000000E+00
  0.000000E+00
  0.000000E+00
  0.000000E+00
  0.000000E+00
  0.000000E+00
  0.000000E+00
  0.000000E+00
  0.000000E+00
  0.000000E+00
  0.000000E+00
  0.000000E+00
  0.000000E+00
  0.000000E+00
  0.000000E+00
  0.000000E+00
  0.000000E+00
  0.000000E+00
  0.000000E+00
  0.000000E+00
  0.000000E+00
  0.000000E+00
  0.000000E+00
  0.000000E+00
  0.000000E+00
  0.000000E+00
  0.000000E+00
  0.000000E+00
  0.000000E+00
  0.000000E+00
  0.000000E+00
  0.000000E+00
  0.000000E+00
  0.000000E+00
  0.000000E+00
  0.000000E+00
  0.000000E+00
  0.000000E+00
  0.000000E+00
  0.000000E+00
  0.000000E+00
  0.000000E+00
  0.000000E+00
  0.000000E+00
  0.000000E+00
  0.000000E+00
  0.000000E+00
  0.000000E+00
  0.000000E+00
  0.000000E+00
  0.000000E+00
  0.000000E+00
  0.000000E+00
  0.000000E+00
  0.000000E+00
  0.000000E+00
  0.000000E+00
  0.000000E+00
  0.000000E+00
  0.000000E+00
  0.000000E+00
  0.000000E+00
  0.000000E+00
  0.000000E+00
  0.000000E+00
  0.000000E+00
  0.000000E+00
  0.000000E+00
  0.000000E+00
  0.000000E+00
  0.000000E+00
  0.000000E+00
  0.000000E+00
  0.000000E+00
  0.000000E+00
  0.000000E+00
  0.000000E+00
  0.000000E+00
  0.000000E+00
  0.000000E+00
  0.000000E+00
  0.000000E+00
  0.000000E+00
  0.000000E+00
  0.000000E+00
  1.000000E-08
  1.691809E-02
  3.383618E-02
  5.075427E-02
  6.767237E-02
  8.459046E-02
  1.015085E-01
  1.184266E-01
  1.353447E-01
  1.522628E-01
  1.691809E-01
  1.860990E-01
  2.030171E-01
  2.199352E-01
  2.368533E-01
  2.537714E-01
  2.706895E-01
  2.876076E-01
  3.045256E-01
  3.214437E-01
  3.383618E-01
  3.552799E-01
  3.721980E-01
  3.891161E-01
  4.060342E-01
  4.229523E-01
  4.398704E-01
  4.567885E-01
  4.737066E-01
  4.906247E-01
  5.075427E-01
  5.244608E-01
  5.413789E-01
  5.582970E-01
  5.752151E-01
  5.921332E-01
  6.090513E-01
  6.259694E-01
  6.428875E-01
  6.598056E-01
  6.767237E-01
  6.936418E-01
  7.105598E-01
  7.274779E-01
  7.443960E-01
  7.613141E-01
  7.782322E-01
  7.951503E-01
  8.120684E-01
  8.289865E-01
  8.459046E-01
  8.628227E-01
  8.797408E-01
  8.966589E-01
  9.135769E-01
  9.304950E-01
  9.474131E-01
  9.643312E-01
  9.812493E-01
  9.981674E-01
  1.015085E+00
  1.032004E+00
  1.048922E+00
  1.065840E+00
  1.082758E+00
  1.099676E+00
  1.116594E+00
  1.133512E+00
  1.150430E+00
  1.167348E+00
  1.184266E+00
  1.201185E+00
  1.218103E+00
  1.235021E+00
  1.251939E+00
  1.268857E+00
  1.285775E+00
  1.302693E+00
  1.319611E+00
  1.336529E+00
  1.353447E+00
  1.370365E+00
  1.387284E+00
  1.404202E+00
  1.421120E+00
  1.438038E+00
  1.454956E+00
  1.471874E+00
  1.488792E+00
  1.505710E+00
  1.522628E+00
  1.539546E+00
  1.556464E+00
  1.573383E+00
  1.590301E+00
  1.607219E+00
  1.624137E+00
  1.641055E+00
  1.657973E+00
  1.674891E+00
  1.691809E+00
  1.708727E+00
  1.725645E+00
  1.742563E+00
  1.759482E+00
  1.776400E+00
  1.793318E+00
  1.810236E+00
  1.827154E+00
  1.844072E+00
  1.860990E+00
  1.877908E+00
  1.894826E+00
  1.911744E+00
  1.928662E+00
  1.945581E+00
  1.962499E+00
  1.979417E+00
  1.996335E+00
  2.013253E+00
  2.030171E+00
  2.047089E+00
  2.064007E+00
  2.080925E+00
  2.097843E+00
  2.114761E+00
  2.131680E+00
  2.148598E+00
  2.165516E+00
  2.182434E+00
  2.199352E+00
  2.216270E+00
  2.233188E+00
  2.250106E+00
  2.267024E+00
  2.283942E+00
  2.300860E+00
  2.317779E+00
  2.334697E+00
  2.351615E+00
  2.368533E+00
  2.385451E+00
  2.402369E+00
  2.419287E+00
  2.436205E+00
  2.453123E+00
  2.470041E+00
  2.486959E+00
  2.503878E+00
  2.520796E+00
  1.097982E+04
  1.097831E+04
  1.097680E+04
  1.097528E+04
  1.097377E+04
  1.097225E+04
  1.097074E+04
  1.096923E+04
  1.096771E+04
  1.096334E+04
  1.095884E+04
  1.095434E+04
  1.094984E+04
  1.094535E+04
  1.094085E+04
  1.093635E+04
  1.093099E+04
  1.092380E+04
  1.091661E+04
  1.090942E+04
  1.090224E+04
  1.089505E+04
  1.088786E+04
  1.088049E+04
  1.087057E+04
  1.086065E+04
  1.085073E+04
  1.084080E+04
  1.083088E+04
  1.082096E+04
  1.081052E+04
  1.079763E+04
  1.078473E+04
  1.077183E+04
  1.075894E+04
  1.074604E+04
  1.073314E+04
  1.071829E+04
  1.070227E+04
  1.068625E+04
  1.067023E+04
  1.065421E+04
  1.063819E+04
  1.062089E+04
  1.060171E+04
  1.058252E+04
  1.056334E+04
  1.054416E+04
  1.052498E+04
  1.050418E+04
  1.048173E+04
  1.045928E+04
  1.043683E+04
  1.041439E+04
  1.039194E+04
  1.036647E+04
  1.034059E+04
  1.031472E+04
  1.028884E+04
  1.026296E+04
  1.023518E+04
  1.020581E+04
  1.017644E+04
  1.014708E+04
  1.011771E+04
  1.008660E+04
  1.005360E+04
  1.002059E+04
  9.987591E+03
  9.954589E+03
  9.918968E+03
  9.882031E+03
  9.845095E+03
  9.808159E+03
  9.770844E+03
  9.729802E+03
  9.688760E+03
  9.647719E+03
  9.606679E+03
  9.562552E+03
  9.517386E+03
  9.472221E+03
  9.427058E+03
  9.379350E+03
  9.330090E+03
  9.280832E+03
  9.231576E+03
  9.179680E+03
  9.126657E+03
  9.073637E+03
  9.020620E+03
  8.964452E+03
  8.908212E+03
  8.851978E+03
  8.794426E+03
  8.735178E+03
  8.675946E+03
  8.616497E+03
  8.554250E+03
  8.492032E+03
  8.429844E+03
  8.365249E+03
  8.300372E+03
  8.235541E+03
  8.168247E+03
  8.100560E+03
  8.032927E+03
  7.961629E+03
  7.890258E+03
  7.817887E+03
  7.741995E+03
  7.666156E+03
  7.587210E+03
  7.506433E+03
  7.424890E+03
  7.338997E+03
  7.253142E+03
  7.163176E+03
  7.072260E+03
  6.978564E+03
  6.882847E+03
  6.785025E+03
  6.684723E+03
  6.582479E+03
  6.477824E+03
  6.371065E+03
  6.262474E+03
  6.151359E+03
  6.039259E+03
  5.924024E+03
  5.807768E+03
  5.689675E+03
  5.569518E+03
  5.448048E+03
  5.324881E+03
  5.199403E+03
  5.072160E+03
  4.942995E+03
  4.811926E+03
  4.679739E+03
  4.551170E+03
  4.436302E+03
  4.351230E+03
  4.322998E+03
  4.413021E+03
  4.545083E+03
  4.291602E+03
  4.578794E+03
  1.332024E+03
  7.300277E-03
  5.973271E+02
  5.972914E+02
  5.972556E+02
  5.972198E+02
  5.971841E+02
  5.971483E+02
  5.971126E+02
  5.970768E+02
  5.970410E+02
  5.969910E+02
  5.969403E+02
  5.968896E+02
  5.968390E+02
  5.967883E+02
  5.967376E+02
  5.966870E+02
  5.966593E+02
  5.966796E+02
  5.967000E+02
  5.967204E+02
  5.967408E+02
  5.967612E+02
  5.967817E+02
  5.968060E+02
  5.968845E+02
  5.969631E+02
  5.970416E+02
  5.971202E+02
  5.971989E+02
  5.972775E+02
  5.973570E+02
  5.974400E+02
  5.975230E+02
  5.976061E+02
  5.976893E+02
  5.977725E+02
  5.978558E+02
  5.979330E+02
  5.980066E+02
  5.980802E+02
  5.981540E+02
  5.982279E+02
  5.983019E+02
  5.983705E+02
  5.984310E+02
  5.984918E+02
  5.985527E+02
  5.986138E+02
  5.986751E+02
  5.987004E+02
  5.986891E+02
  5.986780E+02
  5.986671E+02
  5.986564E+02
  5.986460E+02
  5.984906E+02
  5.983156E+02
  5.981408E+02
  5.979662E+02
  5.977919E+02
  5.975118E+02
  5.971441E+02
  5.967765E+02
  5.964091E+02
  5.960420E+02
  5.955860E+02
  5.950336E+02
  5.944814E+02
  5.939293E+02
  5.933775E+02
  5.927099E+02
  5.919843E+02
  5.912589E+02
  5.905336E+02
  5.897973E+02
  5.889500E+02
  5.881029E+02
  5.872561E+02
  5.864096E+02
  5.854324E+02
  5.844114E+02
  5.833908E+02
  5.823704E+02
  5.810829E+02
  5.796324E+02
  5.781819E+02
  5.767314E+02
  5.748175E+02
  5.727050E+02
  5.705923E+02
  5.684793E+02
  5.656042E+02
  5.627104E+02
  5.598170E+02
  5.564872E+02
  5.525971E+02
  5.487098E+02
  5.447413E+02
  5.397505E+02
  5.347675E+02
  5.297919E+02
  5.241938E+02
  5.185233E+02
  5.128646E+02
  5.071107E+02
  5.013508E+02
  4.956037E+02
  4.901130E+02
  4.846422E+02
  4.792932E+02
  4.743284E+02
  4.693715E+02
  4.648272E+02
  4.605291E+02
  4.563472E+02
  4.527743E+02
  4.492033E+02
  4.462064E+02
  4.433459E+02
  4.408589E+02
  4.386444E+02
  4.366397E+02
  4.348821E+02
  4.332145E+02
  4.316590E+02
  4.301346E+02
  4.286388E+02
  4.271564E+02
  4.256832E+02
  4.242569E+02
  4.228834E+02
  4.216007E+02
  4.205285E+02
  4.196484E+02
  4.190604E+02
  4.190286E+02
  4.195407E+02
  4.207786E+02
  4.230294E+02
  4.269292E+02
  4.339343E+02
  4.462735E+02
  4.677905E+02
  5.048281E+02
  5.700727E+02
  6.556573E+02
  6.984478E+02
  8.231651E+02
  3.688459E+02
  2.338876E-03
  2.005960E+03
  2.005614E+03
  2.005268E+03
  2.004921E+03
  2.004575E+03
  2.004228E+03
  2.003882E+03
  2.003535E+03
  2.003189E+03
  2.002216E+03
  2.001218E+03
  2.000220E+03
  1.999221E+03
  1.998223E+03
  1.997224E+03
  1.996226E+03
  1.995045E+03
  1.993480E+03
  1.991915E+03
  1.990351E+03
  1.988786E+03
  1.987221E+03
  1.985656E+03
  1.984049E+03
  1.981838E+03
  1.979628E+03
  1.977418E+03
  1.975208E+03
  1.972998E+03
  1.970787E+03
  1.968439E+03
  1.965436E+03
  1.962433E+03
  1.959430E+03
  1.956427E+03
  1.953423E+03
  1.950420E+03
  1.946871E+03
  1.942995E+03
  1.939119E+03
  1.935243E+03
  1.931367E+03
  1.927491E+03
  1.923269E+03
  1.918537E+03
  1.913805E+03
  1.909074E+03
  1.904342E+03
  1.899610E+03
  1.894487E+03
  1.888964E+03
  1.883440E+03
  1.877917E+03
  1.872393E+03
  1.866870E+03
  1.860718E+03
  1.854481E+03
  1.848243E+03
  1.842006E+03
  1.835769E+03
  1.829181E+03
  1.822301E+03
  1.815421E+03
  1.808541E+03
  1.801661E+03
  1.794451E+03
  1.786883E+03
  1.779314E+03
  1.771745E+03
  1.764193E+03
  1.756111E+03
  1.747772E+03
  1.739433E+03
  1.731093E+03
  1.722695E+03
  1.713715E+03
  1.704735E+03
  1.695755E+03
  1.686775E+03
  1.677449E+03
  1.668007E+03
  1.658564E+03
  1.649122E+03
  1.639417E+03
  1.629551E+03
  1.619686E+03
  1.609820E+03
  1.599834E+03
  1.589797E+03
  1.579760E+03
  1.569724E+03
  1.559956E+03
  1.550197E+03
  1.540439E+03
  1.530802E+03
  1.521322E+03
  1.511847E+03
  1.502363E+03
  1.492715E+03
  1.483077E+03
  1.473440E+03
  1.463425E+03
  1.453375E+03
  1.443343E+03
  1.432673E+03
  1.421909E+03
  1.411166E+03
  1.399017E+03
  1.386842E+03
  1.374209E+03
  1.359972E+03
  1.345757E+03
  1.330073E+03
  1.313520E+03
  1.296608E+03
  1.277678E+03
  1.258760E+03
  1.238002E+03
  1.216813E+03
  1.194508E+03
  1.171388E+03
  1.147630E+03
  1.123119E+03
  1.098244E+03
  1.072916E+03
  1.047443E+03
  1.021844E+03
  9.964285E+02
  9.710883E+02
  9.465197E+02
  9.224133E+02
  8.991380E+02
  8.772435E+02
  8.563729E+02
  8.369465E+02
  8.197029E+02
  8.042054E+02
  7.908008E+02
  7.800257E+02
  7.732615E+02
  7.742154E+02
  7.892228E+02
  8.295154E+02
  9.119118E+02
  1.063242E+03
  1.251321E+03
  1.302972E+03
  1.406642E+03
 -1.592164E+00
  2.270388E-08
  1.232798E+00
  1.232628E+00
  1.232458E+00
  1.232288E+00
  1.232118E+00
  1.231948E+00
  1.231778E+00
  1.231608E+00
  1.231438E+00
  1.230946E+00
  1.230442E+00
  1.229937E+00
  1.229432E+00
  1.228927E+00
  1.228422E+00
  1.227917E+00
  1.227314E+00
  1.226507E+00
  1.225700E+00
  1.224893E+00
  1.224087E+00
  1.223280E+00
  1.222473E+00
  1.221645E+00
  1.220531E+00
  1.219417E+00
  1.218303E+00
  1.217189E+00
  1.216075E+00
  1.214961E+00
  1.213789E+00
  1.212341E+00
  1.210893E+00
  1.209445E+00
  1.207997E+00
  1.206549E+00
  1.205101E+00
  1.203434E+00
  1.201635E+00
  1.199836E+00
  1.198037E+00
  1.196238E+00
  1.194440E+00
  1.192497E+00
  1.190343E+00
  1.188189E+00
  1.186036E+00
  1.183882E+00
  1.181728E+00
  1.179393E+00
  1.176873E+00
  1.174352E+00
  1.171832E+00
  1.169311E+00
  1.166791E+00
  1.163932E+00
  1.161026E+00
  1.158121E+00
  1.155215E+00
  1.152310E+00
  1.149190E+00
  1.145893E+00
  1.142595E+00
  1.139298E+00
  1.136001E+00
  1.132508E+00
  1.128802E+00
  1.125097E+00
  1.121391E+00
  1.117686E+00
  1.113687E+00
  1.109539E+00
  1.105392E+00
  1.101245E+00
  1.097055E+00
  1.092447E+00
  1.087839E+00
  1.083231E+00
  1.078623E+00
  1.073669E+00
  1.068598E+00
  1.063527E+00
  1.058456E+00
  1.053099E+00
  1.047568E+00
  1.042038E+00
  1.036507E+00
  1.030680E+00
  1.024727E+00
  1.018774E+00
  1.012821E+00
  1.006515E+00
  1.000200E+00
  9.938866E-01
  9.874247E-01
  9.807725E-01
  9.741219E-01
  9.674471E-01
  9.604581E-01
  9.534724E-01
  9.464900E-01
  9.392373E-01
  9.319531E-01
  9.246740E-01
  9.171183E-01
  9.095185E-01
  9.019247E-01
  8.939195E-01
  8.859061E-01
  8.777804E-01
  8.692593E-01
  8.607443E-01
  8.518804E-01
  8.428108E-01
  8.336553E-01
  8.240113E-01
  8.143717E-01
  8.042705E-01
  7.940625E-01
  7.835425E-01
  7.727955E-01
  7.618123E-01
  7.505505E-01
  7.390706E-01
  7.273202E-01
  7.153334E-01
  7.031411E-01
  6.906652E-01
  6.780788E-01
  6.651404E-01
  6.520873E-01
  6.388280E-01
  6.253369E-01
  6.116984E-01
  5.978695E-01
  5.837810E-01
  5.694944E-01
  5.549919E-01
  5.402757E-01
  5.254340E-01
  5.109984E-01
  4.981012E-01
  4.885494E-01
  4.853796E-01
  4.954872E-01
  5.103149E-01
  4.818546E-01
  5.141000E-01
  1.495576E-01
  8.196639E-07
  1.087821E+00
  1.087756E+00
  1.087691E+00
  1.087626E+00
  1.087561E+00
  1.087496E+00
  1.087430E+00
  1.087365E+00
  1.087300E+00
  1.087209E+00
  1.087117E+00
  1.087024E+00
  1.086932E+00
  1.086840E+00
  1.086748E+00
  1.086655E+00
  1.086605E+00
  1.086642E+00
  1.086679E+00
  1.086716E+00
  1.086753E+00
  1.086791E+00
  1.086828E+00
  1.086872E+00
  1.087015E+00
  1.087158E+00
  1.087301E+00
  1.087444E+00
  1.087588E+00
  1.087731E+00
  1.087876E+00
  1.088027E+00
  1.088178E+00
  1.088329E+00
  1.088481E+00
  1.088632E+00
  1.088784E+00
  1.088925E+00
  1.089059E+00
  1.089193E+00
  1.089327E+00
  1.089462E+00
  1.089596E+00
  1.089721E+00
  1.089832E+00
  1.089942E+00
  1.090053E+00
  1.090164E+00
  1.090276E+00
  1.090322E+00
  1.090302E+00
  1.090281E+00
  1.090261E+00
  1.090242E+00
  1.090223E+00
  1.089940E+00
  1.089621E+00
  1.089303E+00
  1.088985E+00
  1.088668E+00
  1.088158E+00
  1.087488E+00
  1.086818E+00
  1.086149E+00
  1.085481E+00
  1.084650E+00
  1.083644E+00
  1.082639E+00
  1.081633E+00
  1.080628E+00
  1.079413E+00
  1.078091E+00
  1.076770E+00
  1.075449E+00
  1.074108E+00
  1.072565E+00
  1.071023E+00
  1.069480E+00
  1.067939E+00
  1.066159E+00
  1.064300E+00
  1.062441E+00
  1.060583E+00
  1.058238E+00
  1.055597E+00
  1.052955E+00
  1.050313E+00
  1.046828E+00
  1.042981E+00
  1.039133E+00
  1.035285E+00
  1.030049E+00
  1.024779E+00
  1.019510E+00
  1.013446E+00
  1.006361E+00
  9.992818E-01
  9.920546E-01
  9.829657E-01
  9.738908E-01
  9.648296E-01
  9.546345E-01
  9.443077E-01
  9.340024E-01
  9.235236E-01
  9.130340E-01
  9.025678E-01
  8.925684E-01
  8.826053E-01
  8.728639E-01
  8.638223E-01
  8.547951E-01
  8.465193E-01
  8.386917E-01
  8.310760E-01
  8.245690E-01
  8.180657E-01
  8.126079E-01
  8.073985E-01
  8.028693E-01
  7.988365E-01
  7.951856E-01
  7.919847E-01
  7.889478E-01
  7.861150E-01
  7.833388E-01
  7.806147E-01
  7.779150E-01
  7.752322E-01
  7.726347E-01
  7.701333E-01
  7.677974E-01
  7.658447E-01
  7.642420E-01
  7.631710E-01
  7.631132E-01
  7.640457E-01
  7.663003E-01
  7.703992E-01
  7.775013E-01
  7.902587E-01
  8.127301E-01
  8.519158E-01
  9.193667E-01
  1.038187E+00
  1.194049E+00
  1.271977E+00
  1.499106E+00
  6.717231E-01
  4.259439E-06
  1.260225E+00
  1.260007E+00
  1.259789E+00
  1.259572E+00
  1.259354E+00
  1.259136E+00
  1.258919E+00
  1.258701E+00
  1.258484E+00
  1.257873E+00
  1.257245E+00
  1.256618E+00
  1.255991E+00
  1.255363E+00
  1.254736E+00
  1.254109E+00
  1.253367E+00
  1.252384E+00
  1.251401E+00
  1.250418E+00
  1.249435E+00
  1.248452E+00
  1.247469E+00
  1.246459E+00
  1.245070E+00
  1.243682E+00
  1.242293E+00
  1.240905E+00
  1.239516E+00
  1.238128E+00
  1.236652E+00
  1.234766E+00
  1.232879E+00
  1.230992E+00
  1.229106E+00
  1.227219E+00
  1.225332E+00
  1.223102E+00
  1.220667E+00
  1.218232E+00
  1.215797E+00
  1.213362E+00
  1.210927E+00
  1.208275E+00
  1.205302E+00
  1.202329E+00
  1.199356E+00
  1.196384E+00
  1.193411E+00
  1.190193E+00
  1.186723E+00
  1.183252E+00
  1.179782E+00
  1.176312E+00
  1.172842E+00
  1.168978E+00
  1.165059E+00
  1.161141E+00
  1.157222E+00
  1.153304E+00
  1.149164E+00
  1.144842E+00
  1.140520E+00
  1.136198E+00
  1.131876E+00
  1.127346E+00
  1.122591E+00
  1.117836E+00
  1.113081E+00
  1.108336E+00
  1.103259E+00
  1.098020E+00
  1.092781E+00
  1.087542E+00
  1.082266E+00
  1.076624E+00
  1.070983E+00
  1.065341E+00
  1.059699E+00
  1.053841E+00
  1.047909E+00
  1.041977E+00
  1.036045E+00
  1.029947E+00
  1.023749E+00
  1.017551E+00
  1.011354E+00
  1.005080E+00
  9.987741E-01
  9.924686E-01
  9.861636E-01
  9.800269E-01
  9.738955E-01
  9.677654E-01
  9.617111E-01
  9.557555E-01
  9.498031E-01
  9.438448E-01
  9.377831E-01
  9.317284E-01
  9.256741E-01
  9.193824E-01
  9.130684E-01
  9.067658E-01
  9.000626E-01
  8.932998E-01
  8.865512E-01
  8.789187E-01
  8.712695E-01
  8.633332E-01
  8.543891E-01
  8.454584E-01
  8.356049E-01
  8.252058E-01
  8.145812E-01
  8.026886E-01
  7.908034E-01
  7.777623E-01
  7.644507E-01
  7.504376E-01
  7.359127E-01
  7.209869E-01
  7.055884E-01
  6.899607E-01
  6.740490E-01
  6.580456E-01
  6.419634E-01
  6.259963E-01
  6.100765E-01
  5.946415E-01
  5.794970E-01
  5.648745E-01
  5.511195E-01
  5.380078E-01
  5.258033E-01
  5.149702E-01
  5.052341E-01
  4.968127E-01
  4.900434E-01
  4.857938E-01
  4.863931E-01
  4.958214E-01
  5.211348E-01
  5.728995E-01
  6.679713E-01
  7.861300E-01
  8.185790E-01
  8.837087E-01
 -1.000261E-03
  1.426348E-11
  9.722700E-01
  9.721360E-01
  9.720020E-01
  9.718680E-01
  9.717340E-01
  9.715999E-01
  9.714659E-01
  9.713319E-01
  9.711979E-01
  9.708102E-01
  9.704120E-01
  9.700138E-01
  9.696156E-01
  9.692175E-01
  9.688193E-01
  9.684211E-01
  9.679461E-01
  9.673097E-01
  9.666734E-01
  9.660370E-01
  9.654006E-01
  9.647643E-01
  9.641280E-01
  9.634755E-01
  9.625969E-01
  9.617184E-01
  9.608399E-01
  9.599615E-01
  9.590830E-01
  9.582045E-01
  9.572803E-01
  9.561384E-01
  9.549966E-01
  9.538547E-01
  9.527129E-01
  9.515711E-01
  9.504293E-01
  9.491144E-01
  9.476959E-01
  9.462774E-01
  9.448588E-01
  9.434404E-01
  9.420219E-01
  9.404902E-01
  9.387917E-01
  9.370932E-01
  9.353947E-01
  9.336963E-01
  9.319979E-01
  9.301564E-01
  9.281687E-01
  9.261810E-01
  9.241933E-01
  9.222057E-01
  9.202181E-01
  9.179632E-01
  9.156717E-01
  9.133803E-01
  9.110890E-01
  9.087977E-01
  9.063375E-01
  9.037370E-01
  9.011365E-01
  8.985360E-01
  8.959356E-01
  8.931809E-01
  8.902584E-01
  8.873359E-01
  8.844136E-01
  8.814912E-01
  8.783369E-01
  8.750660E-01
  8.717952E-01
  8.685245E-01
  8.652201E-01
  8.615857E-01
  8.579513E-01
  8.543170E-01
  8.506827E-01
  8.467750E-01
  8.427753E-01
  8.387757E-01
  8.347762E-01
  8.305514E-01
  8.261892E-01
  8.218272E-01
  8.174653E-01
  8.128697E-01
  8.081744E-01
  8.034793E-01
  7.987846E-01
  7.938110E-01
  7.888310E-01
  7.838516E-01
  7.787555E-01
  7.735095E-01
  7.682647E-01
  7.630007E-01
  7.574891E-01
  7.519799E-01
  7.464731E-01
  7.407529E-01
  7.350075E-01
  7.292660E-01
  7.233061E-01
  7.173111E-01
  7.113206E-01
  7.050056E-01
  6.986839E-01
  6.922735E-01
  6.855515E-01
  6.788342E-01
  6.718420E-01
  6.646878E-01
  6.574659E-01
  6.498594E-01
  6.422564E-01
  6.342900E-01
  6.262396E-01
  6.179436E-01
  6.094688E-01
  6.008079E-01
  5.919276E-01
  5.828755E-01
  5.736100E-01
  5.641580E-01
  5.545439E-01
  5.447060E-01
  5.347808E-01
  5.245778E-01
  5.142840E-01
  5.038274E-01
  4.931876E-01
  4.824313E-01
  4.715244E-01
  4.604124E-01
  4.491440E-01
  4.377051E-01
  4.260973E-01
  4.143904E-01
  4.030036E-01
  3.928298E-01
  3.852943E-01
  3.827916E-01
  3.907598E-01
  4.024500E-01
  3.800017E-01
  4.054271E-01
  1.443593E-01
  5.305670E-02
  5.289368E-02
  5.289052E-02
  5.288735E-02
  5.288419E-02
  5.288102E-02
  5.287785E-02
  5.287469E-02
  5.287152E-02
  5.286836E-02
  5.286393E-02
  5.285944E-02
  5.285496E-02
  5.285047E-02
  5.284599E-02
  5.284151E-02
  5.283702E-02
  5.283457E-02
  5.283638E-02
  5.283819E-02
  5.284000E-02
  5.284181E-02
  5.284363E-02
  5.284544E-02
  5.284760E-02
  5.285456E-02
  5.286152E-02
  5.286848E-02
  5.287545E-02
  5.288242E-02
  5.288939E-02
  5.289643E-02
  5.290379E-02
  5.291115E-02
  5.291852E-02
  5.292589E-02
  5.293327E-02
  5.294066E-02
  5.294750E-02
  5.295402E-02
  5.296056E-02
  5.296710E-02
  5.297365E-02
  5.298021E-02
  5.298630E-02
  5.299167E-02
  5.299706E-02
  5.300246E-02
  5.300788E-02
  5.301332E-02
  5.301557E-02
  5.301458E-02
  5.301360E-02
  5.301265E-02
  5.301171E-02
  5.301079E-02
  5.299704E-02
  5.298155E-02
  5.296607E-02
  5.295062E-02
  5.293519E-02
  5.291039E-02
  5.287783E-02
  5.284529E-02
  5.281276E-02
  5.278025E-02
  5.273988E-02
  5.269096E-02
  5.264206E-02
  5.259318E-02
  5.254431E-02
  5.248520E-02
  5.242094E-02
  5.235670E-02
  5.229247E-02
  5.222727E-02
  5.215223E-02
  5.207721E-02
  5.200222E-02
  5.192726E-02
  5.184071E-02
  5.175029E-02
  5.165990E-02
  5.156953E-02
  5.145551E-02
  5.132706E-02
  5.119860E-02
  5.107014E-02
  5.090065E-02
  5.071359E-02
  5.052650E-02
  5.033938E-02
  5.008480E-02
  4.982857E-02
  4.957236E-02
  4.927752E-02
  4.893307E-02
  4.858886E-02
  4.823747E-02
  4.779556E-02
  4.735432E-02
  4.691373E-02
  4.641799E-02
  4.591583E-02
  4.541471E-02
  4.490513E-02
  4.439501E-02
  4.388602E-02
  4.339971E-02
  4.291516E-02
  4.244139E-02
  4.200165E-02
  4.156261E-02
  4.116011E-02
  4.077943E-02
  4.040905E-02
  4.009262E-02
  3.977637E-02
  3.951099E-02
  3.925771E-02
  3.903753E-02
  3.884150E-02
  3.866406E-02
  3.850851E-02
  3.836095E-02
  3.822331E-02
  3.808844E-02
  3.795609E-02
  3.782492E-02
  3.769456E-02
  3.756834E-02
  3.744677E-02
  3.733324E-02
  3.723832E-02
  3.716038E-02
  3.710828E-02
  3.710541E-02
  3.715067E-02
  3.726019E-02
  3.745936E-02
  3.780453E-02
  3.842464E-02
  3.951704E-02
  4.142208E-02
  4.470138E-02
  5.047824E-02
  5.805599E-02
  6.184435E-02
  7.288675E-02
  3.997401E-02
  1.699840E-02
  1.776290E-01
  1.775983E-01
  1.775677E-01
  1.775370E-01
  1.775063E-01
  1.774757E-01
  1.774450E-01
  1.774143E-01
  1.773836E-01
  1.772975E-01
  1.772091E-01
  1.771207E-01
  1.770323E-01
  1.769439E-01
  1.768555E-01
  1.767671E-01
  1.766625E-01
  1.765240E-01
  1.763854E-01
  1.762469E-01
  1.761084E-01
  1.759698E-01
  1.758313E-01
  1.756889E-01
  1.754932E-01
  1.752975E-01
  1.751018E-01
  1.749061E-01
  1.747104E-01
  1.745148E-01
  1.743069E-01
  1.740410E-01
  1.737750E-01
  1.735091E-01
  1.732432E-01
  1.729773E-01
  1.727114E-01
  1.723972E-01
  1.720540E-01
  1.717108E-01
  1.713676E-01
  1.710244E-01
  1.706812E-01
  1.703074E-01
  1.698884E-01
  1.694694E-01
  1.690505E-01
  1.686315E-01
  1.682125E-01
  1.677589E-01
  1.672698E-01
  1.667807E-01
  1.662916E-01
  1.658026E-01
  1.653135E-01
  1.647688E-01
  1.642165E-01
  1.636641E-01
  1.631118E-01
  1.625595E-01
  1.619762E-01
  1.613669E-01
  1.607577E-01
  1.601485E-01
  1.595393E-01
  1.589009E-01
  1.582307E-01
  1.575604E-01
  1.568902E-01
  1.562214E-01
  1.555058E-01
  1.547673E-01
  1.540289E-01
  1.532904E-01
  1.525467E-01
  1.517515E-01
  1.509563E-01
  1.501611E-01
  1.493659E-01
  1.485400E-01
  1.477039E-01
  1.468677E-01
  1.460316E-01
  1.451721E-01
  1.442985E-01
  1.434248E-01
  1.425512E-01
  1.416669E-01
  1.407781E-01
  1.398893E-01
  1.390006E-01
  1.381356E-01
  1.372714E-01
  1.364074E-01
  1.355541E-01
  1.347147E-01
  1.338758E-01
  1.330360E-01
  1.321817E-01
  1.313283E-01
  1.304750E-01
  1.295881E-01
  1.286980E-01
  1.278096E-01
  1.268646E-01
  1.259111E-01
  1.249597E-01
  1.238836E-01
  1.228051E-01
  1.216862E-01
  1.204252E-01
  1.191661E-01
  1.177770E-01
  1.163110E-01
  1.148132E-01
  1.131369E-01
  1.114616E-01
  1.096235E-01
  1.077472E-01
  1.057722E-01
  1.037251E-01
  1.016216E-01
  9.945143E-02
  9.724899E-02
  9.500651E-02
  9.275113E-02
  9.048459E-02
  8.823426E-02
  8.599058E-02
  8.381518E-02
  8.168068E-02
  7.961972E-02
  7.768099E-02
  7.583287E-02
  7.411258E-02
  7.258553E-02
  7.121306E-02
  7.002587E-02
  6.907148E-02
  6.847222E-02
  6.855634E-02
  6.988484E-02
  7.345223E-02
  8.074771E-02
  9.414692E-02
  1.107998E-01
  1.153722E-01
  1.245504E-01
 -1.725522E-04
  1.650065E-07
  9.724604E-01
  9.723264E-01
  9.721924E-01
  9.720584E-01
  9.719244E-01
  9.717904E-01
  9.716564E-01
  9.715224E-01
  9.713884E-01
  9.710008E-01
  9.706026E-01
  9.702045E-01
  9.698063E-01
  9.694082E-01
  9.690100E-01
  9.686119E-01
  9.681370E-01
  9.675007E-01
  9.668645E-01
  9.662283E-01
  9.655920E-01
  9.649558E-01
  9.643196E-01
  9.636672E-01
  9.627889E-01