 Title= "ADflow Lift Distribution Data"
Variables = "eta" "CoordinateX" "CoordinateY" "CoordinateZ" "Lift" "Drag" "Moment" "Normalized Lift" "Normalized Drag" "Normalized Moment" "CL" "CD" "CM" "CLp" "CDp" "CMp" "CLv" "CDv" "CMv" "Elliptical" "thickness" "twist" "chord" "fx" "fy" "fz" 
Zone T= "LiftDist_01 allWalls: : z normal"
 I=          150
 DATAPACKING=BLOCK
  0.000000E+00
  6.711405E-03
  1.342281E-02
  2.013422E-02
  2.684563E-02
  3.355704E-02
  4.026845E-02
  4.697986E-02
  5.369127E-02
  6.040268E-02
  6.711409E-02
  7.382550E-02
  8.053691E-02
  8.724832E-02
  9.395973E-02
  1.006711E-01
  1.073825E-01
  1.140940E-01
  1.208054E-01
  1.275168E-01
  1.342282E-01
  1.409396E-01
  1.476510E-01
  1.543624E-01
  1.610738E-01
  1.677852E-01
  1.744966E-01
  1.812081E-01
  1.879195E-01
  1.946309E-01
  2.013423E-01
  2.080537E-01
  2.147651E-01
  2.214765E-01
  2.281879E-01
  2.348993E-01
  2.416107E-01
  2.483221E-01
  2.550336E-01
  2.617450E-01
  2.684564E-01
  2.751678E-01
  2.818792E-01
  2.885906E-01
  2.953020E-01
  3.020134E-01
  3.087248E-01
  3.154362E-01
  3.221476E-01
  3.288591E-01
  3.355705E-01
  3.422819E-01
  3.489933E-01
  3.557047E-01
  3.624161E-01
  3.691275E-01
  3.758389E-01
  3.825503E-01
  3.892617E-01
  3.959732E-01
  4.026846E-01
  4.093960E-01
  4.161074E-01
  4.228188E-01
  4.295302E-01
  4.362416E-01
  4.429530E-01
  4.496644E-01
  4.563758E-01
  4.630872E-01
  4.697987E-01
  4.765101E-01
  4.832215E-01
  4.899329E-01
  4.966443E-01
  5.033557E-01
  5.100671E-01
  5.167785E-01
  5.234899E-01
  5.302013E-01
  5.369128E-01
  5.436242E-01
  5.503356E-01
  5.570470E-01
  5.637584E-01
  5.704698E-01
  5.771812E-01
  5.838926E-01
  5.906040E-01
  5.973154E-01
  6.040268E-01
  6.107383E-01
  6.174497E-01
  6.241611E-01
  6.308725E-01
  6.375839E-01
  6.442953E-01
  6.510067E-01
  6.577181E-01
  6.644295E-01
  6.711409E-01
  6.778524E-01
  6.845638E-01
  6.912752E-01
  6.979866E-01
  7.046980E-01
  7.114094E-01
  7.181208E-01
  7.248322E-01
  7.315436E-01
  7.382550E-01
  7.449664E-01
  7.516779E-01
  7.583893E-01
  7.651007E-01
  7.718121E-01
  7.785235E-01
  7.852349E-01
  7.919463E-01
  7.986577E-01
  8.053691E-01
  8.120805E-01
  8.187919E-01
  8.255034E-01
  8.322148E-01
  8.389262E-01
  8.456376E-01
  8.523490E-01
  8.590604E-01
  8.657718E-01
  8.724832E-01
  8.791946E-01
  8.859060E-01
  8.926175E-01
  8.993289E-01
  9.060403E-01
  9.127517E-01
  9.194631E-01
  9.261745E-01
  9.328859E-01
  9.395973E-01
  9.463087E-01
  9.530201E-01
  9.597315E-01
  9.664430E-01
  9.731544E-01
  9.798658E-01
  9.865772E-01
  9.932886E-01
  1.000000E+00
  0.000000E+00
  0.000000E+00
  0.000000E+00
  0.000000E+00
  0.000000E+00
  0.000000E+00
  0.000000E+00
  0.000000E+00
  0.000000E+00
  0.000000E+00
  0.000000E+00
  0.000000E+00
  0.000000E+00
  0.000000E+00
  0.000000E+00
  0.000000E+00
  0.000000E+00
  0.000000E+00
  0.000000E+00
  0.000000E+00
  0.000000E+00
  0.000000E+00
  0.000000E+00
  0.000000E+00
  0.000000E+00
  0.000000E+00
  0.000000E+00
  0.000000E+00
  0.000000E+00
  0.000000E+00
  0.000000E+00
  0.000000E+00
  0.000000E+00
  0.000000E+00
  0.000000E+00
  0.000000E+00
  0.000000E+00
  0.000000E+00
  0.000000E+00
  0.000000E+00
  0.000000E+00
  0.000000E+00
  0.000000E+00
  0.000000E+00
  0.000000E+00
  0.000000E+00
  0.000000E+00
  0.000000E+00
  0.000000E+00
  0.000000E+00
  0.000000E+00
  0.000000E+00
  0.000000E+00
  0.000000E+00
  0.000000E+00
  0.000000E+00
  0.000000E+00
  0.000000E+00
  0.000000E+00
  0.000000E+00
  0.000000E+00
  0.000000E+00
  0.000000E+00
  0.000000E+00
  0.000000E+00
  0.000000E+00
  0.000000E+00
  0.000000E+00
  0.000000E+00
  0.000000E+00
  0.000000E+00
  0.000000E+00
  0.000000E+00
  0.000000E+00
  0.000000E+00
  0.000000E+00
  0.000000E+00
  0.000000E+00
  0.000000E+00
  0.000000E+00
  0.000000E+00
  0.000000E+00
  0.000000E+00
  0.000000E+00
  0.000000E+00
  0.000000E+00
  0.000000E+00
  0.000000E+00
  0.000000E+00
  0.000000E+00
  0.000000E+00
  0.000000E+00
  0.000000E+00
  0.000000E+00
  0.000000E+00
  0.000000E+00
  0.000000E+00
  0.000000E+00
  0.000000E+00
  0.000000E+00
  0.000000E+00
  0.000000E+00
  0.000000E+00
  0.000000E+00
  0.000000E+00
  0.000000E+00
  0.000000E+00
  0.000000E+00
  0.000000E+00
  0.000000E+00
  0.000000E+00
  0.000000E+00
  0.000000E+00
  0.000000E+00
  0.000000E+00
  0.000000E+00
  0.000000E+00
  0.000000E+00
  0.000000E+00
  0.000000E+00
  0.000000E+00
  0.000000E+00
  0.000000E+00
  0.000000E+00
  0.000000E+00
  0.000000E+00
  0.000000E+00
  0.000000E+00
  0.000000E+00
  0.000000E+00
  0.000000E+00
  0.000000E+00
  0.000000E+00
  0.000000E+00
  0.000000E+00
  0.000000E+00
  0.000000E+00
  0.000000E+00
  0.000000E+00
  0.000000E+00
  0.000000E+00
  0.000000E+00
  0.000000E+00
  0.000000E+00
  0.000000E+00
  0.000000E+00
  0.000000E+00
  0.000000E+00
  0.000000E+00
  0.000000E+00
  0.000000E+00
  0.000000E+00
  0.000000E+00
  0.000000E+00
  0.000000E+00
  0.000000E+00
  0.000000E+00
  0.000000E+00
  0.000000E+00
  0.000000E+00
  0.000000E+00
  0.000000E+00
  0.000000E+00
  0.000000E+00
  0.000000E+00
  0.000000E+00
  0.000000E+00
  0.000000E+00
  0.000000E+00
  0.000000E+00
  0.000000E+00
  0.000000E+00
  0.000000E+00
  0.000000E+00
  0.000000E+00
  0.000000E+00
  0.000000E+00
  0.000000E+00
  0.000000E+00
  0.000000E+00
  0.000000E+00
  0.000000E+00
  0.000000E+00
  0.000000E+00
  0.000000E+00
  0.000000E+00
  0.000000E+00
  0.000000E+00
  0.000000E+00
  0.000000E+00
  0.000000E+00
  0.000000E+00
  0.000000E+00
  0.000000E+00
  0.000000E+00
  0.000000E+00
  0.000000E+00
  0.000000E+00
  0.000000E+00
  0.000000E+00
  0.000000E+00
  0.000000E+00
  0.000000E+00
  0.000000E+00
  0.000000E+00
  0.000000E+00
  0.000000E+00
  0.000000E+00
  0.000000E+00
  0.000000E+00
  0.000000E+00
  0.000000E+00
  0.000000E+00
  0.000000E+00
  0.000000E+00
  0.000000E+00
  0.000000E+00
  0.000000E+00
  0.000000E+00
  0.000000E+00
  0.000000E+00
  0.000000E+00
  0.000000E+00
  0.000000E+00
  0.000000E+00
  0.000000E+00
  0.000000E+00
  0.000000E+00
  0.000000E+00
  0.000000E+00
  0.000000E+00
  0.000000E+00
  0.000000E+00
  0.000000E+00
  0.000000E+00
  0.000000E+00
  0.000000E+00
  0.000000E+00
  0.000000E+00
  0.000000E+00
  0.000000E+00
  0.000000E+00
  0.000000E+00
  0.000000E+00
  0.000000E+00
  0.000000E+00
  0.000000E+00
  0.000000E+00
  0.000000E+00
  0.000000E+00
  0.000000E+00
  0.000000E+00
  0.000000E+00
  0.000000E+00
  0.000000E+00
  0.000000E+00
  0.000000E+00
  0.000000E+00
  0.000000E+00
  0.000000E+00
  0.000000E+00
  0.000000E+00
  0.000000E+00
  0.000000E+00
  0.000000E+00
  0.000000E+00
  0.000000E+00
  0.000000E+00
  0.000000E+00
  0.000000E+00
  0.000000E+00
  0.000000E+00
  0.000000E+00
  0.000000E+00
  0.000000E+00
  0.000000E+00
  0.000000E+00
  0.000000E+00
  0.000000E+00
  0.000000E+00
  0.000000E+00
  0.000000E+00
  0.000000E+00
  0.000000E+00
  0.000000E+00
  0.000000E+00
  0.000000E+00
  0.000000E+00
  0.000000E+00
  0.000000E+00
  0.000000E+00
  0.000000E+00
  0.000000E+00
  0.000000E+00
  0.000000E+00
  0.000000E+00
  0.000000E+00
  0.000000E+00
  0.000000E+00
  0.000000E+00
  1.000000E-08
  1.691809E-02
  3.383618E-02
  5.075427E-02
  6.767237E-02
  8.459046E-02
  1.015085E-01
  1.184266E-01
  1.353447E-01
  1.522628E-01
  1.691809E-01
  1.860990E-01
  2.030171E-01
  2.199352E-01
  2.368533E-01
  2.537714E-01
  2.706895E-01
  2.876076E-01
  3.045256E-01
  3.214437E-01
  3.383618E-01
  3.552799E-01
  3.721980E-01
  3.891161E-01
  4.060342E-01
  4.229523E-01
  4.398704E-01
  4.567885E-01
  4.737066E-01
  4.906247E-01
  5.075427E-01
  5.244608E-01
  5.413789E-01
  5.582970E-01
  5.752151E-01
  5.921332E-01
  6.090513E-01
  6.259694E-01
  6.428875E-01
  6.598056E-01
  6.767237E-01
  6.936418E-01
  7.105598E-01
  7.274779E-01
  7.443960E-01
  7.613141E-01
  7.782322E-01
  7.951503E-01
  8.120684E-01
  8.289865E-01
  8.459046E-01
  8.628227E-01
  8.797408E-01
  8.966589E-01
  9.135769E-01
  9.304950E-01
  9.474131E-01
  9.643312E-01
  9.812493E-01
  9.981674E-01
  1.015085E+00
  1.032004E+00
  1.048922E+00
  1.065840E+00
  1.082758E+00
  1.099676E+00
  1.116594E+00
  1.133512E+00
  1.150430E+00
  1.167348E+00
  1.184266E+00
  1.201185E+00
  1.218103E+00
  1.235021E+00
  1.251939E+00
  1.268857E+00
  1.285775E+00
  1.302693E+00
  1.319611E+00
  1.336529E+00
  1.353447E+00
  1.370365E+00
  1.387284E+00
  1.404202E+00
  1.421120E+00
  1.438038E+00
  1.454956E+00
  1.471874E+00
  1.488792E+00
  1.505710E+00
  1.522628E+00
  1.539546E+00
  1.556464E+00
  1.573383E+00
  1.590301E+00
  1.607219E+00
  1.624137E+00
  1.641055E+00
  1.657973E+00
  1.674891E+00
  1.691809E+00
  1.708727E+00
  1.725645E+00
  1.742563E+00
  1.759482E+00
  1.776400E+00
  1.793318E+00
  1.810236E+00
  1.827154E+00
  1.844072E+00
  1.860990E+00
  1.877908E+00
  1.894826E+00
  1.911744E+00
  1.928662E+00
  1.945581E+00
  1.962499E+00
  1.979417E+00
  1.996335E+00
  2.013253E+00
  2.030171E+00
  2.047089E+00
  2.064007E+00
  2.080925E+00
  2.097843E+00
  2.114761E+00
  2.131680E+00
  2.148598E+00
  2.165516E+00
  2.182434E+00
  2.199352E+00
  2.216270E+00
  2.233188E+00
  2.250106E+00
  2.267024E+00
  2.283942E+00
  2.300860E+00
  2.317779E+00
  2.334697E+00
  2.351615E+00
  2.368533E+00
  2.385451E+00
  2.402369E+00
  2.419287E+00
  2.436205E+00
  2.453123E+00
  2.470041E+00
  2.486959E+00
  2.503878E+00
  2.520796E+00
  1.098058E+04
  1.097906E+04
  1.097753E+04
  1.097601E+04
  1.097449E+04
  1.097296E+04
  1.097144E+04
  1.096991E+04
  1.096839E+04
  1.096398E+04
  1.095944E+04
  1.095491E+04
  1.095038E+04
  1.094585E+04
  1.094132E+04
  1.093679E+04
  1.093138E+04
  1.092414E+04
  1.091690E+04
  1.090965E+04
  1.090241E+04
  1.089517E+04
  1.088793E+04
  1.088050E+04
  1.087050E+04
  1.086049E+04
  1.085049E+04
  1.084049E+04
  1.083049E+04
  1.082049E+04
  1.080997E+04
  1.079696E+04
  1.078396E+04
  1.077096E+04
  1.075796E+04
  1.074496E+04
  1.073196E+04
  1.071698E+04
  1.070083E+04
  1.068467E+04
  1.066852E+04
  1.065236E+04
  1.063621E+04
  1.061876E+04
  1.059941E+04
  1.058007E+04
  1.056072E+04
  1.054138E+04
  1.052203E+04
  1.050107E+04
  1.047844E+04
  1.045582E+04
  1.043320E+04
  1.041058E+04
  1.038795E+04
  1.036232E+04
  1.033629E+04
  1.031025E+04
  1.028421E+04
  1.025817E+04
  1.023024E+04
  1.020074E+04
  1.017124E+04
  1.014174E+04
  1.011224E+04
  1.008102E+04
  1.004793E+04
  1.001484E+04
  9.981756E+03
  9.948669E+03
  9.913010E+03
  9.876059E+03
  9.839109E+03
  9.802160E+03
  9.764839E+03
  9.723860E+03
  9.682881E+03
  9.641904E+03
  9.600928E+03
  9.556919E+03
  9.511890E+03
  9.466863E+03
  9.421837E+03
  9.374314E+03
  9.325270E+03
  9.276227E+03
  9.227187E+03
  9.175551E+03
  9.122807E+03
  9.070067E+03
  9.017329E+03
  8.961470E+03
  8.905539E+03
  8.849615E+03
  8.792377E+03
  8.733450E+03
  8.674539E+03
  8.615411E+03
  8.553477E+03
  8.491573E+03
  8.429700E+03
  8.365366E+03
  8.300744E+03
  8.236169E+03
  8.169055E+03
  8.101534E+03
  8.034069E+03
  7.962879E+03
  7.891614E+03
  7.819346E+03
  7.743542E+03
  7.667791E+03
  7.588943E+03
  7.508269E+03
  7.426837E+03
  7.341093E+03
  7.255388E+03
  7.165622E+03
  7.074915E+03
  6.981464E+03
  6.886016E+03
  6.788486E+03
  6.688503E+03
  6.586590E+03
  6.482281E+03
  6.375862E+03
  6.267610E+03
  6.156811E+03
  6.045022E+03
  5.930059E+03
  5.814062E+03
  5.696205E+03
  5.576254E+03
  5.454974E+03
  5.331978E+03
  5.206654E+03
  5.079555E+03
  4.950525E+03
  4.819577E+03
  4.687483E+03
  4.558946E+03
  4.444026E+03
  4.358800E+03
  4.330314E+03
  4.419973E+03
  4.551505E+03
  4.297531E+03
  4.585586E+03
  1.327870E+03
  7.328280E-03
  5.975557E+02
  5.975159E+02
  5.974760E+02
  5.974362E+02
  5.973963E+02
  5.973564E+02
  5.973166E+02
  5.972767E+02
  5.972369E+02
  5.971743E+02
  5.971109E+02
  5.970474E+02
  5.969839E+02
  5.969205E+02
  5.968570E+02
  5.967936E+02
  5.967500E+02
  5.967483E+02
  5.967466E+02
  5.967449E+02
  5.967432E+02
  5.967415E+02
  5.967399E+02
  5.967414E+02
  5.967875E+02
  5.968336E+02
  5.968798E+02
  5.969260E+02
  5.969722E+02
  5.970184E+02
  5.970636E+02
  5.971035E+02
  5.971434E+02
  5.971835E+02
  5.972236E+02
  5.972637E+02
  5.973039E+02
  5.973325E+02
  5.973542E+02
  5.973760E+02
  5.973979E+02
  5.974200E+02
  5.974421E+02
  5.974581E+02
  5.974649E+02
  5.974720E+02
  5.974792E+02
  5.974866E+02
  5.974942E+02
  5.974716E+02
  5.974183E+02
  5.973653E+02
  5.973124E+02
  5.972598E+02
  5.972075E+02
  5.970322E+02
  5.968404E+02
  5.966489E+02
  5.964575E+02
  5.962664E+02
  5.959847E+02
  5.956278E+02
  5.952712E+02
  5.949147E+02
  5.945585E+02
  5.941228E+02
  5.936008E+02
  5.930789E+02
  5.925573E+02
  5.920359E+02
  5.914011E+02
  5.907095E+02
  5.900181E+02
  5.893269E+02
  5.886230E+02
  5.877926E+02
  5.869624E+02
  5.861324E+02
  5.853028E+02
  5.843252E+02
  5.832980E+02
  5.822710E+02
  5.812443E+02
  5.799501E+02
  5.784926E+02
  5.770351E+02
  5.755776E+02
  5.736776E+02
  5.715881E+02
  5.694983E+02
  5.674083E+02
  5.646094E+02
  5.617931E+02
  5.589771E+02
  5.557615E+02
  5.520329E+02
  5.483068E+02
  5.445068E+02
  5.397751E+02
  5.350504E+02
  5.303326E+02
  5.250427E+02
  5.196864E+02
  5.143410E+02
  5.088916E+02
  5.034341E+02
  4.979885E+02
  4.927431E+02
  4.875152E+02
  4.823893E+02
  4.775823E+02
  4.727831E+02
  4.683348E+02
  4.640961E+02
  4.599580E+02
  4.563428E+02
  4.527297E+02
  4.496100E+02
  4.466076E+02
  4.439287E+02
  4.414855E+02
  4.392296E+02
  4.371939E+02
  4.352452E+02
  4.334046E+02
  4.316048E+02
  4.298416E+02
  4.281139E+02
  4.264031E+02
  4.247764E+02
  4.232155E+02
  4.217704E+02
  4.205664E+02
  4.195737E+02
  4.188984E+02
  4.188120E+02
  4.192919E+02
  4.205220E+02
  4.227897E+02
  4.267315E+02
  4.337999E+02
  4.462182E+02
  4.678265E+02
  5.049543E+02
  5.702398E+02
  6.557773E+02
  6.986430E+02
  8.236112E+02
  3.673434E+02
  2.349808E-03
  2.005410E+03
  2.005060E+03
  2.004709E+03
  2.004359E+03
  2.004008E+03
  2.003658E+03
  2.003307E+03
  2.002957E+03
  2.002607E+03
  2.001621E+03
  2.000610E+03
  1.999598E+03
  1.998587E+03
  1.997575E+03
  1.996564E+03
  1.995552E+03
  1.994355E+03
  1.992766E+03
  1.991177E+03
  1.989588E+03
  1.987999E+03
  1.986410E+03
  1.984821E+03
  1.983188E+03
  1.980938E+03
  1.978688E+03
  1.976438E+03
  1.974188E+03
  1.971939E+03
  1.969689E+03
  1.967298E+03
  1.964234E+03
  1.961170E+03
  1.958107E+03
  1.955043E+03
  1.951980E+03
  1.948916E+03
  1.945289E+03
  1.941325E+03
  1.937360E+03
  1.933396E+03
  1.929431E+03
  1.925467E+03
  1.921141E+03
  1.916284E+03
  1.911428E+03
  1.906571E+03
  1.901714E+03
  1.896857E+03
  1.891589E+03
  1.885901E+03
  1.880212E+03
  1.874524E+03
  1.868836E+03
  1.863148E+03
  1.856802E+03
  1.850367E+03
  1.843931E+03
  1.837496E+03
  1.831061E+03
  1.824265E+03
  1.817171E+03
  1.810076E+03
  1.802982E+03
  1.795887E+03
  1.788468E+03
  1.780695E+03
  1.772922E+03
  1.765166E+03
  1.757393E+03
  1.749134E+03
  1.740632E+03
  1.732130E+03
  1.723627E+03
  1.715071E+03
  1.705988E+03
  1.696905E+03
  1.687822E+03
  1.678740E+03
  1.669358E+03
  1.659875E+03
  1.650393E+03
  1.640911E+03
  1.631198E+03
  1.621345E+03
  1.611492E+03
  1.601639E+03
  1.591682E+03
  1.581682E+03
  1.571683E+03
  1.561684E+03
  1.551944E+03
  1.542212E+03
  1.532482E+03
  1.522862E+03
  1.513384E+03
  1.503912E+03
  1.494429E+03
  1.484764E+03
  1.475109E+03
  1.465466E+03
  1.455416E+03
  1.445340E+03
  1.435281E+03
  1.424593E+03
  1.413811E+03
  1.403050E+03
  1.390924E+03
  1.378772E+03
  1.366178E+03
  1.352036E+03
  1.337915E+03
  1.322380E+03
  1.306008E+03
  1.289293E+03
  1.270637E+03
  1.251992E+03
  1.231578E+03
  1.210749E+03
  1.188843E+03
  1.166152E+03
  1.142846E+03
  1.118815E+03
  1.094433E+03
  1.069617E+03
  1.044661E+03
  1.019582E+03
  9.946825E+02
  9.698554E+02
  9.457820E+02
  9.221611E+02
  8.993543E+02
  8.779042E+02
  8.574626E+02
  8.384449E+02
  8.215861E+02
  8.064584E+02
  7.934076E+02
  7.829681E+02
  7.765130E+02
  7.777326E+02
  7.929490E+02
  8.333803E+02
  9.158304E+02
  1.067079E+03
  1.254883E+03
  1.306405E+03
  1.410630E+03
 -3.534795E+00
  2.279619E-08
  1.232925E+00
  1.232754E+00
  1.232583E+00
  1.232412E+00
  1.232241E+00
  1.232069E+00
  1.231898E+00
  1.231727E+00
  1.231556E+00
  1.231060E+00
  1.230552E+00
  1.230043E+00
  1.229534E+00
  1.229025E+00
  1.228517E+00
  1.228008E+00
  1.227401E+00
  1.226588E+00
  1.225774E+00
  1.224961E+00
  1.224148E+00
  1.223335E+00
  1.222521E+00
  1.221687E+00
  1.220564E+00
  1.219441E+00
  1.218318E+00
  1.217195E+00
  1.216072E+00
  1.214949E+00
  1.213768E+00
  1.212308E+00
  1.210848E+00
  1.209388E+00
  1.207928E+00
  1.206469E+00
  1.205009E+00
  1.203328E+00
  1.201514E+00
  1.199700E+00
  1.197886E+00
  1.196072E+00
  1.194258E+00
  1.192299E+00
  1.190127E+00
  1.187954E+00
  1.185782E+00
  1.183610E+00
  1.181438E+00
  1.179084E+00
  1.176544E+00
  1.174004E+00
  1.171463E+00
  1.168923E+00
  1.166383E+00
  1.163506E+00
  1.160582E+00
  1.157658E+00
  1.154735E+00
  1.151811E+00
  1.148675E+00
  1.145363E+00
  1.142050E+00
  1.138738E+00
  1.135426E+00
  1.131920E+00
  1.128205E+00
  1.124490E+00
  1.120775E+00
  1.117060E+00
  1.113056E+00
  1.108907E+00
  1.104758E+00
  1.100609E+00
  1.096419E+00
  1.091817E+00
  1.087216E+00
  1.082615E+00
  1.078014E+00
  1.073073E+00
  1.068017E+00
  1.062961E+00
  1.057906E+00
  1.052570E+00
  1.047063E+00
  1.041556E+00
  1.036050E+00
  1.030252E+00
  1.024330E+00
  1.018408E+00
  1.012487E+00
  1.006214E+00
  9.999344E-01
  9.936552E-01
  9.872283E-01
  9.806119E-01
  9.739972E-01
  9.673583E-01
  9.604041E-01
  9.534535E-01
  9.465062E-01
  9.392826E-01
  9.320267E-01
  9.247761E-01
  9.172403E-01
  9.096589E-01
  9.020838E-01
  8.940904E-01
  8.860887E-01
  8.779742E-01
  8.694627E-01
  8.609572E-01
  8.521040E-01
  8.430458E-01
  8.339024E-01
  8.242749E-01
  8.146517E-01
  8.045725E-01
  7.943878E-01
  7.838949E-01
  7.731777E-01
  7.622269E-01
  7.510006E-01
  7.395575E-01
  7.278454E-01
  7.158965E-01
  7.037417E-01
  6.913010E-01
  6.787490E-01
  6.658408E-01
  6.528163E-01
  6.395830E-01
  6.261146E-01
  6.124970E-01
  5.986868E-01
  5.846151E-01
  5.703442E-01
  5.558564E-01
  5.411533E-01
  5.263215E-01
  5.118889E-01
  4.989854E-01
  4.894161E-01
  4.862177E-01
  4.962848E-01
  5.110534E-01
  4.825367E-01
  5.148802E-01
  1.490963E-01
  8.228362E-07
  1.088269E+00
  1.088196E+00
  1.088124E+00
  1.088051E+00
  1.087978E+00
  1.087906E+00
  1.087833E+00
  1.087761E+00
  1.087688E+00
  1.087574E+00
  1.087459E+00
  1.087343E+00
  1.087227E+00
  1.087112E+00
  1.086996E+00
  1.086881E+00
  1.086801E+00
  1.086798E+00
  1.086795E+00
  1.086792E+00
  1.086789E+00
  1.086786E+00
  1.086783E+00
  1.086786E+00
  1.086870E+00
  1.086954E+00
  1.087038E+00
  1.087122E+00
  1.087206E+00
  1.087290E+00
  1.087372E+00
  1.087445E+00
  1.087518E+00
  1.087591E+00
  1.087664E+00
  1.087737E+00
  1.087810E+00
  1.087862E+00
  1.087902E+00
  1.087941E+00
  1.087981E+00
  1.088022E+00
  1.088062E+00
  1.088091E+00
  1.088103E+00
  1.088116E+00
  1.088129E+00
  1.088143E+00
  1.088157E+00
  1.088116E+00
  1.088019E+00
  1.087922E+00
  1.087826E+00
  1.087730E+00
  1.087635E+00
  1.087315E+00
  1.086966E+00
  1.086617E+00
  1.086269E+00
  1.085921E+00
  1.085408E+00
  1.084758E+00
  1.084108E+00
  1.083459E+00
  1.082810E+00
  1.082017E+00
  1.081066E+00
  1.080116E+00
  1.079166E+00
  1.078216E+00
  1.077060E+00
  1.075800E+00
  1.074541E+00
  1.073282E+00
  1.072001E+00
  1.070488E+00
  1.068976E+00
  1.067465E+00
  1.065954E+00
  1.064173E+00
  1.062303E+00
  1.060432E+00
  1.058562E+00
  1.056205E+00
  1.053551E+00
  1.050897E+00
  1.048242E+00
  1.044782E+00
  1.040977E+00
  1.037171E+00
  1.033364E+00
  1.028267E+00
  1.023138E+00
  1.018009E+00
  1.012153E+00
  1.005363E+00
  9.985767E-01
  9.916560E-01
  9.830386E-01
  9.744340E-01
  9.658420E-01
  9.562080E-01
  9.464530E-01
  9.367180E-01
  9.267937E-01
  9.168543E-01
  9.069369E-01
  8.973840E-01
  8.878630E-01
  8.785276E-01
  8.697732E-01
  8.610328E-01
  8.529316E-01
  8.452121E-01
  8.376757E-01
  8.310917E-01
  8.245115E-01
  8.188300E-01
  8.133619E-01
  8.084831E-01
  8.040336E-01
  7.999251E-01
  7.962177E-01
  7.926687E-01
  7.893166E-01
  7.860388E-01
  7.828277E-01
  7.796813E-01
  7.765655E-01
  7.736030E-01
  7.707602E-01
  7.681284E-01
  7.659357E-01
  7.641278E-01
  7.628980E-01
  7.627406E-01
  7.636147E-01
  7.658549E-01
  7.699849E-01
  7.771636E-01
  7.900366E-01
  8.126528E-01
  8.520058E-01
  9.196230E-01
  1.038521E+00
  1.194302E+00
  1.272369E+00
  1.499961E+00
  6.690059E-01
  4.279472E-06
  1.262704E+00
  1.262484E+00
  1.262263E+00
  1.262042E+00
  1.261822E+00
  1.261601E+00
  1.261380E+00
  1.261160E+00
  1.260939E+00
  1.260319E+00
  1.259682E+00
  1.259045E+00
  1.258408E+00
  1.257771E+00
  1.257134E+00
  1.256497E+00
  1.255743E+00
  1.254743E+00
  1.253742E+00
  1.252742E+00
  1.251741E+00
  1.250741E+00
  1.249740E+00
  1.248712E+00
  1.247295E+00
  1.245879E+00
  1.244462E+00
  1.243046E+00
  1.241629E+00
  1.240212E+00
  1.238707E+00
  1.236778E+00
  1.234849E+00
  1.232920E+00
  1.230991E+00
  1.229062E+00
  1.227133E+00
  1.224849E+00
  1.222353E+00
  1.219857E+00
  1.217360E+00
  1.214864E+00
  1.212368E+00
  1.209645E+00
  1.206586E+00
  1.203528E+00
  1.200470E+00
  1.197412E+00
  1.194354E+00
  1.191037E+00
  1.187455E+00
  1.183874E+00
  1.180292E+00
  1.176711E+00
  1.173129E+00
  1.169133E+00
  1.165081E+00
  1.161029E+00
  1.156977E+00
  1.152925E+00
  1.148647E+00
  1.144180E+00
  1.139712E+00
  1.135245E+00
  1.130778E+00
  1.126107E+00
  1.121213E+00
  1.116318E+00
  1.111435E+00
  1.106540E+00
  1.101340E+00
  1.095987E+00
  1.090633E+00
  1.085280E+00
  1.079893E+00
  1.074174E+00
  1.068455E+00
  1.062736E+00
  1.057016E+00
  1.051109E+00
  1.045139E+00
  1.039168E+00
  1.033198E+00
  1.027082E+00
  1.020878E+00
  1.014674E+00
  1.008470E+00
  1.002201E+00
  9.959046E-01
  9.896085E-01
  9.833127E-01
  9.771798E-01
  9.710522E-01
  9.649257E-01
  9.588683E-01
  9.529008E-01
  9.469364E-01
  9.409653E-01
  9.348797E-01
  9.288011E-01
  9.227292E-01
  9.164013E-01
  9.100567E-01
  9.037233E-01
  8.969934E-01
  8.902043E-01
  8.834290E-01
  8.757936E-01
  8.681421E-01
  8.602127E-01
  8.513082E-01
  8.424167E-01
  8.326350E-01
  8.223267E-01
  8.118016E-01
  8.000549E-01
  7.883157E-01
  7.754616E-01
  7.623468E-01
  7.485538E-01
  7.342662E-01
  7.195915E-01
  7.044605E-01
  6.891088E-01
  6.734833E-01
  6.577693E-01
  6.419790E-01
  6.263007E-01
  6.106684E-01
  5.955106E-01
  5.806377E-01
  5.662774E-01
  5.527714E-01
  5.399004E-01
  5.279259E-01
  5.173108E-01
  5.077857E-01
  4.995682E-01
  4.929950E-01
  4.889306E-01
  4.896985E-01
  4.992794E-01
  5.247370E-01
  5.766516E-01
  6.718850E-01
  7.901356E-01
  8.225763E-01
  8.882019E-01
 -2.225680E-03
  1.435359E-11
  9.723375E-01
  9.722025E-01
  9.720675E-01
  9.719325E-01
  9.717975E-01
  9.716625E-01
  9.715275E-01
  9.713925E-01
  9.712575E-01
  9.708669E-01
  9.704657E-01
  9.700646E-01
  9.696634E-01
  9.692622E-01
  9.688611E-01
  9.684599E-01
  9.679813E-01
  9.673400E-01
  9.666986E-01
  9.660573E-01
  9.654160E-01
  9.647748E-01
  9.641335E-01
  9.634759E-01
  9.625903E-01
  9.617048E-01
  9.608192E-01
  9.599337E-01
  9.590481E-01
  9.581626E-01
  9.572310E-01
  9.560798E-01
  9.549286E-01
  9.537775E-01
  9.526263E-01
  9.514752E-01
  9.503241E-01
  9.489983E-01
  9.475678E-01
  9.461374E-01
  9.447070E-01
  9.432766E-01
  9.418463E-01
  9.403016E-01
  9.385887E-01
  9.368757E-01
  9.351628E-01
  9.334500E-01
  9.317371E-01
  9.298808E-01
  9.278776E-01
  9.258744E-01
  9.238713E-01
  9.218683E-01
  9.198653E-01
  9.175959E-01
  9.152902E-01
  9.129845E-01
  9.106789E-01
  9.083734E-01
  9.059003E-01
  9.032879E-01
  9.006757E-01
  8.980635E-01
  8.954513E-01
  8.926868E-01
  8.897568E-01
  8.868268E-01
  8.838968E-01
  8.809669E-01
  8.778093E-01
  8.745372E-01
  8.712652E-01
  8.679932E-01
  8.646883E-01
  8.610594E-01
  8.574307E-01
  8.538019E-01
  8.501733E-01
  8.462761E-01
  8.422885E-01
  8.383011E-01
  8.343138E-01
  8.301054E-01
  8.257623E-01
  8.214193E-01
  8.170764E-01
  8.125039E-01
  8.078333E-01
  8.031630E-01
  7.984930E-01
  7.935467E-01
  7.885941E-01
  7.836421E-01
  7.785739E-01
  7.733563E-01
  7.681399E-01
  7.629044E-01
  7.574205E-01
  7.519392E-01
  7.464604E-01
  7.407634E-01
  7.350407E-01
  7.293219E-01
  7.233781E-01
  7.173980E-01
  7.114226E-01
  7.051173E-01
  6.988052E-01
  6.924042E-01
  6.856901E-01
  6.789807E-01
  6.719973E-01
  6.648523E-01
  6.576403E-01
  6.500471E-01
  6.424573E-01
  6.345085E-01
  6.264766E-01
  6.182021E-01
  6.097509E-01
  6.011158E-01
  5.922635E-01
  5.832405E-01
  5.740054E-01
  5.645835E-01
  5.549991E-01
  5.451892E-01
  5.352913E-01
  5.251123E-01
  5.148414E-01
  5.044056E-01
  4.937841E-01
  4.830446E-01
  4.721528E-01
  4.610546E-01
  4.497990E-01
  4.383720E-01
  4.267751E-01
  4.150764E-01
  4.036925E-01
  3.935142E-01
  3.859651E-01
  3.834400E-01
  3.913761E-01
  4.030193E-01
  3.805273E-01
  4.060292E-01
  1.439094E-01
  5.325861E-02
  5.291393E-02
  5.291040E-02
  5.290687E-02
  5.290334E-02
  5.289981E-02
  5.289628E-02
  5.289276E-02
  5.288923E-02
  5.288570E-02
  5.288016E-02
  5.287454E-02
  5.286893E-02
  5.286331E-02
  5.285769E-02
  5.285208E-02
  5.284646E-02
  5.284261E-02
  5.284246E-02
  5.284231E-02
  5.284217E-02
  5.284202E-02
  5.284188E-02
  5.284173E-02
  5.284187E-02
  5.284596E-02
  5.285005E-02
  5.285415E-02
  5.285824E-02
  5.286234E-02
  5.286644E-02
  5.287045E-02
  5.287399E-02
  5.287754E-02
  5.288109E-02
  5.288465E-02
  5.288821E-02
  5.289178E-02
  5.289432E-02
  5.289625E-02
  5.289819E-02
  5.290014E-02
  5.290210E-02
  5.290407E-02
  5.290550E-02
  5.290612E-02
  5.290675E-02
  5.290740E-02
  5.290806E-02
  5.290874E-02
  5.290676E-02
  5.290205E-02
  5.289736E-02
  5.289269E-02
  5.288804E-02
  5.288341E-02
  5.286790E-02
  5.285092E-02
  5.283396E-02
  5.281702E-02
  5.280010E-02
  5.277517E-02
  5.274357E-02
  5.271199E-02
  5.268043E-02
  5.264889E-02
  5.261031E-02
  5.256408E-02
  5.251787E-02
  5.247168E-02
  5.242551E-02
  5.236930E-02
  5.230805E-02
  5.224682E-02
  5.218561E-02
  5.212328E-02
  5.204974E-02
  5.197621E-02
  5.190272E-02
  5.182924E-02
  5.174266E-02
  5.165169E-02
  5.156074E-02
  5.146981E-02
  5.135520E-02
  5.122612E-02
  5.109704E-02
  5.096796E-02
  5.079971E-02
  5.061468E-02
  5.042962E-02
  5.024453E-02
  4.999670E-02
  4.974733E-02
  4.949797E-02
  4.921325E-02
  4.888310E-02
  4.855317E-02
  4.821670E-02
  4.779772E-02
  4.737936E-02
  4.696161E-02
  4.649317E-02
  4.601884E-02
  4.554547E-02
  4.506287E-02
  4.457953E-02
  4.409724E-02
  4.363268E-02
  4.316964E-02
  4.271564E-02
  4.228988E-02
  4.186481E-02
  4.147082E-02
  4.109541E-02
  4.072890E-02
  4.040874E-02
  4.008876E-02
  3.981251E-02
  3.954665E-02
  3.930947E-02
  3.909317E-02
  3.889347E-02
  3.871330E-02
  3.854082E-02
  3.837794E-02
  3.821866E-02
  3.806262E-02
  3.790973E-02
  3.775832E-02
  3.761435E-02
  3.747618E-02
  3.734826E-02
  3.724167E-02
  3.715376E-02
  3.709394E-02
  3.708623E-02
  3.712866E-02
  3.723749E-02
  3.743817E-02
  3.778705E-02
  3.841278E-02
  3.951219E-02
  4.142532E-02
  4.471262E-02
  5.049311E-02
  5.806672E-02
  6.186174E-02
  7.292638E-02
  3.981125E-02
  1.707734E-02
  1.775803E-01
  1.775493E-01
  1.775183E-01
  1.774872E-01
  1.774562E-01
  1.774252E-01
  1.773941E-01
  1.773631E-01
  1.773321E-01
  1.772448E-01
  1.771553E-01
  1.770657E-01
  1.769761E-01
  1.768866E-01
  1.767970E-01
  1.767075E-01
  1.766014E-01
  1.764607E-01
  1.763200E-01
  1.761793E-01
  1.760386E-01
  1.758980E-01
  1.757573E-01
  1.756127E-01
  1.754135E-01
  1.752143E-01
  1.750151E-01
  1.748159E-01
  1.746167E-01
  1.744175E-01
  1.742057E-01
  1.739345E-01
  1.736632E-01
  1.733920E-01
  1.731207E-01
  1.728495E-01
  1.725782E-01
  1.722571E-01
  1.719061E-01
  1.715550E-01
  1.712040E-01
  1.708530E-01
  1.705019E-01
  1.701189E-01
  1.696889E-01
  1.692588E-01
  1.688288E-01
  1.683988E-01
  1.679687E-01
  1.675023E-01
  1.669986E-01
  1.664949E-01
  1.659912E-01
  1.654875E-01
  1.649839E-01
  1.644220E-01
  1.638521E-01
  1.632823E-01
  1.627124E-01
  1.621426E-01
  1.615409E-01
  1.609127E-01
  1.602844E-01
  1.596562E-01
  1.590280E-01
  1.583710E-01
  1.576827E-01
  1.569944E-01
  1.563076E-01
  1.556193E-01
  1.548880E-01
  1.541351E-01
  1.533822E-01
  1.526293E-01
  1.518716E-01
  1.510673E-01
  1.502630E-01
  1.494587E-01
  1.486543E-01
  1.478235E-01
  1.469838E-01
  1.461441E-01
  1.453044E-01
  1.444443E-01
  1.435718E-01
  1.426992E-01
  1.418267E-01
  1.409450E-01
  1.400595E-01
  1.391740E-01
  1.382886E-01
  1.374261E-01
  1.365644E-01
  1.357028E-01
  1.348510E-01
  1.340118E-01
  1.331730E-01
  1.323333E-01
  1.314776E-01
  1.306227E-01
  1.297688E-01
  1.288789E-01
  1.279866E-01
  1.270958E-01
  1.261491E-01
  1.251942E-01
  1.242411E-01
  1.231671E-01
  1.220907E-01
  1.209753E-01
  1.197227E-01
  1.184720E-01
  1.170961E-01
  1.156462E-01
  1.141658E-01
  1.125137E-01
  1.108627E-01
  1.090550E-01
  1.072106E-01
  1.052709E-01
  1.032618E-01
  1.011982E-01
  9.907048E-02
  9.691174E-02
  9.471451E-02
  9.250483E-02
  9.028439E-02
  8.807970E-02
  8.588144E-02
  8.374988E-02
  8.165835E-02
  7.963887E-02
  7.773950E-02
  7.592936E-02
  7.424526E-02
  7.275230E-02
  7.141258E-02
  7.025673E-02
  6.933207E-02
  6.876019E-02
  6.886785E-02
  7.021486E-02
  7.379455E-02
  8.109481E-02
  9.448679E-02
  1.111153E-01
  1.156763E-01
  1.249038E-01
 -3.830875E-04
  1.656723E-07
  9.725282E-01
  9.723932E-01
  9.722582E-01
  9.721232E-01
  9.719883E-01
  9.718533E-01
  9.717183E-01
  9.715833E-01
  9.714483E-01
  9.710577E-01
  9.706566E-01
  9.702555E-01
  9.698543E-01
  9.694532E-01
  9.690521E-01
  9.686510E-01
  9.681724E-01
  9.675312E-01
  9.668900E-01
  9.662488E-01
  9.656077E-01
  9.649665E-01
  9.643253E-01
  9.636678E-01
  9.627825E-01