 Title= "ADflow Lift Distribution Data"
Variables = "eta" "CoordinateX" "CoordinateY" "CoordinateZ" "Lift" "Drag" "Moment" "Normalized Lift" "Normalized Drag" "Normalized Moment" "CL" "CD" "CM" "CLp" "CDp" "CMp" "CLv" "CDv" "CMv" "Elliptical" "thickness" "twist" "chord" "fx" "fy" "fz" 
Zone T= "LiftDist_01 allWalls: : z normal"
 I=          150
 DATAPACKING=BLOCK
  0.000000E+00
  6.711405E-03
  1.342281E-02
  2.013422E-02
  2.684563E-02
  3.355704E-02
  4.026845E-02
  4.697986E-02
  5.369127E-02
  6.040268E-02
  6.711409E-02
  7.382550E-02
  8.053691E-02
  8.724832E-02
  9.395973E-02
  1.006711E-01
  1.073825E-01
  1.140940E-01
  1.208054E-01
  1.275168E-01
  1.342282E-01
  1.409396E-01
  1.476510E-01
  1.543624E-01
  1.610738E-01
  1.677852E-01
  1.744966E-01
  1.812081E-01
  1.879195E-01
  1.946309E-01
  2.013423E-01
  2.080537E-01
  2.147651E-01
  2.214765E-01
  2.281879E-01
  2.348993E-01
  2.416107E-01
  2.483221E-01
  2.550336E-01
  2.617450E-01
  2.684564E-01
  2.751678E-01
  2.818792E-01
  2.885906E-01
  2.953020E-01
  3.020134E-01
  3.087248E-01
  3.154362E-01
  3.221476E-01
  3.288591E-01
  3.355705E-01
  3.422819E-01
  3.489933E-01
  3.557047E-01
  3.624161E-01
  3.691275E-01
  3.758389E-01
  3.825503E-01
  3.892617E-01
  3.959732E-01
  4.026846E-01
  4.093960E-01
  4.161074E-01
  4.228188E-01
  4.295302E-01
  4.362416E-01
  4.429530E-01
  4.496644E-01
  4.563758E-01
  4.630872E-01
  4.697987E-01
  4.765101E-01
  4.832215E-01
  4.899329E-01
  4.966443E-01
  5.033557E-01
  5.100671E-01
  5.167785E-01
  5.234899E-01
  5.302013E-01
  5.369128E-01
  5.436242E-01
  5.503356E-01
  5.570470E-01
  5.637584E-01
  5.704698E-01
  5.771812E-01
  5.838926E-01
  5.906040E-01
  5.973154E-01
  6.040268E-01
  6.107383E-01
  6.174497E-01
  6.241611E-01
  6.308725E-01
  6.375839E-01
  6.442953E-01
  6.510067E-01
  6.577181E-01
  6.644295E-01
  6.711409E-01
  6.778524E-01
  6.845638E-01
  6.912752E-01
  6.979866E-01
  7.046980E-01
  7.114094E-01
  7.181208E-01
  7.248322E-01
  7.315436E-01
  7.382550E-01
  7.449664E-01
  7.516779E-01
  7.583893E-01
  7.651007E-01
  7.718121E-01
  7.785235E-01
  7.852349E-01
  7.919463E-01
  7.986577E-01
  8.053691E-01
  8.120805E-01
  8.187919E-01
  8.255034E-01
  8.322148E-01
  8.389262E-01
  8.456376E-01
  8.523490E-01
  8.590604E-01
  8.657718E-01
  8.724832E-01
  8.791946E-01
  8.859060E-01
  8.926175E-01
  8.993289E-01
  9.060403E-01
  9.127517E-01
  9.194631E-01
  9.261745E-01
  9.328859E-01
  9.395973E-01
  9.463087E-01
  9.530201E-01
  9.597315E-01
  9.664430E-01
  9.731544E-01
  9.798658E-01
  9.865772E-01
  9.932886E-01
  1.000000E+00
  0.000000E+00
  0.000000E+00
  0.000000E+00
  0.000000E+00
  0.000000E+00
  0.000000E+00
  0.000000E+00
  0.000000E+00
  0.000000E+00
  0.000000E+00
  0.000000E+00
  0.000000E+00
  0.000000E+00
  0.000000E+00
  0.000000E+00
  0.000000E+00
  0.000000E+00
  0.000000E+00
  0.000000E+00
  0.000000E+00
  0.000000E+00
  0.000000E+00
  0.000000E+00
  0.000000E+00
  0.000000E+00
  0.000000E+00
  0.000000E+00
  0.000000E+00
  0.000000E+00
  0.000000E+00
  0.000000E+00
  0.000000E+00
  0.000000E+00
  0.000000E+00
  0.000000E+00
  0.000000E+00
  0.000000E+00
  0.000000E+00
  0.000000E+00
  0.000000E+00
  0.000000E+00
  0.000000E+00
  0.000000E+00
  0.000000E+00
  0.000000E+00
  0.000000E+00
  0.000000E+00
  0.000000E+00
  0.000000E+00
  0.000000E+00
  0.000000E+00
  0.000000E+00
  0.000000E+00
  0.000000E+00
  0.000000E+00
  0.000000E+00
  0.000000E+00
  0.000000E+00
  0.000000E+00
  0.000000E+00
  0.000000E+00
  0.000000E+00
  0.000000E+00
  0.000000E+00
  0.000000E+00
  0.000000E+00
  0.000000E+00
  0.000000E+00
  0.000000E+00
  0.000000E+00
  0.000000E+00
  0.000000E+00
  0.000000E+00
  0.000000E+00
  0.000000E+00
  0.000000E+00
  0.000000E+00
  0.000000E+00
  0.000000E+00
  0.000000E+00
  0.000000E+00
  0.000000E+00
  0.000000E+00
  0.000000E+00
  0.000000E+00
  0.000000E+00
  0.000000E+00
  0.000000E+00
  0.000000E+00
  0.000000E+00
  0.000000E+00
  0.000000E+00
  0.000000E+00
  0.000000E+00
  0.000000E+00
  0.000000E+00
  0.000000E+00
  0.000000E+00
  0.000000E+00
  0.000000E+00
  0.000000E+00
  0.000000E+00
  0.000000E+00
  0.000000E+00
  0.000000E+00
  0.000000E+00
  0.000000E+00
  0.000000E+00
  0.000000E+00
  0.000000E+00
  0.000000E+00
  0.000000E+00
  0.000000E+00
  0.000000E+00
  0.000000E+00
  0.000000E+00
  0.000000E+00
  0.000000E+00
  0.000000E+00
  0.000000E+00
  0.000000E+00
  0.000000E+00
  0.000000E+00
  0.000000E+00
  0.000000E+00
  0.000000E+00
  0.000000E+00
  0.000000E+00
  0.000000E+00
  0.000000E+00
  0.000000E+00
  0.000000E+00
  0.000000E+00
  0.000000E+00
  0.000000E+00
  0.000000E+00
  0.000000E+00
  0.000000E+00
  0.000000E+00
  0.000000E+00
  0.000000E+00
  0.000000E+00
  0.000000E+00
  0.000000E+00
  0.000000E+00
  0.000000E+00
  0.000000E+00
  0.000000E+00
  0.000000E+00
  0.000000E+00
  0.000000E+00
  0.000000E+00
  0.000000E+00
  0.000000E+00
  0.000000E+00
  0.000000E+00
  0.000000E+00
  0.000000E+00
  0.000000E+00
  0.000000E+00
  0.000000E+00
  0.000000E+00
  0.000000E+00
  0.000000E+00
  0.000000E+00
  0.000000E+00
  0.000000E+00
  0.000000E+00
  0.000000E+00
  0.000000E+00
  0.000000E+00
  0.000000E+00
  0.000000E+00
  0.000000E+00
  0.000000E+00
  0.000000E+00
  0.000000E+00
  0.000000E+00
  0.000000E+00
  0.000000E+00
  0.000000E+00
  0.000000E+00
  0.000000E+00
  0.000000E+00
  0.000000E+00
  0.000000E+00
  0.000000E+00
  0.000000E+00
  0.000000E+00
  0.000000E+00
  0.000000E+00
  0.000000E+00
  0.000000E+00
  0.000000E+00
  0.000000E+00
  0.000000E+00
  0.000000E+00
  0.000000E+00
  0.000000E+00
  0.000000E+00
  0.000000E+00
  0.000000E+00
  0.000000E+00
  0.000000E+00
  0.000000E+00
  0.000000E+00
  0.000000E+00
  0.000000E+00
  0.000000E+00
  0.000000E+00
  0.000000E+00
  0.000000E+00
  0.000000E+00
  0.000000E+00
  0.000000E+00
  0.000000E+00
  0.000000E+00
  0.000000E+00
  0.000000E+00
  0.000000E+00
  0.000000E+00
  0.000000E+00
  0.000000E+00
  0.000000E+00
  0.000000E+00
  0.000000E+00
  0.000000E+00
  0.000000E+00
  0.000000E+00
  0.000000E+00
  0.000000E+00
  0.000000E+00
  0.000000E+00
  0.000000E+00
  0.000000E+00
  0.000000E+00
  0.000000E+00
  0.000000E+00
  0.000000E+00
  0.000000E+00
  0.000000E+00
  0.000000E+00
  0.000000E+00
  0.000000E+00
  0.000000E+00
  0.000000E+00
  0.000000E+00
  0.000000E+00
  0.000000E+00
  0.000000E+00
  0.000000E+00
  0.000000E+00
  0.000000E+00
  0.000000E+00
  0.000000E+00
  0.000000E+00
  0.000000E+00
  0.000000E+00
  0.000000E+00
  0.000000E+00
  0.000000E+00
  0.000000E+00
  0.000000E+00
  0.000000E+00
  0.000000E+00
  0.000000E+00
  0.000000E+00
  0.000000E+00
  0.000000E+00
  0.000000E+00
  0.000000E+00
  0.000000E+00
  0.000000E+00
  0.000000E+00
  0.000000E+00
  0.000000E+00
  0.000000E+00
  0.000000E+00
  0.000000E+00
  0.000000E+00
  0.000000E+00
  0.000000E+00
  0.000000E+00
  0.000000E+00
  0.000000E+00
  0.000000E+00
  0.000000E+00
  0.000000E+00
  0.000000E+00
  0.000000E+00
  0.000000E+00
  0.000000E+00
  0.000000E+00
  0.000000E+00
  0.000000E+00
  0.000000E+00
  0.000000E+00
  0.000000E+00
  0.000000E+00
  0.000000E+00
  1.000000E-08
  1.691809E-02
  3.383618E-02
  5.075427E-02
  6.767237E-02
  8.459046E-02
  1.015085E-01
  1.184266E-01
  1.353447E-01
  1.522628E-01
  1.691809E-01
  1.860990E-01
  2.030171E-01
  2.199352E-01
  2.368533E-01
  2.537714E-01
  2.706895E-01
  2.876076E-01
  3.045256E-01
  3.214437E-01
  3.383618E-01
  3.552799E-01
  3.721980E-01
  3.891161E-01
  4.060342E-01
  4.229523E-01
  4.398704E-01
  4.567885E-01
  4.737066E-01
  4.906247E-01
  5.075427E-01
  5.244608E-01
  5.413789E-01
  5.582970E-01
  5.752151E-01
  5.921332E-01
  6.090513E-01
  6.259694E-01
  6.428875E-01
  6.598056E-01
  6.767237E-01
  6.936418E-01
  7.105598E-01
  7.274779E-01
  7.443960E-01
  7.613141E-01
  7.782322E-01
  7.951503E-01
  8.120684E-01
  8.289865E-01
  8.459046E-01
  8.628227E-01
  8.797408E-01
  8.966589E-01
  9.135769E-01
  9.304950E-01
  9.474131E-01
  9.643312E-01
  9.812493E-01
  9.981674E-01
  1.015085E+00
  1.032004E+00
  1.048922E+00
  1.065840E+00
  1.082758E+00
  1.099676E+00
  1.116594E+00
  1.133512E+00
  1.150430E+00
  1.167348E+00
  1.184266E+00
  1.201185E+00
  1.218103E+00
  1.235021E+00
  1.251939E+00
  1.268857E+00
  1.285775E+00
  1.302693E+00
  1.319611E+00
  1.336529E+00
  1.353447E+00
  1.370365E+00
  1.387284E+00
  1.404202E+00
  1.421120E+00
  1.438038E+00
  1.454956E+00
  1.471874E+00
  1.488792E+00
  1.505710E+00
  1.522628E+00
  1.539546E+00
  1.556464E+00
  1.573383E+00
  1.590301E+00
  1.607219E+00
  1.624137E+00
  1.641055E+00
  1.657973E+00
  1.674891E+00
  1.691809E+00
  1.708727E+00
  1.725645E+00
  1.742563E+00
  1.759482E+00
  1.776400E+00
  1.793318E+00
  1.810236E+00
  1.827154E+00
  1.844072E+00
  1.860990E+00
  1.877908E+00
  1.894826E+00
  1.911744E+00
  1.928662E+00
  1.945581E+00
  1.962499E+00
  1.979417E+00
  1.996335E+00
  2.013253E+00
  2.030171E+00
  2.047089E+00
  2.064007E+00
  2.080925E+00
  2.097843E+00
  2.114761E+00
  2.131680E+00
  2.148598E+00
  2.165516E+00
  2.182434E+00
  2.199352E+00
  2.216270E+00
  2.233188E+00
  2.250106E+00
  2.267024E+00
  2.283942E+00
  2.300860E+00
  2.317779E+00
  2.334697E+00
  2.351615E+00
  2.368533E+00
  2.385451E+00
  2.402369E+00
  2.419287E+00
  2.436205E+00
  2.453123E+00
  2.470041E+00
  2.486959E+00
  2.503878E+00
  2.520796E+00
  1.097957E+04
  1.097806E+04
  1.097656E+04
  1.097505E+04
  1.097355E+04
  1.097204E+04
  1.097054E+04
  1.096904E+04
  1.096753E+04
  1.096315E+04
  1.095864E+04
  1.095414E+04
  1.094963E+04
  1.094512E+04
  1.094062E+04
  1.093611E+04
  1.093073E+04
  1.092351E+04
  1.091629E+04
  1.090906E+04
  1.090184E+04
  1.089462E+04
  1.088740E+04
  1.087999E+04
  1.087005E+04
  1.086011E+04
  1.085017E+04
  1.084023E+04
  1.083029E+04
  1.082035E+04
  1.080990E+04
  1.079701E+04
  1.078412E+04
  1.077123E+04
  1.075834E+04
  1.074545E+04
  1.073256E+04
  1.071773E+04
  1.070172E+04
  1.068572E+04
  1.066971E+04
  1.065371E+04
  1.063771E+04
  1.062043E+04
  1.060126E+04
  1.058210E+04
  1.056293E+04
  1.054377E+04
  1.052460E+04
  1.050383E+04
  1.048140E+04
  1.045897E+04
  1.043654E+04
  1.041412E+04
  1.039169E+04
  1.036626E+04
  1.034042E+04
  1.031457E+04
  1.028873E+04
  1.026288E+04
  1.023513E+04
  1.020579E+04
  1.017645E+04
  1.014711E+04
  1.011778E+04
  1.008669E+04
  1.005370E+04
  1.002071E+04
  9.987724E+03
  9.954737E+03
  9.919130E+03
  9.882207E+03
  9.845284E+03
  9.808362E+03
  9.771061E+03
  9.730036E+03
  9.689012E+03
  9.647990E+03
  9.606968E+03
  9.562861E+03
  9.517717E+03
  9.472574E+03
  9.427433E+03
  9.379753E+03
  9.330526E+03
  9.281300E+03
  9.232077E+03
  9.180215E+03
  9.127227E+03
  9.074242E+03
  9.021260E+03
  8.965111E+03
  8.908889E+03
  8.852675E+03
  8.795130E+03
  8.735876E+03
  8.676638E+03
  8.617180E+03
  8.554889E+03
  8.492627E+03
  8.430395E+03
  8.365698E+03
  8.300711E+03
  8.235770E+03
  8.168314E+03
  8.100454E+03
  8.032648E+03
  7.961150E+03
  7.889578E+03
  7.817007E+03
  7.740920E+03
  7.664885E+03
  7.585765E+03
  7.504825E+03
  7.423128E+03
  7.337129E+03
  7.251167E+03
  7.161153E+03
  7.070202E+03
  6.976515E+03
  6.880839E+03
  6.783091E+03
  6.682898E+03
  6.580781E+03
  6.476277E+03
  6.369674E+03
  6.261248E+03
  6.150297E+03
  6.038362E+03
  5.923284E+03
  5.807180E+03
  5.689233E+03
  5.569209E+03
  5.447865E+03
  5.324815E+03
  5.199444E+03
  5.072307E+03
  4.943247E+03
  4.812286E+03
  4.680214E+03
  4.551756E+03
  4.436989E+03
  4.352004E+03
  4.323865E+03
  4.414065E+03
  4.546491E+03
  4.293694E+03
  4.582334E+03
  1.330197E+03
  7.300221E-03
  5.972850E+02
  5.972547E+02
  5.972243E+02
  5.971939E+02
  5.971636E+02
  5.971332E+02
  5.971028E+02
  5.970725E+02
  5.970421E+02
  5.969962E+02
  5.969497E+02
  5.969031E+02
  5.968566E+02
  5.968101E+02
  5.967635E+02
  5.967170E+02
  5.966898E+02
  5.967030E+02
  5.967163E+02
  5.967296E+02
  5.967429E+02
  5.967562E+02
  5.967695E+02
  5.967863E+02
  5.968509E+02
  5.969156E+02
  5.969803E+02
  5.970450E+02
  5.971098E+02
  5.971746E+02
  5.972389E+02
  5.973010E+02
  5.973631E+02
  5.974253E+02
  5.974875E+02
  5.975498E+02
  5.976122E+02
  5.976637E+02
  5.977087E+02
  5.977538E+02
  5.977991E+02
  5.978444E+02
  5.978899E+02
  5.979288E+02
  5.979580E+02
  5.979873E+02
  5.980169E+02
  5.980466E+02
  5.980765E+02
  5.980762E+02
  5.980450E+02
  5.980141E+02
  5.979834E+02
  5.979529E+02
  5.979226E+02
  5.977709E+02
  5.976029E+02
  5.974351E+02
  5.972675E+02
  5.971001E+02
  5.968425E+02
  5.965100E+02
  5.961777E+02
  5.958456E+02
  5.955138E+02
  5.951029E+02
  5.946061E+02
  5.941095E+02
  5.936132E+02
  5.931171E+02
  5.925112E+02
  5.918503E+02
  5.911896E+02
  5.905292E+02
  5.898569E+02
  5.890671E+02
  5.882775E+02
  5.874882E+02
  5.866992E+02
  5.857667E+02
  5.847860E+02
  5.838055E+02
  5.828254E+02
  5.815704E+02
  5.801476E+02
  5.787247E+02
  5.773018E+02
  5.754108E+02
  5.733193E+02
  5.712275E+02
  5.691354E+02
  5.662769E+02
  5.633995E+02
  5.605225E+02
  5.572123E+02
  5.533459E+02
  5.494822E+02
  5.455385E+02
  5.405874E+02
  5.356438E+02
  5.307076E+02
  5.251485E+02
  5.195168E+02
  5.138967E+02
  5.081625E+02
  5.024188E+02
  4.966879E+02
  4.911831E+02
  4.856972E+02
  4.803252E+02
  4.753115E+02
  4.703058E+02
  4.656921E+02
  4.613124E+02
  4.570447E+02
  4.533609E+02
  4.496793E+02
  4.465501E+02
  4.435520E+02
  4.409171E+02
  4.385466E+02
  4.363880E+02
  4.344786E+02
  4.326702E+02
  4.309875E+02
  4.293532E+02
  4.277623E+02
  4.262095E+02
  4.246747E+02
  4.232204E+02
  4.218291E+02
  4.205482E+02
  4.194994E+02
  4.186555E+02
  4.181200E+02
  4.181601E+02
  4.187571E+02
  4.200943E+02
  4.224591E+02
  4.264889E+02
  4.336386E+02
  4.461343E+02
  4.678189E+02
  5.050330E+02
  5.704528E+02
  6.562088E+02
  6.992952E+02
  8.245566E+02
  3.690347E+02
  2.340010E-03
  2.005388E+03
  2.005036E+03
  2.004685E+03
  2.004333E+03
  2.003981E+03
  2.003630E+03
  2.003278E+03
  2.002926E+03
  2.002575E+03
  2.001583E+03
  2.000565E+03
  1.999546E+03
  1.998528E+03
  1.997510E+03
  1.996492E+03
  1.995473E+03
  1.994272E+03
  1.992688E+03
  1.991103E+03
  1.989518E+03
  1.987933E+03
  1.986349E+03
  1.984764E+03
  1.983137E+03
  1.980928E+03
  1.978719E+03
  1.976509E+03
  1.974300E+03
  1.972090E+03
  1.969881E+03
  1.967538E+03
  1.964556E+03
  1.961575E+03
  1.958594E+03
  1.955613E+03
  1.952632E+03
  1.949650E+03
  1.946130E+03
  1.942286E+03
  1.938442E+03
  1.934598E+03
  1.930754E+03
  1.926911E+03
  1.922719E+03
  1.918015E+03
  1.913311E+03
  1.908607E+03
  1.903903E+03
  1.899199E+03
  1.894095E+03
  1.888583E+03
  1.883070E+03
  1.877558E+03
  1.872046E+03
  1.866534E+03
  1.860370E+03
  1.854117E+03
  1.847864E+03
  1.841611E+03
  1.835358E+03
  1.828734E+03
  1.821801E+03
  1.814868E+03
  1.807936E+03
  1.801003E+03
  1.793725E+03
  1.786071E+03
  1.778418E+03
  1.770780E+03
  1.763127E+03
  1.754950E+03
  1.746510E+03
  1.738071E+03
  1.729631E+03
  1.721131E+03
  1.712043E+03
  1.702954E+03
  1.693865E+03
  1.684777E+03
  1.675342E+03
  1.665792E+03
  1.656242E+03
  1.646692E+03
  1.636892E+03
  1.626941E+03
  1.616990E+03
  1.607040E+03
  1.596988E+03
  1.586893E+03
  1.576798E+03
  1.566704E+03
  1.556891E+03
  1.547087E+03
  1.537285E+03
  1.527610E+03
  1.518100E+03
  1.508596E+03
  1.499084E+03
  1.489435E+03
  1.479797E+03
  1.470170E+03
  1.460164E+03
  1.450135E+03
  1.440123E+03
  1.429482E+03
  1.418748E+03
  1.408035E+03
  1.395931E+03
  1.383801E+03
  1.371219E+03
  1.357054E+03
  1.342909E+03
  1.327314E+03
  1.310862E+03
  1.294055E+03
  1.275254E+03
  1.256464E+03
  1.235851E+03
  1.214811E+03
  1.192661E+03
  1.169702E+03
  1.146110E+03
  1.121773E+03
  1.097077E+03
  1.071935E+03
  1.046651E+03
  1.021244E+03
  9.960193E+02
  9.708696E+02
  9.464869E+02
  9.225626E+02
  8.994630E+02
  8.777335E+02
  8.570202E+02
  8.377409E+02
  8.206324E+02
  8.052643E+02
  7.919853E+02
  7.813350E+02
  7.746979E+02
  7.757811E+02
  7.909176E+02
  8.313381E+02
  9.138721E+02
  1.065397E+03
  1.253769E+03
  1.305859E+03
  1.410586E+03
 -1.962834E+00
  2.270501E-08
  1.232798E+00
  1.232629E+00
  1.232460E+00
  1.232291E+00
  1.232122E+00
  1.231953E+00
  1.231785E+00
  1.231616E+00
  1.231447E+00
  1.230954E+00
  1.230448E+00
  1.229943E+00
  1.229437E+00
  1.228931E+00
  1.228425E+00
  1.227919E+00
  1.227315E+00
  1.226504E+00
  1.225693E+00
  1.224882E+00
  1.224071E+00
  1.223260E+00
  1.222449E+00
  1.221618E+00
  1.220502E+00
  1.219386E+00
  1.218270E+00
  1.217154E+00
  1.216038E+00
  1.214922E+00
  1.213748E+00
  1.212301E+00
  1.210853E+00
  1.209406E+00
  1.207959E+00
  1.206511E+00
  1.205064E+00
  1.203398E+00
  1.201601E+00
  1.199804E+00
  1.198008E+00
  1.196211E+00
  1.194414E+00
  1.192474E+00
  1.190322E+00
  1.188170E+00
  1.186018E+00
  1.183866E+00
  1.181714E+00
  1.179381E+00
  1.176863E+00
  1.174345E+00
  1.171827E+00
  1.169309E+00
  1.166791E+00
  1.163935E+00
  1.161033E+00
  1.158132E+00
  1.155230E+00
  1.152328E+00
  1.149212E+00
  1.145918E+00
  1.142623E+00
  1.139329E+00
  1.136035E+00
  1.132545E+00
  1.128841E+00
  1.125137E+00
  1.121433E+00
  1.117729E+00
  1.113731E+00
  1.109585E+00
  1.105439E+00
  1.101294E+00
  1.097106E+00
  1.092499E+00
  1.087893E+00
  1.083287E+00
  1.078681E+00
  1.073729E+00
  1.068660E+00
  1.063591E+00
  1.058523E+00
  1.053169E+00
  1.047642E+00
  1.042115E+00
  1.036588E+00
  1.030765E+00
  1.024815E+00
  1.018866E+00
  1.012917E+00
  1.006613E+00
  1.000300E+00
  9.939882E-01
  9.875270E-01
  9.808740E-01
  9.742226E-01
  9.675466E-01
  9.605525E-01
  9.535617E-01
  9.465742E-01
  9.393099E-01
  9.320132E-01
  9.247215E-01
  9.171474E-01
  9.095280E-01
  9.019147E-01
  8.938869E-01
  8.858507E-01
  8.777023E-01
  8.691592E-01
  8.606219E-01
  8.517382E-01
  8.426502E-01
  8.334771E-01
  8.238210E-01
  8.141691E-01
  8.040623E-01
  7.938501E-01
  7.833309E-01
  7.725884E-01
  7.616130E-01
  7.503633E-01
  7.388975E-01
  7.271636E-01
  7.151941E-01
  7.030200E-01
  6.905622E-01
  6.779941E-01
  6.650729E-01
  6.520367E-01
  6.387934E-01
  6.253170E-01
  6.116924E-01
  5.978762E-01
  5.837994E-01
  5.695243E-01
  5.550333E-01
  5.403289E-01
  5.254996E-01
  5.110762E-01
  4.981901E-01
  4.886479E-01
  4.854884E-01
  4.956161E-01
  5.104851E-01
  4.821007E-01
  5.145096E-01
  1.493560E-01
  8.196770E-07
  1.087764E+00
  1.087709E+00
  1.087653E+00
  1.087598E+00
  1.087543E+00
  1.087487E+00
  1.087432E+00
  1.087377E+00
  1.087322E+00
  1.087238E+00
  1.087153E+00
  1.087068E+00
  1.086984E+00
  1.086899E+00
  1.086814E+00
  1.086730E+00
  1.086680E+00
  1.086704E+00
  1.086728E+00
  1.086752E+00
  1.086777E+00
  1.086801E+00
  1.086825E+00
  1.086856E+00
  1.086973E+00
  1.087091E+00
  1.087209E+00
  1.087327E+00
  1.087445E+00
  1.087563E+00
  1.087680E+00
  1.087793E+00
  1.087906E+00
  1.088019E+00
  1.088133E+00
  1.088246E+00
  1.088360E+00
  1.088454E+00
  1.088536E+00
  1.088618E+00
  1.088700E+00
  1.088783E+00
  1.088866E+00
  1.088936E+00
  1.088989E+00
  1.089043E+00
  1.089097E+00
  1.089151E+00
  1.089205E+00
  1.089205E+00
  1.089148E+00
  1.089092E+00
  1.089036E+00
  1.088980E+00
  1.088925E+00
  1.088649E+00
  1.088343E+00
  1.088037E+00
  1.087732E+00
  1.087427E+00
  1.086958E+00
  1.086352E+00
  1.085747E+00
  1.085143E+00
  1.084538E+00
  1.083790E+00
  1.082885E+00
  1.081981E+00
  1.081077E+00
  1.080173E+00
  1.079070E+00
  1.077866E+00
  1.076663E+00
  1.075460E+00
  1.074236E+00
  1.072798E+00
  1.071360E+00
  1.069922E+00
  1.068485E+00
  1.066787E+00
  1.065001E+00
  1.063215E+00
  1.061430E+00
  1.059145E+00
  1.056554E+00
  1.053962E+00
  1.051371E+00
  1.047927E+00
  1.044118E+00
  1.040308E+00
  1.036498E+00
  1.031293E+00
  1.026052E+00
  1.020813E+00
  1.014784E+00
  1.007743E+00
  1.000706E+00
  9.935242E-01
  9.845074E-01
  9.755042E-01
  9.665145E-01
  9.563904E-01
  9.461340E-01
  9.358987E-01
  9.254557E-01
  9.149955E-01
  9.045584E-01
  8.945331E-01
  8.845423E-01
  8.747590E-01
  8.656281E-01
  8.565119E-01
  8.481095E-01
  8.401333E-01
  8.323610E-01
  8.256521E-01
  8.189473E-01
  8.132484E-01
  8.077884E-01
  8.029896E-01
  7.986726E-01
  7.947414E-01
  7.912641E-01
  7.879707E-01
  7.849062E-01
  7.819298E-01
  7.790325E-01
  7.762046E-01
  7.734095E-01
  7.707608E-01
  7.682270E-01
  7.658943E-01
  7.639842E-01
  7.624474E-01
  7.614721E-01
  7.615451E-01
  7.626323E-01
  7.650676E-01
  7.693744E-01
  7.767134E-01
  7.897342E-01
  8.124911E-01
  8.519828E-01
  9.197564E-01
  1.038898E+00
  1.195075E+00
  1.273543E+00
  1.501667E+00
  6.720789E-01
  4.261581E-06
  1.260710E+00
  1.260488E+00
  1.260267E+00
  1.260046E+00
  1.259825E+00
  1.259604E+00
  1.259383E+00
  1.259162E+00
  1.258941E+00
  1.258317E+00
  1.257677E+00
  1.257037E+00
  1.256397E+00
  1.255757E+00
  1.255117E+00
  1.254477E+00
  1.253722E+00
  1.252725E+00
  1.251729E+00
  1.250733E+00
  1.249736E+00
  1.248740E+00
  1.247744E+00
  1.246721E+00
  1.245332E+00
  1.243943E+00
  1.242555E+00
  1.241166E+00
  1.239777E+00
  1.238388E+00
  1.236915E+00
  1.235040E+00
  1.233166E+00
  1.231292E+00
  1.229418E+00
  1.227544E+00
  1.225669E+00
  1.223456E+00
  1.221040E+00
  1.218623E+00
  1.216207E+00
  1.213790E+00
  1.211374E+00
  1.208739E+00
  1.205781E+00
  1.202824E+00
  1.199867E+00
  1.196910E+00
  1.193953E+00
  1.190744E+00
  1.187279E+00
  1.183813E+00
  1.180348E+00
  1.176883E+00
  1.173417E+00
  1.169542E+00
  1.165611E+00
  1.161680E+00
  1.157749E+00
  1.153818E+00
  1.149654E+00
  1.145296E+00
  1.140937E+00
  1.136579E+00
  1.132221E+00
  1.127645E+00
  1.122834E+00
  1.118022E+00
  1.113221E+00
  1.108409E+00
  1.103269E+00
  1.097963E+00
  1.092658E+00
  1.087352E+00
  1.082009E+00
  1.076295E+00
  1.070581E+00
  1.064867E+00
  1.059154E+00
  1.053223E+00
  1.047219E+00
  1.041215E+00
  1.035211E+00
  1.029051E+00
  1.022795E+00
  1.016539E+00
  1.010284E+00
  1.003964E+00
  9.976178E-01
  9.912718E-01
  9.849262E-01
  9.787571E-01
  9.725935E-01
  9.664311E-01
  9.603488E-01
  9.543707E-01
  9.483956E-01
  9.424161E-01
  9.363502E-01
  9.302912E-01
  9.242390E-01
  9.179483E-01
  9.116434E-01
  9.053494E-01
  8.986600E-01
  8.919115E-01
  8.851766E-01
  8.775676E-01
  8.699417E-01
  8.620320E-01
  8.531269E-01
  8.442348E-01
  8.344310E-01
  8.240881E-01
  8.135222E-01
  8.017024E-01
  7.898901E-01
  7.769313E-01
  7.637043E-01
  7.497796E-01
  7.353461E-01
  7.205150E-01
  7.052153E-01
  6.896898E-01
  6.738842E-01
  6.579889E-01
  6.420163E-01
  6.261586E-01
  6.103480E-01
  5.950195E-01
  5.799792E-01
  5.654574E-01
  5.517969E-01
  5.387753E-01
  5.266551E-01
  5.158997E-01
  5.062384E-01
  4.978904E-01
  4.911950E-01
  4.870225E-01
  4.877034E-01
  4.972192E-01
  5.226300E-01
  5.745159E-01
  6.697735E-01
  7.881957E-01
  8.209426E-01
  8.867804E-01
 -1.233958E-03
  1.427376E-11
  9.722473E-01
  9.721141E-01
  9.719809E-01
  9.718478E-01
  9.717146E-01
  9.715814E-01
  9.714483E-01
  9.713151E-01
  9.711819E-01
  9.707936E-01
  9.703947E-01
  9.699958E-01
  9.695968E-01
  9.691979E-01
  9.687990E-01
  9.684001E-01
  9.679236E-01
  9.672841E-01
  9.666447E-01
  9.660052E-01
  9.653657E-01
  9.647263E-01
  9.640868E-01
  9.634313E-01
  9.625512E-01
  9.616712E-01
  9.607911E-01
  9.599110E-01
  9.590309E-01
  9.581509E-01
  9.572254E-01
  9.560841E-01
  9.549428E-01
  9.538015E-01
  9.526603E-01
  9.515190E-01
  9.503777E-01
  9.490641E-01
  9.476471E-01
  9.462301E-01
  9.448132E-01
  9.433963E-01
  9.419794E-01
  9.404493E-01
  9.387523E-01
  9.370554E-01
  9.353584E-01
  9.336616E-01
  9.319647E-01
  9.301250E-01
  9.281392E-01
  9.261535E-01
  9.241678E-01
  9.221821E-01
  9.201965E-01
  9.179444E-01
  9.156559E-01
  9.133674E-01
  9.110791E-01
  9.087907E-01
  9.063332E-01
  9.037352E-01
  9.011372E-01
  8.985393E-01
  8.959414E-01
  8.931886E-01
  8.902675E-01
  8.873464E-01
  8.844253E-01
  8.815043E-01
  8.783512E-01
  8.750815E-01
  8.718119E-01
  8.685424E-01
  8.652392E-01
  8.616063E-01
  8.579735E-01
  8.543407E-01
  8.507080E-01
  8.468022E-01
  8.428044E-01
  8.388068E-01
  8.348092E-01
  8.305869E-01
  8.262275E-01
  8.218683E-01
  8.175093E-01
  8.129168E-01
  8.082245E-01
  8.035326E-01
  7.988409E-01
  7.938690E-01
  7.888907E-01
  7.839130E-01
  7.788177E-01
  7.735711E-01
  7.683258E-01
  7.630611E-01
  7.575456E-01
  7.520325E-01
  7.465219E-01
  7.407927E-01
  7.350377E-01
  7.292864E-01
  7.233122E-01
  7.173019E-01
  7.112962E-01
  7.049635E-01
  6.986240E-01
  6.921959E-01
  6.854567E-01
  6.787220E-01
  6.717143E-01
  6.645457E-01
  6.573101E-01
  6.496943E-01
  6.420817E-01
  6.341110E-01
  6.260574E-01
  6.177622E-01
  6.092910E-01
  6.006366E-01
  5.917659E-01
  5.827250E-01
  5.734728E-01
  5.640347E-01
  5.544351E-01
  5.446118E-01
  5.347012E-01
  5.245120E-01
  5.142318E-01
  5.037881E-01
  4.931602E-01
  4.824151E-01
  4.715186E-01
  4.604162E-01
  4.491572E-01
  4.377276E-01
  4.261296E-01
  4.144328E-01
  4.030559E-01
  3.928911E-01
  3.853633E-01
  3.828689E-01
  3.908528E-01
  4.025753E-01
  3.801875E-01
  4.057412E-01
  1.441616E-01
  5.305599E-02
  5.288996E-02
  5.288727E-02
  5.288458E-02
  5.288189E-02
  5.287920E-02
  5.287652E-02
  5.287383E-02
  5.287114E-02
  5.286846E-02
  5.286439E-02
  5.286027E-02
  5.285616E-02
  5.285204E-02
  5.284792E-02
  5.284380E-02
  5.283969E-02
  5.283728E-02
  5.283846E-02
  5.283964E-02
  5.284082E-02
  5.284200E-02
  5.284318E-02
  5.284437E-02
  5.284586E-02
  5.285159E-02
  5.285732E-02
  5.286306E-02
  5.286879E-02
  5.287453E-02
  5.288028E-02
  5.288598E-02
  5.289148E-02
  5.289699E-02
  5.290251E-02
  5.290803E-02
  5.291355E-02
  5.291908E-02
  5.292365E-02
  5.292765E-02
  5.293165E-02
  5.293567E-02
  5.293969E-02
  5.294373E-02
  5.294718E-02
  5.294977E-02
  5.295238E-02
  5.295501E-02
  5.295765E-02
  5.296031E-02
  5.296029E-02
  5.295754E-02
  5.295481E-02
  5.295210E-02
  5.294941E-02
  5.294673E-02
  5.293331E-02
  5.291844E-02
  5.290358E-02
  5.288874E-02
  5.287393E-02
  5.285112E-02
  5.282168E-02
  5.279226E-02
  5.276286E-02
  5.273348E-02
  5.269710E-02
  5.265311E-02
  5.260914E-02
  5.256518E-02
  5.252125E-02
  5.246759E-02
  5.240907E-02
  5.235056E-02
  5.229207E-02
  5.223254E-02
  5.216259E-02
  5.209267E-02
  5.202277E-02
  5.195289E-02
  5.187030E-02
  5.178345E-02
  5.169661E-02
  5.160981E-02
  5.149866E-02
  5.137265E-02
  5.124664E-02
  5.112063E-02
  5.095317E-02
  5.076796E-02
  5.058273E-02
  5.039747E-02
  5.014435E-02
  4.988957E-02
  4.963482E-02
  4.934172E-02
  4.899936E-02
  4.865725E-02
  4.830806E-02
  4.786966E-02
  4.743192E-02
  4.699482E-02
  4.650254E-02
  4.600382E-02
  4.550611E-02
  4.499828E-02
  4.448960E-02
  4.398203E-02
  4.349448E-02
  4.300860E-02
  4.253280E-02
  4.208872E-02
  4.164536E-02
  4.123672E-02
  4.084881E-02
  4.047083E-02
  4.014458E-02
  3.981854E-02
  3.954144E-02
  3.927597E-02
  3.904268E-02
  3.883284E-02
  3.864176E-02
  3.847278E-02
  3.831274E-02
  3.816384E-02
  3.801923E-02
  3.787846E-02
  3.774106E-02
  3.760525E-02
  3.747654E-02
  3.735340E-02
  3.724003E-02
  3.714718E-02
  3.707246E-02
  3.702502E-02
  3.702852E-02
  3.708131E-02
  3.719961E-02
  3.740890E-02
  3.776558E-02
  3.839850E-02
  3.950476E-02
  4.142465E-02
  4.471959E-02
  5.051197E-02
  5.810491E-02
  6.191948E-02
  7.301008E-02
  3.999453E-02
  1.700655E-02
  1.775783E-01
  1.775472E-01
  1.775161E-01
  1.774849E-01
  1.774538E-01
  1.774227E-01
  1.773915E-01
  1.773604E-01
  1.773293E-01
  1.772414E-01
  1.771513E-01
  1.770611E-01
  1.769710E-01
  1.768808E-01
  1.767907E-01
  1.767005E-01
  1.765942E-01
  1.764538E-01
  1.763135E-01
  1.761732E-01
  1.760329E-01
  1.758926E-01
  1.757522E-01
  1.756082E-01
  1.754126E-01
  1.752170E-01
  1.750214E-01
  1.748258E-01
  1.746301E-01
  1.744345E-01
  1.742270E-01
  1.739631E-01
  1.736991E-01
  1.734351E-01
  1.731712E-01
  1.729072E-01
  1.726432E-01
  1.723315E-01
  1.719912E-01
  1.716508E-01
  1.713105E-01
  1.709701E-01
  1.706298E-01
  1.702587E-01
  1.698421E-01
  1.694256E-01
  1.690091E-01
  1.685926E-01
  1.681761E-01
  1.677242E-01
  1.672361E-01
  1.667480E-01
  1.662599E-01
  1.657718E-01
  1.652837E-01
  1.647379E-01
  1.641842E-01
  1.636305E-01
  1.630768E-01
  1.625232E-01
  1.619366E-01
  1.613227E-01
  1.607088E-01
  1.600949E-01
  1.594810E-01
  1.588366E-01
  1.581588E-01
  1.574811E-01
  1.568048E-01
  1.561270E-01
  1.554030E-01
  1.546556E-01
  1.539083E-01
  1.531609E-01
  1.524083E-01
  1.516034E-01
  1.507986E-01
  1.499937E-01
  1.491889E-01
  1.483535E-01
  1.475077E-01
  1.466620E-01
  1.458163E-01
  1.449485E-01
  1.440673E-01
  1.431861E-01
  1.423049E-01
  1.414148E-01
  1.405208E-01
  1.396270E-01
  1.387331E-01
  1.378642E-01
  1.369960E-01
  1.361281E-01
  1.352714E-01
  1.344294E-01
  1.335878E-01
  1.327456E-01
  1.318913E-01
  1.310379E-01
  1.301854E-01
  1.292993E-01
  1.284111E-01
  1.275245E-01
  1.265820E-01
  1.256313E-01
  1.246824E-01
  1.236103E-01
  1.225359E-01
  1.214214E-01
  1.201668E-01
  1.189140E-01
  1.175328E-01
  1.160757E-01
  1.145872E-01
  1.129222E-01
  1.112583E-01
  1.094330E-01
  1.075700E-01
  1.056087E-01
  1.035759E-01
  1.014870E-01
  9.933224E-02
  9.714565E-02
  9.491963E-02
  9.268098E-02
  9.043139E-02
  8.819799E-02
  8.597118E-02
  8.381225E-02
  8.169387E-02
  7.964848E-02
  7.772437E-02
  7.589020E-02
  7.418293E-02
  7.266786E-02
  7.130686E-02
  7.013080E-02
  6.918748E-02
  6.859947E-02
  6.869505E-02
  7.003499E-02
  7.361372E-02
  8.092140E-02
  9.433783E-02
  1.110167E-01
  1.156280E-01
  1.248998E-01
 -2.127243E-04
  1.650138E-07
  9.724377E-01
  9.723046E-01
  9.721714E-01
  9.720382E-01
  9.719051E-01
  9.717719E-01
  9.716388E-01
  9.715056E-01
  9.713725E-01
  9.709842E-01
  9.705853E-01
  9.701864E-01
  9.697876E-01
  9.693887E-01
  9.689898E-01
  9.685910E-01
  9.681146E-01
  9.674752E-01
  9.668359E-01
  9.661965E-01
  9.655572E-01
  9.649179E-01
  9.642785E-01
  9.636231E-01
  9.627433E-01