 Title= "ADflow Lift Distribution Data"
Variables = "eta" "CoordinateX" "CoordinateY" "CoordinateZ" "Lift" "Drag" "Moment" "Normalized Lift" "Normalized Drag" "Normalized Moment" "CL" "CD" "CM" "CLp" "CDp" "CMp" "CLv" "CDv" "CMv" "Elliptical" "thickness" "twist" "chord" "fx" "fy" "fz" 
Zone T= "LiftDist_01 allWalls: : z normal"
 I=          150
 DATAPACKING=BLOCK
  0.000000E+00
  6.711405E-03
  1.342281E-02
  2.013422E-02
  2.684563E-02
  3.355704E-02
  4.026845E-02
  4.697986E-02
  5.369127E-02
  6.040268E-02
  6.711409E-02
  7.382550E-02
  8.053691E-02
  8.724832E-02
  9.395973E-02
  1.006711E-01
  1.073825E-01
  1.140940E-01
  1.208054E-01
  1.275168E-01
  1.342282E-01
  1.409396E-01
  1.476510E-01
  1.543624E-01
  1.610738E-01
  1.677852E-01
  1.744966E-01
  1.812081E-01
  1.879195E-01
  1.946309E-01
  2.013423E-01
  2.080537E-01
  2.147651E-01
  2.214765E-01
  2.281879E-01
  2.348993E-01
  2.416107E-01
  2.483221E-01
  2.550336E-01
  2.617450E-01
  2.684564E-01
  2.751678E-01
  2.818792E-01
  2.885906E-01
  2.953020E-01
  3.020134E-01
  3.087248E-01
  3.154362E-01
  3.221476E-01
  3.288591E-01
  3.355705E-01
  3.422819E-01
  3.489933E-01
  3.557047E-01
  3.624161E-01
  3.691275E-01
  3.758389E-01
  3.825503E-01
  3.892617E-01
  3.959732E-01
  4.026846E-01
  4.093960E-01
  4.161074E-01
  4.228188E-01
  4.295302E-01
  4.362416E-01
  4.429530E-01
  4.496644E-01
  4.563758E-01
  4.630872E-01
  4.697987E-01
  4.765101E-01
  4.832215E-01
  4.899329E-01
  4.966443E-01
  5.033557E-01
  5.100671E-01
  5.167785E-01
  5.234899E-01
  5.302013E-01
  5.369128E-01
  5.436242E-01
  5.503356E-01
  5.570470E-01
  5.637584E-01
  5.704698E-01
  5.771812E-01
  5.838926E-01
  5.906040E-01
  5.973154E-01
  6.040268E-01
  6.107383E-01
  6.174497E-01
  6.241611E-01
  6.308725E-01
  6.375839E-01
  6.442953E-01
  6.510067E-01
  6.577181E-01
  6.644295E-01
  6.711409E-01
  6.778524E-01
  6.845638E-01
  6.912752E-01
  6.979866E-01
  7.046980E-01
  7.114094E-01
  7.181208E-01
  7.248322E-01
  7.315436E-01
  7.382550E-01
  7.449664E-01
  7.516779E-01
  7.583893E-01
  7.651007E-01
  7.718121E-01
  7.785235E-01
  7.852349E-01
  7.919463E-01
  7.986577E-01
  8.053691E-01
  8.120805E-01
  8.187919E-01
  8.255034E-01
  8.322148E-01
  8.389262E-01
  8.456376E-01
  8.523490E-01
  8.590604E-01
  8.657718E-01
  8.724832E-01
  8.791946E-01
  8.859060E-01
  8.926175E-01
  8.993289E-01
  9.060403E-01
  9.127517E-01
  9.194631E-01
  9.261745E-01
  9.328859E-01
  9.395973E-01
  9.463087E-01
  9.530201E-01
  9.597315E-01
  9.664430E-01
  9.731544E-01
  9.798658E-01
  9.865772E-01
  9.932886E-01
  1.000000E+00
  0.000000E+00
  0.000000E+00
  0.000000E+00
  0.000000E+00
  0.000000E+00
  0.000000E+00
  0.000000E+00
  0.000000E+00
  0.000000E+00
  0.000000E+00
  0.000000E+00
  0.000000E+00
  0.000000E+00
  0.000000E+00
  0.000000E+00
  0.000000E+00
  0.000000E+00
  0.000000E+00
  0.000000E+00
  0.000000E+00
  0.000000E+00
  0.000000E+00
  0.000000E+00
  0.000000E+00
  0.000000E+00
  0.000000E+00
  0.000000E+00
  0.000000E+00
  0.000000E+00
  0.000000E+00
  0.000000E+00
  0.000000E+00
  0.000000E+00
  0.000000E+00
  0.000000E+00
  0.000000E+00
  0.000000E+00
  0.000000E+00
  0.000000E+00
  0.000000E+00
  0.000000E+00
  0.000000E+00
  0.000000E+00
  0.000000E+00
  0.000000E+00
  0.000000E+00
  0.000000E+00
  0.000000E+00
  0.000000E+00
  0.000000E+00
  0.000000E+00
  0.000000E+00
  0.000000E+00
  0.000000E+00
  0.000000E+00
  0.000000E+00
  0.000000E+00
  0.000000E+00
  0.000000E+00
  0.000000E+00
  0.000000E+00
  0.000000E+00
  0.000000E+00
  0.000000E+00
  0.000000E+00
  0.000000E+00
  0.000000E+00
  0.000000E+00
  0.000000E+00
  0.000000E+00
  0.000000E+00
  0.000000E+00
  0.000000E+00
  0.000000E+00
  0.000000E+00
  0.000000E+00
  0.000000E+00
  0.000000E+00
  0.000000E+00
  0.000000E+00
  0.000000E+00
  0.000000E+00
  0.000000E+00
  0.000000E+00
  0.000000E+00
  0.000000E+00
  0.000000E+00
  0.000000E+00
  0.000000E+00
  0.000000E+00
  0.000000E+00
  0.000000E+00
  0.000000E+00
  0.000000E+00
  0.000000E+00
  0.000000E+00
  0.000000E+00
  0.000000E+00
  0.000000E+00
  0.000000E+00
  0.000000E+00
  0.000000E+00
  0.000000E+00
  0.000000E+00
  0.000000E+00
  0.000000E+00
  0.000000E+00
  0.000000E+00
  0.000000E+00
  0.000000E+00
  0.000000E+00
  0.000000E+00
  0.000000E+00
  0.000000E+00
  0.000000E+00
  0.000000E+00
  0.000000E+00
  0.000000E+00
  0.000000E+00
  0.000000E+00
  0.000000E+00
  0.000000E+00
  0.000000E+00
  0.000000E+00
  0.000000E+00
  0.000000E+00
  0.000000E+00
  0.000000E+00
  0.000000E+00
  0.000000E+00
  0.000000E+00
  0.000000E+00
  0.000000E+00
  0.000000E+00
  0.000000E+00
  0.000000E+00
  0.000000E+00
  0.000000E+00
  0.000000E+00
  0.000000E+00
  0.000000E+00
  0.000000E+00
  0.000000E+00
  0.000000E+00
  0.000000E+00
  0.000000E+00
  0.000000E+00
  0.000000E+00
  0.000000E+00
  0.000000E+00
  0.000000E+00
  0.000000E+00
  0.000000E+00
  0.000000E+00
  0.000000E+00
  0.000000E+00
  0.000000E+00
  0.000000E+00
  0.000000E+00
  0.000000E+00
  0.000000E+00
  0.000000E+00
  0.000000E+00
  0.000000E+00
  0.000000E+00
  0.000000E+00
  0.000000E+00
  0.000000E+00
  0.000000E+00
  0.000000E+00
  0.000000E+00
  0.000000E+00
  0.000000E+00
  0.000000E+00
  0.000000E+00
  0.000000E+00
  0.000000E+00
  0.000000E+00
  0.000000E+00
  0.000000E+00
  0.000000E+00
  0.000000E+00
  0.000000E+00
  0.000000E+00
  0.000000E+00
  0.000000E+00
  0.000000E+00
  0.000000E+00
  0.000000E+00
  0.000000E+00
  0.000000E+00
  0.000000E+00
  0.000000E+00
  0.000000E+00
  0.000000E+00
  0.000000E+00
  0.000000E+00
  0.000000E+00
  0.000000E+00
  0.000000E+00
  0.000000E+00
  0.000000E+00
  0.000000E+00
  0.000000E+00
  0.000000E+00
  0.000000E+00
  0.000000E+00
  0.000000E+00
  0.000000E+00
  0.000000E+00
  0.000000E+00
  0.000000E+00
  0.000000E+00
  0.000000E+00
  0.000000E+00
  0.000000E+00
  0.000000E+00
  0.000000E+00
  0.000000E+00
  0.000000E+00
  0.000000E+00
  0.000000E+00
  0.000000E+00
  0.000000E+00
  0.000000E+00
  0.000000E+00
  0.000000E+00
  0.000000E+00
  0.000000E+00
  0.000000E+00
  0.000000E+00
  0.000000E+00
  0.000000E+00
  0.000000E+00
  0.000000E+00
  0.000000E+00
  0.000000E+00
  0.000000E+00
  0.000000E+00
  0.000000E+00
  0.000000E+00
  0.000000E+00
  0.000000E+00
  0.000000E+00
  0.000000E+00
  0.000000E+00
  0.000000E+00
  0.000000E+00
  0.000000E+00
  0.000000E+00
  0.000000E+00
  0.000000E+00
  0.000000E+00
  0.000000E+00
  0.000000E+00
  0.000000E+00
  0.000000E+00
  0.000000E+00
  0.000000E+00
  0.000000E+00
  0.000000E+00
  0.000000E+00
  0.000000E+00
  0.000000E+00
  0.000000E+00
  0.000000E+00
  0.000000E+00
  0.000000E+00
  0.000000E+00
  0.000000E+00
  0.000000E+00
  0.000000E+00
  0.000000E+00
  0.000000E+00
  0.000000E+00
  0.000000E+00
  0.000000E+00
  0.000000E+00
  0.000000E+00
  0.000000E+00
  0.000000E+00
  0.000000E+00
  0.000000E+00
  0.000000E+00
  0.000000E+00
  0.000000E+00
  0.000000E+00
  0.000000E+00
  0.000000E+00
  0.000000E+00
  0.000000E+00
  0.000000E+00
  0.000000E+00
  0.000000E+00
  0.000000E+00
  0.000000E+00
  0.000000E+00
  0.000000E+00
  0.000000E+00
  0.000000E+00
  1.000000E-08
  1.691809E-02
  3.383618E-02
  5.075427E-02
  6.767237E-02
  8.459046E-02
  1.015085E-01
  1.184266E-01
  1.353447E-01
  1.522628E-01
  1.691809E-01
  1.860990E-01
  2.030171E-01
  2.199352E-01
  2.368533E-01
  2.537714E-01
  2.706895E-01
  2.876076E-01
  3.045256E-01
  3.214437E-01
  3.383618E-01
  3.552799E-01
  3.721980E-01
  3.891161E-01
  4.060342E-01
  4.229523E-01
  4.398704E-01
  4.567885E-01
  4.737066E-01
  4.906247E-01
  5.075427E-01
  5.244608E-01
  5.413789E-01
  5.582970E-01
  5.752151E-01
  5.921332E-01
  6.090513E-01
  6.259694E-01
  6.428875E-01
  6.598056E-01
  6.767237E-01
  6.936418E-01
  7.105598E-01
  7.274779E-01
  7.443960E-01
  7.613141E-01
  7.782322E-01
  7.951503E-01
  8.120684E-01
  8.289865E-01
  8.459046E-01
  8.628227E-01
  8.797408E-01
  8.966589E-01
  9.135769E-01
  9.304950E-01
  9.474131E-01
  9.643312E-01
  9.812493E-01
  9.981674E-01
  1.015085E+00
  1.032004E+00
  1.048922E+00
  1.065840E+00
  1.082758E+00
  1.099676E+00
  1.116594E+00
  1.133512E+00
  1.150430E+00
  1.167348E+00
  1.184266E+00
  1.201185E+00
  1.218103E+00
  1.235021E+00
  1.251939E+00
  1.268857E+00
  1.285775E+00
  1.302693E+00
  1.319611E+00
  1.336529E+00
  1.353447E+00
  1.370365E+00
  1.387284E+00
  1.404202E+00
  1.421120E+00
  1.438038E+00
  1.454956E+00
  1.471874E+00
  1.488792E+00
  1.505710E+00
  1.522628E+00
  1.539546E+00
  1.556464E+00
  1.573383E+00
  1.590301E+00
  1.607219E+00
  1.624137E+00
  1.641055E+00
  1.657973E+00
  1.674891E+00
  1.691809E+00
  1.708727E+00
  1.725645E+00
  1.742563E+00
  1.759482E+00
  1.776400E+00
  1.793318E+00
  1.810236E+00
  1.827154E+00
  1.844072E+00
  1.860990E+00
  1.877908E+00
  1.894826E+00
  1.911744E+00
  1.928662E+00
  1.945581E+00
  1.962499E+00
  1.979417E+00
  1.996335E+00
  2.013253E+00
  2.030171E+00
  2.047089E+00
  2.064007E+00
  2.080925E+00
  2.097843E+00
  2.114761E+00
  2.131680E+00
  2.148598E+00
  2.165516E+00
  2.182434E+00
  2.199352E+00
  2.216270E+00
  2.233188E+00
  2.250106E+00
  2.267024E+00
  2.283942E+00
  2.300860E+00
  2.317779E+00
  2.334697E+00
  2.351615E+00
  2.368533E+00
  2.385451E+00
  2.402369E+00
  2.419287E+00
  2.436205E+00
  2.453123E+00
  2.470041E+00
  2.486959E+00
  2.503878E+00
  2.520796E+00
  1.138639E+04
  1.138462E+04
  1.138286E+04
  1.138109E+04
  1.137933E+04
  1.137756E+04
  1.137580E+04
  1.137403E+04
  1.137227E+04
  1.136718E+04
  1.136196E+04
  1.135673E+04
  1.135151E+04
  1.134628E+04
  1.134105E+04
  1.133583E+04
  1.132960E+04
  1.132125E+04
  1.131290E+04
  1.130456E+04
  1.129621E+04
  1.128787E+04
  1.127952E+04
  1.127096E+04
  1.125942E+04
  1.124787E+04
  1.123632E+04
  1.122478E+04
  1.121323E+04
  1.120169E+04
  1.118953E+04
  1.117448E+04
  1.115942E+04
  1.114437E+04
  1.112932E+04
  1.111426E+04
  1.109921E+04
  1.108176E+04
  1.106287E+04
  1.104398E+04
  1.102509E+04
  1.100620E+04
  1.098731E+04
  1.096671E+04
  1.094359E+04
  1.092047E+04
  1.089734E+04
  1.087422E+04
  1.085110E+04
  1.082557E+04
  1.079759E+04
  1.076961E+04
  1.074163E+04
  1.071364E+04
  1.068566E+04
  1.065265E+04
  1.061895E+04
  1.058525E+04
  1.055155E+04
  1.051786E+04
  1.048051E+04
  1.044013E+04
  1.039975E+04
  1.035937E+04
  1.031899E+04
  1.027488E+04
  1.022672E+04
  1.017856E+04
  1.013041E+04
  1.008225E+04
  1.002821E+04
  9.971202E+03
  9.914207E+03
  9.857221E+03
  9.799406E+03
  9.733389E+03
  9.667393E+03
  9.601419E+03
  9.535466E+03
  9.463809E+03
  9.390263E+03
  9.316756E+03
  9.243288E+03
  9.166397E+03
  9.087442E+03
  9.008536E+03
  8.929679E+03
  8.848459E+03
  8.766256E+03
  8.684103E+03
  8.601998E+03
  8.518919E+03
  8.435857E+03
  8.352836E+03
  8.270115E+03
  8.187763E+03
  8.105440E+03
  8.023223E+03
  7.941992E+03
  7.860777E+03
  7.779579E+03
  7.699460E+03
  7.619494E+03
  7.539539E+03
  7.460790E+03
  7.382265E+03
  7.303750E+03
  7.226196E+03
  7.148687E+03
  7.071254E+03
  6.994059E+03
  6.916874E+03
  6.839523E+03
  6.762078E+03
  6.684514E+03
  6.606268E+03
  6.528031E+03
  6.448718E+03
  6.369158E+03
  6.288572E+03
  6.207239E+03
  6.124934E+03
  6.041484E+03
  5.956961E+03
  5.871106E+03
  5.783853E+03
  5.695384E+03
  5.604961E+03
  5.513771E+03
  5.419832E+03
  5.324883E+03
  5.228120E+03
  5.129094E+03
  5.028567E+03
  4.926053E+03
  4.820873E+03
  4.713833E+03
  4.604940E+03
  4.494490E+03
  4.383690E+03
  4.277494E+03
  4.185364E+03
  4.121468E+03
  4.109415E+03
  4.207857E+03
  4.338800E+03
  4.092926E+03
  4.483534E+03
  9.964893E+02
  6.647671E-03
  6.692345E+02
  6.691768E+02
  6.691191E+02
  6.690615E+02
  6.690038E+02
  6.689461E+02
  6.688884E+02
  6.688307E+02
  6.687731E+02
  6.686602E+02
  6.685452E+02
  6.684301E+02
  6.683150E+02
  6.681999E+02
  6.680848E+02
  6.679697E+02
  6.678602E+02
  6.677625E+02
  6.676647E+02
  6.675670E+02
  6.674693E+02
  6.673716E+02
  6.672739E+02
  6.671735E+02
  6.670364E+02
  6.668992E+02
  6.667620E+02
  6.666248E+02
  6.664877E+02
  6.663505E+02
  6.661858E+02
  6.658900E+02
  6.655943E+02
  6.652986E+02
  6.650028E+02
  6.647071E+02
  6.644113E+02
  6.639487E+02
  6.633860E+02
  6.628233E+02
  6.622606E+02
  6.616979E+02
  6.611352E+02
  6.604144E+02
  6.594606E+02
  6.585069E+02
  6.575531E+02
  6.565992E+02
  6.556454E+02
  6.544272E+02
  6.529386E+02
  6.514500E+02
  6.499614E+02
  6.484727E+02
  6.469839E+02
  6.448994E+02
  6.427335E+02
  6.405675E+02
  6.384015E+02
  6.362354E+02
  6.336493E+02
  6.307144E+02
  6.277794E+02
  6.248445E+02
  6.219096E+02
  6.186087E+02
  6.149103E+02
  6.112125E+02
  6.075155E+02
  6.038192E+02
  5.996589E+02
  5.952675E+02
  5.908790E+02
  5.864933E+02
  5.820633E+02
  5.771773E+02
  5.722987E+02
  5.674276E+02
  5.625638E+02
  5.577099E+02
  5.528696E+02
  5.480429E+02
  5.432297E+02
  5.386772E+02
  5.342927E+02
  5.299258E+02
  5.255765E+02
  5.214750E+02
  5.174906E+02
  5.135247E+02
  5.095772E+02
  5.057307E+02
  5.019029E+02
  4.980917E+02
  4.941870E+02
  4.901543E+02
  4.861345E+02
  4.820764E+02
  4.774040E+02
  4.727401E+02
  4.680848E+02
  4.627531E+02
  4.573351E+02
  4.519223E+02
  4.462084E+02
  4.404423E+02
  4.346787E+02
  4.289938E+02
  4.233120E+02
  4.177098E+02
  4.123755E+02
  4.070399E+02
  4.020343E+02
  3.972236E+02
  3.925094E+02
  3.883287E+02
  3.841447E+02
  3.804946E+02
  3.769680E+02
  3.738231E+02
  3.709553E+02
  3.683876E+02
  3.661737E+02
  3.642418E+02
  3.626606E+02
  3.614054E+02
  3.604343E+02
  3.598970E+02
  3.595301E+02
  3.597772E+02
  3.602607E+02
  3.611685E+02
  3.626409E+02
  3.645099E+02
  3.669197E+02
  3.701474E+02
  3.740796E+02
  3.788979E+02
  3.848777E+02
  3.926237E+02
  4.034835E+02
  4.194528E+02
  4.439228E+02
  4.823842E+02
  5.457440E+02
  6.243479E+02
  6.618361E+02
  7.854166E+02
  3.226101E+02
  2.239609E-03
  1.979729E+03
  1.979472E+03
  1.979215E+03
  1.978958E+03
  1.978701E+03
  1.978444E+03
  1.978187E+03
  1.977930E+03
  1.977674E+03
  1.976992E+03
  1.976292E+03
  1.975593E+03
  1.974893E+03
  1.974194E+03
  1.973495E+03
  1.972795E+03
  1.971987E+03
  1.970950E+03
  1.969914E+03
  1.968877E+03
  1.967841E+03
  1.966804E+03
  1.965768E+03
  1.964703E+03
  1.963237E+03
  1.961771E+03
  1.960305E+03
  1.958839E+03
  1.957374E+03
  1.955908E+03
  1.954335E+03
  1.952254E+03
  1.950173E+03
  1.948092E+03
  1.946011E+03
  1.943930E+03
  1.941849E+03
  1.939256E+03
  1.936356E+03
  1.933456E+03
  1.930556E+03
  1.927656E+03
  1.924756E+03
  1.921426E+03
  1.917464E+03
  1.913502E+03
  1.909539E+03
  1.905577E+03
  1.901615E+03
  1.896981E+03
  1.891659E+03
  1.886337E+03
  1.881015E+03
  1.875693E+03
  1.870371E+03
  1.863388E+03
  1.856178E+03
  1.848969E+03
  1.841759E+03
  1.834549E+03
  1.825792E+03
  1.815749E+03
  1.805706E+03
  1.795663E+03
  1.785621E+03
  1.773644E+03
  1.759564E+03
  1.745486E+03
  1.731409E+03
  1.717333E+03
  1.699713E+03
  1.680315E+03
  1.660921E+03
  1.641533E+03
  1.621567E+03
  1.595914E+03
  1.570272E+03
  1.544642E+03
  1.519024E+03
  1.489195E+03
  1.457965E+03
  1.426759E+03
  1.395575E+03
  1.362332E+03
  1.327874E+03
  1.293421E+03
  1.258999E+03
  1.224030E+03
  1.188847E+03
  1.153697E+03
  1.118578E+03
  1.084819E+03
  1.051121E+03
  1.017452E+03
  9.852599E+02
  9.549579E+02
  9.246772E+02
  8.947647E+02
  8.691268E+02
  8.435022E+02
  8.178906E+02
  7.964535E+02
  7.755812E+02
  7.547164E+02
  7.373041E+02
  7.205131E+02
  7.037265E+02
  6.901022E+02
  6.765917E+02
  6.636626E+02
  6.526944E+02
  6.417279E+02
  6.319352E+02
  6.228411E+02
  6.139481E+02
  6.061382E+02
  5.983291E+02
  5.911319E+02
  5.841024E+02
  5.773250E+02
  5.707312E+02
  5.642769E+02
  5.579862E+02
  5.518179E+02
  5.458009E+02
  5.399409E+02
  5.342174E+02
  5.287760E+02
  5.234450E+02
  5.186707E+02
  5.141707E+02
  5.101653E+02
  5.069523E+02
  5.043204E+02
  5.025289E+02
  5.021279E+02
  5.029967E+02
  5.055562E+02
  5.105047E+02
  5.195038E+02
  5.365179E+02
  5.677454E+02
  6.237341E+02
  7.200497E+02
  8.828650E+02
  1.084773E+03
  1.170114E+03
  1.336010E+03
 -8.894989E+00
  2.082696E-08
  1.288544E+00
  1.288345E+00
  1.288145E+00
  1.287945E+00
  1.287746E+00
  1.287546E+00
  1.287346E+00
  1.287147E+00
  1.286947E+00
  1.286371E+00
  1.285780E+00
  1.285188E+00
  1.284597E+00
  1.284006E+00
  1.283414E+00
  1.282823E+00
  1.282118E+00
  1.281173E+00
  1.280229E+00
  1.279284E+00
  1.278340E+00
  1.277395E+00
  1.276451E+00
  1.275482E+00
  1.274176E+00
  1.272869E+00
  1.271562E+00
  1.270256E+00
  1.268949E+00
  1.267643E+00
  1.266267E+00
  1.264564E+00
  1.262860E+00
  1.261156E+00
  1.259453E+00
  1.257749E+00
  1.256046E+00
  1.254071E+00
  1.251933E+00
  1.249796E+00
  1.247658E+00
  1.245520E+00
  1.243383E+00
  1.241052E+00
  1.238435E+00
  1.235818E+00
  1.233202E+00
  1.230585E+00
  1.227968E+00
  1.225080E+00
  1.221913E+00
  1.218747E+00
  1.215580E+00
  1.212413E+00
  1.209247E+00
  1.205511E+00
  1.201697E+00
  1.197884E+00
  1.194070E+00
  1.190257E+00
  1.186030E+00
  1.181461E+00
  1.176891E+00
  1.172321E+00
  1.167752E+00
  1.162760E+00
  1.157310E+00
  1.151860E+00
  1.146411E+00
  1.140962E+00
  1.134845E+00
  1.128394E+00
  1.121945E+00
  1.115496E+00
  1.108953E+00
  1.101482E+00
  1.094014E+00
  1.086548E+00
  1.079084E+00
  1.070975E+00
  1.062652E+00
  1.054334E+00
  1.046020E+00
  1.037318E+00
  1.028383E+00
  1.019454E+00
  1.010530E+00
  1.001339E+00
  9.920364E-01
  9.827395E-01
  9.734480E-01
  9.640464E-01
  9.546467E-01
  9.452515E-01
  9.358905E-01
  9.265711E-01
  9.172549E-01
  9.079508E-01
  8.987583E-01
  8.895676E-01
  8.803787E-01
  8.713120E-01
  8.622627E-01
  8.532145E-01
  8.443028E-01
  8.354165E-01
  8.265314E-01
  8.177550E-01
  8.089836E-01
  8.002209E-01
  7.914851E-01
  7.827505E-01
  7.739970E-01
  7.652328E-01
  7.564554E-01
  7.476006E-01
  7.387469E-01
  7.297714E-01
  7.207679E-01
  7.116484E-01
  7.024443E-01
  6.931303E-01
  6.836866E-01
  6.741215E-01
  6.644057E-01
  6.545317E-01
  6.445201E-01
  6.342873E-01
  6.239678E-01
  6.133372E-01
  6.025922E-01
  5.916420E-01
  5.804357E-01
  5.690595E-01
  5.574585E-01
  5.455558E-01
  5.334425E-01
  5.211196E-01
  5.086205E-01
  4.960818E-01
  4.840641E-01
  4.736382E-01
  4.664073E-01
  4.650434E-01
  4.761836E-01
  4.910018E-01
  4.631774E-01
  5.073806E-01
  1.127681E-01
  7.522860E-07
  1.215941E+00
  1.215836E+00
  1.215731E+00
  1.215626E+00
  1.215521E+00
  1.215417E+00
  1.215312E+00
  1.215207E+00
  1.215102E+00
  1.214897E+00
  1.214688E+00
  1.214479E+00
  1.214270E+00
  1.214061E+00
  1.213852E+00
  1.213643E+00
  1.213444E+00
  1.213266E+00
  1.213089E+00
  1.212911E+00
  1.212733E+00
  1.212556E+00
  1.212378E+00
  1.212196E+00
  1.211947E+00
  1.211698E+00
  1.211448E+00
  1.211199E+00
  1.210950E+00
  1.210701E+00
  1.210401E+00
  1.209864E+00
  1.209327E+00
  1.208789E+00
  1.208252E+00
  1.207715E+00
  1.207177E+00
  1.206337E+00
  1.205314E+00
  1.204292E+00
  1.203270E+00
  1.202247E+00
  1.201225E+00
  1.199915E+00
  1.198182E+00
  1.196449E+00
  1.194716E+00
  1.192983E+00
  1.191250E+00
  1.189037E+00
  1.186332E+00
  1.183628E+00
  1.180923E+00
  1.178218E+00
  1.175513E+00
  1.171726E+00
  1.167791E+00
  1.163855E+00
  1.159920E+00
  1.155984E+00
  1.151285E+00
  1.145953E+00
  1.140620E+00
  1.135288E+00
  1.129955E+00
  1.123958E+00
  1.117238E+00
  1.110520E+00
  1.103803E+00
  1.097087E+00
  1.089528E+00
  1.081549E+00
  1.073575E+00
  1.065607E+00
  1.057558E+00
  1.048681E+00
  1.039817E+00
  1.030966E+00
  1.022129E+00
  1.013310E+00
  1.004516E+00
  9.957461E-01
  9.870008E-01
  9.787294E-01
  9.707631E-01
  9.628289E-01
  9.549265E-01
  9.474745E-01
  9.402351E-01
  9.330295E-01
  9.258573E-01
  9.188685E-01
  9.119138E-01
  9.049891E-01
  8.978945E-01
  8.905676E-01
  8.832639E-01
  8.758907E-01
  8.674013E-01
  8.589274E-01
  8.504692E-01
  8.407820E-01
  8.309380E-01
  8.211033E-01
  8.107216E-01
  8.002452E-01
  7.897732E-01
  7.794443E-01
  7.691209E-01
  7.589423E-01
  7.492503E-01
  7.395560E-01
  7.304612E-01
  7.217205E-01
  7.131553E-01
  7.055593E-01
  6.979573E-01
  6.913254E-01
  6.849180E-01
  6.792039E-01
  6.739933E-01
  6.693281E-01
  6.653055E-01
  6.617956E-01
  6.589227E-01
  6.566421E-01
  6.548776E-01
  6.539014E-01
  6.532349E-01
  6.536838E-01
  6.545622E-01
  6.562115E-01
  6.588869E-01
  6.622827E-01
  6.666610E-01
  6.725254E-01
  6.796700E-01
  6.884243E-01
  6.992891E-01
  7.133630E-01
  7.330942E-01
  7.621091E-01
  8.065689E-01
  8.764499E-01
  9.915691E-01
  1.134386E+00
  1.202498E+00
  1.427033E+00
  5.861543E-01
  4.069173E-06
  1.453900E+00
  1.453712E+00
  1.453523E+00
  1.453334E+00
  1.453145E+00
  1.452957E+00
  1.452768E+00
  1.452579E+00
  1.452391E+00
  1.451890E+00
  1.451376E+00
  1.450863E+00
  1.450349E+00
  1.449835E+00
  1.449322E+00
  1.448808E+00
  1.448214E+00
  1.447453E+00
  1.446692E+00
  1.445931E+00
  1.445170E+00
  1.444408E+00
  1.443647E+00
  1.442865E+00
  1.441788E+00
  1.440712E+00
  1.439635E+00
  1.438559E+00
  1.437482E+00
  1.436406E+00
  1.435251E+00
  1.433723E+00
  1.432194E+00
  1.430666E+00
  1.429138E+00
  1.427610E+00
  1.426081E+00
  1.424177E+00
  1.422047E+00
  1.419917E+00
  1.417788E+00
  1.415658E+00
  1.413528E+00
  1.411083E+00
  1.408173E+00
  1.405263E+00
  1.402353E+00
  1.399444E+00
  1.396534E+00
  1.393130E+00
  1.389222E+00
  1.385314E+00
  1.381405E+00
  1.377497E+00
  1.373589E+00
  1.368460E+00
  1.363165E+00
  1.357871E+00
  1.352576E+00
  1.347281E+00
  1.340850E+00
  1.333474E+00
  1.326099E+00
  1.318724E+00
  1.311348E+00
  1.302552E+00
  1.292212E+00
  1.281873E+00
  1.271535E+00
  1.261198E+00
  1.248258E+00
  1.234012E+00
  1.219770E+00
  1.205531E+00
  1.190869E+00
  1.172029E+00
  1.153197E+00
  1.134375E+00
  1.115562E+00
  1.093655E+00
  1.070720E+00
  1.047802E+00
  1.024901E+00
  1.000488E+00
  9.751823E-01
  9.498803E-01
  9.246004E-01
  8.989196E-01
  8.730818E-01
  8.472678E-01
  8.214768E-01
  7.966838E-01
  7.719367E-01
  7.472102E-01
  7.235685E-01
  7.013149E-01
  6.790769E-01
  6.571094E-01
  6.382811E-01
  6.194625E-01
  6.006535E-01
  5.849103E-01
  5.695818E-01
  5.542589E-01
  5.414714E-01
  5.291401E-01
  5.168122E-01
  5.068066E-01
  4.968846E-01
  4.873895E-01
  4.793345E-01
  4.712808E-01
  4.640891E-01
  4.574105E-01
  4.508795E-01
  4.451440E-01
  4.394090E-01
  4.341234E-01
  4.289610E-01
  4.239838E-01
  4.191413E-01
  4.144013E-01
  4.097815E-01
  4.052515E-01
  4.008326E-01
  3.965291E-01
  3.923258E-01
  3.883297E-01
  3.844147E-01
  3.809084E-01
  3.776036E-01
  3.746621E-01
  3.723025E-01
  3.703696E-01
  3.690540E-01
  3.687595E-01
  3.693975E-01
  3.712772E-01
  3.749114E-01
  3.815202E-01
  3.940152E-01
  4.169486E-01
  4.580663E-01
  5.287998E-01
  6.483704E-01
  7.966500E-01
  8.593242E-01
  9.811568E-01
 -6.532422E-03
  1.529519E-11
  1.008272E+00
  1.008115E+00
  1.007959E+00
  1.007803E+00
  1.007647E+00
  1.007490E+00
  1.007334E+00
  1.007178E+00
  1.007021E+00
  1.006571E+00
  1.006108E+00
  1.005645E+00
  1.005183E+00
  1.004720E+00
  1.004257E+00
  1.003795E+00
  1.003243E+00
  1.002504E+00
  1.001765E+00
  1.001026E+00
  1.000287E+00
  9.995476E-01
  9.988086E-01
  9.980506E-01
  9.970282E-01
  9.960058E-01
  9.949834E-01
  9.939610E-01
  9.929386E-01
  9.919162E-01
  9.908398E-01
  9.895068E-01
  9.881738E-01
  9.868407E-01
  9.855077E-01
  9.841747E-01
  9.828417E-01
  9.812963E-01
  9.796237E-01
  9.779510E-01
  9.762784E-01
  9.746058E-01
  9.729332E-01
  9.711090E-01
  9.690615E-01
  9.670140E-01
  9.649665E-01
  9.629190E-01
  9.608715E-01
  9.586113E-01
  9.561334E-01
  9.536556E-01
  9.511777E-01
  9.486999E-01
  9.462220E-01
  9.432988E-01
  9.403148E-01
  9.373308E-01
  9.343468E-01
  9.313628E-01
  9.280556E-01
  9.244800E-01
  9.209044E-01
  9.173288E-01
  9.137534E-01
  9.098477E-01
  9.055831E-01
  9.013188E-01
  8.970548E-01
  8.927911E-01
  8.880054E-01
  8.829580E-01
  8.779114E-01
  8.728656E-01
  8.677463E-01
  8.619009E-01
  8.560573E-01
  8.502157E-01
  8.443758E-01
  8.380309E-01
  8.315187E-01
  8.250099E-01
  8.185044E-01
  8.116957E-01
  8.047042E-01
  7.977169E-01
  7.907338E-01
  7.835414E-01
  7.762619E-01
  7.689867E-01
  7.617158E-01
  7.543586E-01
  7.470029E-01
  7.396508E-01
  7.323254E-01
  7.250327E-01
  7.177425E-01
  7.104618E-01
  7.032687E-01
  6.960771E-01
  6.888869E-01
  6.817925E-01
  6.747117E-01
  6.676319E-01
  6.606589E-01
  6.537059E-01
  6.467537E-01
  6.398866E-01
  6.330234E-01
  6.261670E-01
  6.193316E-01
  6.124971E-01
  6.056478E-01
  5.987900E-01
  5.919219E-01
  5.849931E-01
  5.780652E-01
  5.710420E-01
  5.639968E-01
  5.568607E-01
  5.496585E-01
  5.423703E-01
  5.349807E-01
  5.274960E-01
  5.198934E-01
  5.121670E-01
  5.043330E-01
  4.963260E-01
  4.882511E-01
  4.799327E-01
  4.715249E-01
  4.629565E-01
  4.541876E-01
  4.452858E-01
  4.362080E-01
  4.268941E-01
  4.174153E-01
  4.077724E-01
  3.979916E-01
  3.881797E-01
  3.787755E-01
  3.706167E-01
  3.649579E-01
  3.638897E-01
  3.726058E-01
  3.841995E-01
  3.624262E-01
  3.970126E-01
  1.079979E-01
  4.830134E-02
  5.926113E-02
  5.925602E-02
  5.925091E-02
  5.924580E-02
  5.924070E-02
  5.923559E-02
  5.923048E-02
  5.922537E-02
  5.922027E-02
  5.921028E-02
  5.920008E-02
  5.918989E-02
  5.917970E-02
  5.916951E-02
  5.915932E-02
  5.914912E-02
  5.913943E-02
  5.913078E-02
  5.912212E-02
  5.911347E-02
  5.910482E-02
  5.909616E-02
  5.908751E-02
  5.907863E-02
  5.906648E-02
  5.905433E-02
  5.904219E-02
  5.903004E-02
  5.901789E-02
  5.900574E-02
  5.899116E-02
  5.896497E-02
  5.893878E-02
  5.891260E-02
  5.888641E-02
  5.886022E-02
  5.883403E-02
  5.879306E-02
  5.874324E-02
  5.869341E-02
  5.864359E-02
  5.859376E-02
  5.854393E-02
  5.848010E-02
  5.839565E-02
  5.831119E-02
  5.822673E-02
  5.814227E-02
  5.805781E-02
  5.794994E-02
  5.781812E-02
  5.768630E-02
  5.755448E-02
  5.742266E-02
  5.729083E-02
  5.710624E-02
  5.691445E-02
  5.672266E-02
  5.653085E-02
  5.633905E-02
  5.611005E-02
  5.585016E-02
  5.559028E-02
  5.533039E-02
  5.507051E-02
  5.477821E-02
  5.445073E-02
  5.412331E-02
  5.379594E-02
  5.346864E-02
  5.310026E-02
  5.271142E-02
  5.232283E-02
  5.193449E-02
  5.154224E-02
  5.110960E-02
  5.067762E-02
  5.024630E-02
  4.981564E-02
  4.938584E-02
  4.895725E-02
  4.852985E-02
  4.810365E-02
  4.770053E-02
  4.731228E-02
  4.692558E-02
  4.654043E-02
  4.617722E-02
  4.582438E-02
  4.547317E-02
  4.512359E-02
  4.478295E-02
  4.444397E-02
  4.410645E-02
  4.376065E-02
  4.340354E-02
  4.304756E-02
  4.268819E-02
  4.227444E-02
  4.186145E-02
  4.144922E-02
  4.097711E-02
  4.049736E-02
  4.001806E-02
  3.951211E-02
  3.900154E-02
  3.849119E-02
  3.798781E-02
  3.748470E-02
  3.698865E-02
  3.651630E-02
  3.604385E-02
  3.560061E-02
  3.517462E-02
  3.475719E-02
  3.438698E-02
  3.401649E-02
  3.369326E-02
  3.338098E-02
  3.310249E-02
  3.284854E-02
  3.262117E-02
  3.242512E-02
  3.225405E-02
  3.211403E-02
  3.200288E-02
  3.191689E-02
  3.186931E-02
  3.183683E-02
  3.185871E-02
  3.190153E-02
  3.198191E-02
  3.211230E-02
  3.227780E-02
  3.249118E-02
  3.277699E-02
  3.312518E-02
  3.355182E-02
  3.408131E-02
  3.476719E-02
  3.572878E-02
  3.714281E-02
  3.930957E-02
  4.271524E-02
  4.832563E-02
  5.528583E-02
  5.860519E-02
  6.954788E-02
  3.496397E-02
  1.627278E-02
  1.753062E-01
  1.752835E-01
  1.752607E-01
  1.752380E-01
  1.752152E-01
  1.751925E-01
  1.751697E-01
  1.751470E-01
  1.751242E-01
  1.750638E-01
  1.750019E-01
  1.749400E-01
  1.748780E-01
  1.748161E-01
  1.747542E-01
  1.746922E-01
  1.746207E-01
  1.745289E-01
  1.744371E-01
  1.743453E-01
  1.742535E-01
  1.741617E-01
  1.740700E-01
  1.739756E-01
  1.738458E-01
  1.737160E-01
  1.735862E-01
  1.734564E-01
  1.733266E-01
  1.731968E-01
  1.730576E-01
  1.728733E-01
  1.726890E-01
  1.725047E-01
  1.723205E-01
  1.721362E-01
  1.719519E-01
  1.717223E-01
  1.714655E-01
  1.712087E-01
  1.709519E-01
  1.706951E-01
  1.704383E-01
  1.701435E-01
  1.697926E-01
  1.694418E-01
  1.690909E-01
  1.687400E-01
  1.683892E-01
  1.679788E-01
  1.675076E-01
  1.670363E-01
  1.665651E-01
  1.660938E-01
  1.656225E-01
  1.650042E-01
  1.643658E-01
  1.637273E-01
  1.630889E-01
  1.624505E-01
  1.616750E-01
  1.607857E-01
  1.598964E-01
  1.590072E-01
  1.581179E-01
  1.570573E-01
  1.558106E-01
  1.545640E-01
  1.533175E-01
  1.520711E-01
  1.505109E-01
  1.487932E-01
  1.470760E-01
  1.453592E-01
  1.435913E-01
  1.413197E-01
  1.390491E-01
  1.367797E-01
  1.345112E-01
  1.318698E-01
  1.291045E-01
  1.263412E-01
  1.235799E-01
  1.206362E-01
  1.175849E-01
  1.145341E-01
  1.114858E-01
  1.083893E-01
  1.052738E-01
  1.021611E-01
  9.905127E-02
  9.606176E-02
  9.307776E-02
  9.009626E-02
  8.724556E-02
  8.456225E-02
  8.188083E-02
  7.923202E-02
  7.696176E-02
  7.469268E-02
  7.242475E-02
  7.052651E-02
  6.867828E-02
  6.683071E-02
  6.528887E-02
  6.380205E-02
  6.231562E-02
  6.110921E-02
  5.991288E-02
  5.876802E-02
  5.779680E-02
  5.682574E-02
  5.595860E-02
  5.515332E-02
  5.436584E-02
  5.367428E-02
  5.298278E-02
  5.234546E-02
  5.172299E-02
  5.112284E-02
  5.053894E-02
  4.996740E-02
  4.941035E-02
  4.886413E-02
  4.833132E-02
  4.781241E-02
  4.730559E-02
  4.682375E-02
  4.635169E-02
  4.592892E-02
  4.553044E-02
  4.517576E-02
  4.489125E-02
  4.465819E-02
  4.449954E-02
  4.446402E-02
  4.454093E-02
  4.476755E-02
  4.520571E-02
  4.600253E-02
  4.750908E-02
  5.027422E-02
  5.523194E-02
  6.376058E-02
  7.817770E-02
  9.605632E-02
  1.036129E-01
  1.183024E-01
 -9.640248E-04
  1.513267E-07
  1.008520E+00
  1.008364E+00
  1.008208E+00
  1.008051E+00
  1.007895E+00
  1.007739E+00
  1.007583E+00
  1.007426E+00
  1.007270E+00
  1.006820E+00
  1.006357E+00
  1.005894E+00
  1.005431E+00
  1.004969E+00
  1.004506E+00
  1.004043E+00
  1.003491E+00
  1.002753E+00
  1.002014E+00
  1.001275E+00
  1.000536E+00
  9.997967E-01
  9.990577E-01
  9.982998E-01
  9.972776E-01