 Title = "ADflow Slice Data"
Variables =  "CoordinateX"  "CoordinateY"  "CoordinateZ"  "XoC"  "YoC"  "ZoC" "VelocityX" "VelocityY" "VelocityZ" "CoefPressure" "Mach" 
Zone T= "Slice_0001 None Relative Regular z = 0.10000000"
 Nodes =          116  Elements=          112  ZONETYPE=FELINESEG
 DATAPACKING=POINT
  9.900000E-01  1.238568E-02  1.000000E-01  9.999930E-01  3.739640E-03  5.609704E-17  3.357200E-02 -2.621964E-02 -2.660662E-04 -6.735132E-03  0.000000E+00
  9.844789E-01  1.403467E-02  1.000000E-01  9.944136E-01  5.406036E-03 -1.402426E-17  2.236229E-02 -6.783254E-03 -2.367832E-04  3.731145E-02  0.000000E+00
  9.782622E-01  1.589664E-02  1.000000E-01  9.881313E-01  7.287663E-03  2.804852E-17  1.208052E-02 -3.575994E-03 -1.881681E-04  6.322209E-03  0.000000E+00
  9.712761E-01  1.800889E-02  1.000000E-01  9.810715E-01  9.422200E-03  0.000000E+00  8.016194E-03 -2.409852E-03 -1.518276E-04 -1.158931E-02  0.000000E+00
  9.634271E-01  2.033937E-02  1.000000E-01  9.731397E-01  1.177728E-02  9.816981E-17  7.594247E-03 -2.218222E-03 -1.348063E-04 -3.695009E-02  0.000000E+00
  9.546204E-01  2.287449E-02  1.000000E-01  9.642400E-01  1.433916E-02  4.207278E-17  8.863031E-03 -2.492468E-03 -1.310926E-04 -6.647161E-02  0.000000E+00
  9.447561E-01  2.559577E-02  1.000000E-01  9.542716E-01  1.708916E-02  5.609704E-17  1.077012E-02 -2.903031E-03 -1.337003E-04 -9.766253E-02  0.000000E+00
  9.337360E-01  2.850679E-02  1.000000E-01  9.431352E-01  2.003090E-02  4.207278E-17  1.286101E-02 -3.314526E-03 -1.385114E-04 -1.309405E-01  0.000000E+00
  9.214586E-01  3.160181E-02  1.000000E-01  9.307282E-01  2.315859E-02  5.609704E-17  1.499246E-02 -3.684360E-03 -1.436775E-04 -1.657531E-01  0.000000E+00
  9.078232E-01  3.487404E-02  1.000000E-01  9.169489E-01  2.646536E-02  4.207278E-17  1.709348E-02 -3.994405E-03 -1.480997E-04 -2.019532E-01  0.000000E+00
  8.927319E-01  3.831309E-02  1.000000E-01  9.016983E-01  2.994070E-02  5.609704E-17  1.907839E-02 -4.214418E-03 -1.509346E-04 -2.371478E-01  0.000000E+00
  8.760894E-01  4.188081E-02  1.000000E-01  8.848801E-01  3.354607E-02  5.609704E-17  2.084413E-02 -4.333356E-03 -1.516847E-04 -2.694225E-01  0.000000E+00
  8.578153E-01  4.556651E-02  1.000000E-01  8.664132E-01  3.727068E-02  5.188976E-16  2.232732E-02 -4.371434E-03 -1.502863E-04 -2.978908E-01  0.000000E+00
  8.378441E-01  4.936213E-02  1.000000E-01  8.462312E-01  4.110635E-02  5.188976E-16  2.354349E-02 -4.365469E-03 -1.469827E-04 -3.232064E-01  0.000000E+00
  8.161333E-01  5.328572E-02  1.000000E-01  8.242913E-01  4.507136E-02  2.804852E-17  2.459176E-02 -4.367876E-03 -1.420261E-04 -3.510103E-01  0.000000E+00
  7.926668E-01  5.737476E-02  1.000000E-01  8.005771E-01  4.920356E-02  5.609704E-17  2.566108E-02 -4.395978E-03 -1.356794E-04 -3.862472E-01  0.000000E+00
  7.674503E-01  6.161393E-02  1.000000E-01  7.750944E-01  5.348747E-02  8.414556E-17  2.692985E-02 -4.405873E-03 -1.282287E-04 -4.273277E-01  0.000000E+00
  7.405094E-01  6.589666E-02  1.000000E-01  7.478692E-01  5.781540E-02  4.908491E-16  2.841793E-02 -4.344478E-03 -1.199263E-04 -4.687695E-01  0.000000E+00
  7.119026E-01  7.009494E-02  1.000000E-01  7.189604E-01  6.205799E-02  4.207278E-17  2.997864E-02 -4.195456E-03 -1.111374E-04 -5.060423E-01  0.000000E+00
  6.817298E-01  7.411133E-02  1.000000E-01  6.884692E-01  6.611677E-02  2.804852E-17  3.142897E-02 -3.980161E-03 -1.025359E-04 -5.385952E-01  0.000000E+00
  6.501347E-01  7.790271E-02  1.000000E-01  6.565407E-01  6.994817E-02  8.414556E-17  3.267788E-02 -3.746817E-03 -9.496559E-05 -5.714057E-01  0.000000E+00
  6.173024E-01  8.148240E-02  1.000000E-01  6.233618E-01  7.356564E-02  5.609704E-17  3.380699E-02 -3.511260E-03 -8.916496E-05 -6.085504E-01  0.000000E+00
  5.834550E-01  8.481501E-02  1.000000E-01  5.891571E-01  7.693343E-02  9.816981E-17  3.499480E-02 -3.237132E-03 -8.550251E-05 -6.489230E-01  0.000000E+00
  5.488457E-01  8.780477E-02  1.000000E-01  5.541826E-01  7.995474E-02  8.414556E-17  3.634459E-02 -2.906552E-03 -8.378536E-05 -6.918476E-01  0.000000E+00
  5.137559E-01  9.038186E-02  1.000000E-01  5.187225E-01  8.255903E-02  1.402426E-16  3.787549E-02 -2.516847E-03 -8.344238E-05 -7.373945E-01  0.000000E+00
  4.784836E-01  9.247771E-02  1.000000E-01  4.830778E-01  8.467699E-02  8.414556E-17  3.958026E-02 -2.049497E-03 -8.380683E-05 -7.841664E-01  0.000000E+00
  4.433339E-01  9.403008E-02  1.000000E-01  4.475571E-01  8.624575E-02  8.414556E-17  4.143498E-02 -1.486878E-03 -8.423603E-05 -8.312283E-01  0.000000E+00
  4.086096E-01  9.498994E-02  1.000000E-01  4.124664E-01  8.721574E-02 -1.402426E-17  4.341666E-02 -8.255831E-04 -8.417892E-05 -8.799572E-01  0.000000E+00
  3.746012E-01  9.534345E-02  1.000000E-01  3.780991E-01  8.757298E-02  9.816981E-17  4.554419E-02 -5.507175E-05 -8.328229E-05 -9.323572E-01  0.000000E+00
  3.415766E-01  9.508065E-02  1.000000E-01  3.447259E-01  8.730741E-02  5.609704E-17  4.789142E-02  8.779121E-04 -8.148262E-05 -9.869827E-01  0.000000E+00
  3.097730E-01  9.417015E-02  1.000000E-01  3.125866E-01  8.638730E-02  4.207278E-17  5.049097E-02  2.035385E-03 -7.887371E-05 -1.040145E+00  0.000000E+00
  2.793901E-01  9.259371E-02  1.000000E-01  2.818831E-01  8.479422E-02  8.414556E-17  5.326501E-02  3.447737E-03 -7.554223E-05 -1.088756E+00  0.000000E+00
  2.505887E-01  9.036162E-02  1.000000E-01  2.527777E-01  8.253858E-02  4.768248E-16  5.604964E-02  5.107449E-03 -7.153098E-05 -1.130591E+00  0.000000E+00
  2.234888E-01  8.752336E-02  1.000000E-01  2.253918E-01  7.967036E-02  5.609704E-17  5.870334E-02  7.031891E-03 -6.697813E-05 -1.160195E+00  0.000000E+00
  1.981749E-01  8.410913E-02  1.000000E-01  1.998107E-01  7.622009E-02  4.207278E-17  6.104650E-02  9.193399E-03 -6.204525E-05 -1.172199E+00  0.000000E+00
  1.746916E-01  8.019900E-02  1.000000E-01  1.760795E-01  7.226869E-02  4.768248E-16  6.287084E-02  1.150060E-02 -5.687680E-05 -1.164166E+00  0.000000E+00
  1.530489E-01  7.587650E-02  1.000000E-01  1.542084E-01  6.790057E-02  5.329218E-16  6.402301E-02  1.382154E-02 -5.161784E-05 -1.137648E+00  0.000000E+00
  1.332206E-01  7.126328E-02  1.000000E-01  1.341708E-01  6.323866E-02  9.816981E-17  6.448069E-02  1.605584E-02 -4.640460E-05 -1.096931E+00  0.000000E+00
  1.151568E-01  6.645591E-02  1.000000E-01  1.159164E-01  5.838056E-02  4.207278E-17  6.433766E-02  1.816095E-02 -4.134051E-05 -1.047312E+00  0.000000E+00
  9.878428E-02  6.155387E-02  1.000000E-01  9.937107E-02  5.342678E-02  5.609704E-17  6.369953E-02  2.011493E-02 -3.643690E-05 -9.939014E-01  0.000000E+00
  8.401632E-02  5.663370E-02  1.000000E-01  8.444724E-02  4.845468E-02  5.609704E-17  6.269576E-02  2.204904E-02 -3.177076E-05 -9.319237E-01  0.000000E+00
  7.076936E-02  5.171474E-02  1.000000E-01  7.106046E-02  4.348380E-02  2.804852E-17  6.121939E-02  2.389329E-02 -2.734418E-05 -8.575638E-01  0.000000E+00
  5.893902E-02  4.685798E-02  1.000000E-01  5.910526E-02  3.857578E-02  9.816981E-17  5.906581E-02  2.546051E-02 -2.315828E-05 -7.674088E-01  0.000000E+00
  4.842597E-02  4.209479E-02  1.000000E-01  4.848125E-02  3.376232E-02 -1.402426E-17  5.609531E-02  2.651855E-02 -1.925258E-05 -6.623626E-01  0.000000E+00
  3.911374E-02  3.749219E-02  1.000000E-01  3.907074E-02  2.911114E-02  2.804852E-17  5.226689E-02  2.681590E-02 -1.559799E-05 -5.559579E-01  0.000000E+00
  3.088812E-02  3.309742E-02  1.000000E-01  3.075831E-02  2.466999E-02  2.804852E-17  4.770727E-02  2.629627E-02 -1.212250E-05 -4.674239E-01  0.000000E+00
  2.363417E-02  2.895514E-02  1.000000E-01  2.342779E-02  2.048399E-02  1.262183E-16  4.261351E-02  2.521822E-02 -8.846429E-06 -3.916466E-01  0.000000E+00
  1.726952E-02  2.504508E-02  1.000000E-01  1.699596E-02  1.653266E-02  4.207278E-17  3.692981E-02  2.409451E-02 -6.094923E-06 -2.700463E-01  0.000000E+00
  1.179184E-02  2.122097E-02  1.000000E-01  1.146047E-02  1.266819E-02  2.804852E-17  3.009222E-02  2.156910E-02 -3.883619E-06 -1.493568E-01  0.000000E+00
  7.008801E-03  1.767706E-02  1.000000E-01  6.626950E-03  9.086875E-03  1.121941E-16  2.203457E-02  1.779791E-02 -1.998518E-06 -5.911100E-02  0.000000E+00
  9.900000E-01  1.196258E-02  1.000000E-01  9.999930E-01  3.312077E-03  5.609704E-17  6.490945E-02  6.842052E-03  1.736748E-04  3.212302E-02  0.000000E+00
  9.900000E-01  1.200029E-02  1.000000E-01  9.999930E-01  3.350188E-03  8.414556E-17  4.344341E-02 -3.236290E-03  4.017386E-05 -1.406420E-01  0.000000E+00
  9.900000E-01  1.205738E-02  1.000000E-01  9.999930E-01  3.407882E-03  5.609704E-17  3.499832E-03 -5.248337E-02 -1.387677E-04 -9.185945E-02  0.000000E+00
  9.900000E-01  1.213264E-02  1.000000E-01  9.999930E-01  3.483933E-03  5.609704E-17 -1.263394E-02 -4.449142E-02 -2.455252E-04 -3.884900E-02  0.000000E+00
  9.900000E-01  1.221561E-02  1.000000E-01  9.999930E-01  3.567784E-03  8.414556E-17 -7.958432E-03 -3.692675E-03 -2.446658E-04 -5.200607E-02  0.000000E+00
  9.900000E-01  1.229087E-02  1.000000E-01  9.999930E-01  3.643835E-03  8.414556E-17  6.297052E-03 -1.143919E-03 -2.041971E-04 -8.262759E-02  0.000000E+00
  9.900000E-01  1.234796E-02  1.000000E-01  9.999930E-01  3.701529E-03  5.609704E-17  2.684888E-02 -2.856388E-02 -2.306065E-04 -9.846506E-02  0.000000E+00
  9.900000E-01  1.238568E-02  1.000000E-01  9.999930E-01  3.739640E-03  8.414556E-17  3.357200E-02 -2.621964E-02 -2.660662E-04 -6.735132E-03  0.000000E+00
  7.008801E-03  5.708294E-03  1.000000E-01  6.626950E-03 -3.008217E-03  9.816981E-17  2.297381E-02 -5.317356E-03  2.403671E-05  5.144322E-01  0.000000E+00
  1.236474E-02  4.567931E-03  1.000000E-01  1.203942E-02 -4.160615E-03  0.000000E+00  2.488465E-02 -3.971551E-03  2.730074E-05  5.266980E-01  0.000000E+00
  1.851796E-02  3.854423E-03  1.000000E-01  1.825758E-02 -4.881654E-03  1.262183E-16  2.712466E-02 -2.543056E-03  2.985232E-05  4.028880E-01  0.000000E+00
  2.549652E-02  3.365238E-03  1.000000E-01  2.530980E-02 -5.376003E-03  7.012130E-17  2.874012E-02 -1.451418E-03  3.288258E-05  3.483929E-01  0.000000E+00
  3.337042E-02  3.113575E-03  1.000000E-01  3.326679E-02 -5.630321E-03 -9.816981E-17  2.978325E-02 -6.237421E-04  3.563559E-05  3.317817E-01  0.000000E+00
  4.221327E-02  3.018653E-03  1.000000E-01  4.220298E-02 -5.726245E-03  5.609704E-17  3.031758E-02 -8.265740E-05  3.774305E-05  3.214916E-01  0.000000E+00
  5.211509E-02  3.065760E-03  1.000000E-01  5.220931E-02 -5.678641E-03 -5.609704E-17  3.042538E-02  3.026263E-04  3.934966E-05  3.082678E-01  0.000000E+00
  6.316987E-02  3.231742E-03  1.000000E-01  6.338077E-02 -5.510907E-03  2.804852E-17  3.034430E-02  5.309608E-04  4.075687E-05  2.992094E-01  0.000000E+00
  7.547353E-02  3.475062E-03  1.000000E-01  7.581428E-02 -5.265019E-03  1.262183E-16  3.020996E-02  6.600636E-04  4.208229E-05  2.917078E-01  0.000000E+00
  8.912494E-02  3.798095E-03  1.000000E-01  8.960977E-02 -4.938577E-03  0.000000E+00  3.002167E-02  7.607418E-04  4.336043E-05  2.825043E-01  0.000000E+00
  1.042203E-01  4.202965E-03  1.000000E-01  1.048645E-01 -4.529434E-03  5.609704E-17  2.975744E-02  8.501477E-04  4.462297E-05  2.732959E-01  0.000000E+00
  1.208505E-01  4.704326E-03  1.000000E-01  1.216702E-01 -4.022781E-03  9.816981E-17  2.941543E-02  9.204249E-04  4.588234E-05  2.657916E-01  0.000000E+00
  1.390959E-01  5.293146E-03  1.000000E-01  1.401082E-01 -3.427746E-03  5.188976E-16  2.901795E-02  9.596991E-04  4.714135E-05  2.604012E-01  0.000000E+00
  1.590234E-01  5.964223E-03  1.000000E-01  1.602459E-01 -2.749586E-03  4.908491E-16  2.859200E-02  9.767912E-04  4.839607E-05  2.556758E-01  0.000000E+00
  1.806810E-01  6.710845E-03  1.000000E-01  1.821322E-01 -1.995084E-03  8.414556E-17  2.820106E-02  9.634533E-04  4.967644E-05  2.518540E-01  0.000000E+00
  2.040935E-01  7.499185E-03  1.000000E-01  2.057917E-01 -1.198424E-03  2.804852E-17  2.792686E-02  9.146891E-04  5.101996E-05  2.484907E-01  0.000000E+00
  2.292572E-01  8.295281E-03  1.000000E-01  2.312210E-01 -3.939253E-04  1.262183E-16  2.783790E-02  8.337603E-04  5.246279E-05  2.440917E-01  0.000000E+00
  2.561364E-01  9.050176E-03  1.000000E-01  2.583839E-01  3.689372E-04  5.469461E-16  2.795892E-02  7.257357E-04  5.402916E-05  2.375414E-01  0.000000E+00
  2.846592E-01  9.724822E-03  1.000000E-01  2.872078E-01  1.050703E-03  5.609704E-17  2.821480E-02  6.265498E-04  5.566696E-05  2.271988E-01  0.000000E+00
  3.147147E-01  1.034302E-02  1.000000E-01  3.175805E-01  1.675425E-03  9.816981E-17  2.842251E-02  6.037039E-04  5.721947E-05  2.125185E-01  0.000000E+00
  3.461514E-01  1.102504E-02  1.000000E-01  3.493490E-01  2.364642E-03  5.609704E-17  2.835751E-02  7.206066E-04  5.845340E-05  1.956334E-01  0.000000E+00
  3.787768E-01  1.196976E-02  1.000000E-01  3.823188E-01  3.319336E-03  5.609704E-17  2.788841E-02  9.681998E-04  5.917111E-05  1.822565E-01  0.000000E+00
  4.123613E-01  1.333010E-02  1.000000E-01  4.162577E-01  4.694030E-03  4.207278E-17  2.708762E-02  1.242919E-03  5.934977E-05  1.802607E-01  0.000000E+00
  4.466470E-01  1.508910E-02  1.000000E-01  4.509052E-01  6.471598E-03  8.414556E-17  2.612953E-02  1.460194E-03  5.908413E-05  1.890019E-01  0.000000E+00
  4.813557E-01  1.718395E-02  1.000000E-01  4.859803E-01  8.588554E-03  5.609704E-17  2.518707E-02  1.543053E-03  5.860530E-05  2.031799E-01  0.000000E+00
  5.162084E-01  1.935726E-02  1.000000E-01  5.212009E-01  1.078480E-02  5.609704E-17  2.442697E-02  1.389512E-03  5.835786E-05  2.282398E-01  0.000000E+00
  5.509355E-01  2.112018E-02  1.000000E-01  5.562945E-01  1.256633E-02  8.414556E-17  2.346682E-02  1.386980E-03  5.815453E-05  2.356526E-01  0.000000E+00
  5.851877E-01  2.343203E-02  1.000000E-01  5.909081E-01  1.490258E-02  5.609704E-17  2.206109E-02  1.581807E-03  5.822278E-05  2.343417E-01  0.000000E+00
  6.187009E-01  2.600580E-02  1.000000E-01  6.247751E-01  1.750352E-02  8.414556E-17  2.053955E-02  1.560690E-03  5.926968E-05  2.632461E-01  0.000000E+00
  6.512484E-01  2.844446E-02  1.000000E-01  6.576661E-01  1.996792E-02  0.000000E+00  1.898447E-02  1.398736E-03  6.110490E-05  2.990813E-01  0.000000E+00
  6.826050E-01  3.070108E-02  1.000000E-01  6.893536E-01  2.224835E-02  5.609704E-17  1.737573E-02  1.212265E-03  6.344886E-05  3.262715E-01  0.000000E+00
  7.125788E-01  3.271795E-02  1.000000E-01  7.196438E-01  2.428651E-02  9.816981E-17  1.578505E-02  1.016039E-03  6.611576E-05  3.506781E-01  0.000000E+00
  7.410206E-01  3.445659E-02  1.000000E-01  7.483857E-01  2.604350E-02  4.768248E-16  1.439170E-02  7.875799E-04  6.896958E-05  3.773635E-01  0.000000E+00
  7.678340E-01  3.573560E-02  1.000000E-01  7.754822E-01  2.733601E-02  1.402426E-16  1.342421E-02  4.902540E-04  7.204632E-05  4.054798E-01  0.000000E+00
  7.929606E-01  3.635125E-02  1.000000E-01  8.008740E-01  2.795815E-02  5.609704E-17  1.302420E-02  1.201501E-04  7.544074E-05  4.280789E-01  0.000000E+00
  8.163626E-01  3.620062E-02  1.000000E-01  8.245229E-01  2.780594E-02  8.414556E-17  1.321499E-02 -3.180338E-04  7.926581E-05  4.406910E-01  0.000000E+00
  8.380221E-01  3.530457E-02  1.000000E-01  8.464110E-01  2.690043E-02  5.469461E-16  1.392525E-02 -8.024488E-04  8.358486E-05  4.417939E-01  0.000000E+00
  8.579484E-01  3.384759E-02  1.000000E-01  8.665477E-01  2.542807E-02  5.188976E-16  1.502775E-02 -1.311174E-03  8.834791E-05  4.333229E-01  0.000000E+00
  8.761825E-01  3.201550E-02  1.000000E-01  8.849742E-01  2.357664E-02  5.609704E-17  1.637353E-02 -1.837366E-03  9.332094E-05  4.196736E-01  0.000000E+00
  8.927902E-01  2.996881E-02  1.000000E-01  9.017573E-01  2.150835E-02  8.414556E-17  1.780359E-02 -2.361500E-03  9.810834E-05  4.030769E-01  0.000000E+00
  9.078551E-01  2.783517E-02  1.000000E-01  9.169812E-01  1.935220E-02  2.804852E-17  1.916923E-02 -2.843283E-03  1.023276E-04  3.842150E-01  0.000000E+00
  9.214730E-01  2.572558E-02  1.000000E-01  9.307427E-01  1.722034E-02  9.816981E-17  2.036839E-02 -3.251789E-03  1.057236E-04  3.642214E-01  0.000000E+00
  9.337443E-01  2.370771E-02  1.000000E-01  9.431436E-01  1.518118E-02  5.609704E-17  2.140254E-02 -3.617705E-03  1.082425E-04  3.453331E-01  0.000000E+00
  9.447684E-01  2.179261E-02  1.000000E-01  9.542840E-01  1.324586E-02  5.609704E-17  2.243547E-02 -4.042558E-03  1.102057E-04  3.283172E-01  0.000000E+00
  9.546409E-01  1.994991E-02  1.000000E-01  9.642608E-01  1.138371E-02  1.262183E-16  2.388716E-02 -4.673004E-03  1.128896E-04  3.112170E-01  0.000000E+00
  9.634551E-01  1.814929E-02  1.000000E-01  9.731679E-01  9.564088E-03  5.609704E-17  2.663365E-02 -5.680734E-03  1.196050E-04  2.890623E-01  0.000000E+00
  9.713058E-01  1.640963E-02  1.000000E-01  9.811015E-01  7.806060E-03  5.609704E-17  3.222258E-02 -7.331118E-03  1.362651E-04  2.553600E-01  0.000000E+00
  9.782892E-01  1.478386E-02  1.000000E-01  9.881586E-01  6.163135E-03  4.207278E-17  4.229203E-02 -1.009722E-02  1.668910E-04  2.113009E-01  0.000000E+00
  9.844933E-01  1.329544E-02  1.000000E-01  9.944282E-01  4.659002E-03  5.609704E-17  5.562442E-02 -1.327048E-02  1.971869E-04  1.831018E-01  0.000000E+00
  9.900000E-01  1.196258E-02  1.000000E-01  9.999930E-01  3.312077E-03  8.414556E-17  6.490945E-02  6.842052E-03  1.736748E-04  3.212302E-02  0.000000E+00
  7.008801E-03  1.767706E-02  1.000000E-01  6.626950E-03  9.086875E-03  9.816981E-17  2.203457E-02  1.779791E-02 -1.998518E-06 -5.911100E-02  0.000000E+00
  5.701244E-03  1.647698E-02  1.000000E-01  5.305592E-03  7.874131E-03  5.609704E-17  1.535550E-02  1.378560E-02  1.403434E-07 -6.472913E-02  0.000000E+00
  3.721537E-03  1.465774E-02  1.000000E-01  3.304991E-03  6.035687E-03  8.414556E-17  1.370035E-02  1.305018E-02  3.489352E-06 -2.002715E-01  0.000000E+00
  1.120163E-03  1.224894E-02  1.000000E-01  6.761613E-04  3.601463E-03  9.816981E-17  9.139145E-03  1.614136E-02  8.860787E-06  3.833477E-01  0.000000E+00
  4.510637E-04  8.685093E-03  1.000000E-01  0.000000E+00  0.000000E+00  0.000000E+00  5.816926E-03  6.596803E-03  1.420369E-05  1.117689E+00  0.000000E+00
  3.160124E-03  7.059497E-03  1.000000E-01  2.737653E-03 -1.642753E-03  4.207278E-17  1.434579E-02 -6.883002E-03  1.735642E-05  9.134207E-01  0.000000E+00
  5.423594E-03  6.090379E-03  1.000000E-01  5.025012E-03 -2.622099E-03 -1.402426E-17  2.159880E-02 -7.525074E-03  2.014467E-05  5.277753E-01  0.000000E+00
  7.008801E-03  5.708294E-03  1.000000E-01  6.626950E-03 -3.008217E-03  1.121941E-16  2.297381E-02 -5.317356E-03  2.403671E-05  5.144322E-01  0.000000E+00
    1    2
    2    3
    3    4
    4    5
    5    6
    6    7
    7    8
    8    9
    9   10
   10   11
   11   12
   12   13
   13   14
   14   15
   15   16
   16   17
   17   18
   18   19
   19   20
   20   21
   21   22
   22   23
   23   24
   24   25
   25   26
   26   27
   27   28
   28   29
   29   30
   30   31
   31   32
   32   33
   33   34
   34   35
   35   36
   36   37
   37   38
   38   39
   39   40
   40   41
   41   42
   42   43
   43   44
   44   45
   45   46
   46   47
   47   48
   48   49
   49   50
   51   52
   52   53
   53   54
   54   55
   55   56
   56   57
   57   58
   59   60
   60   61
   61   62
   62   63
   63   64
   64   65
   65   66
   66   67
   67   68
   68   69
   69   70
   70   71
   71   72
   72   73
   73   74
   74   75
   75   76
   76   77
   77   78
   78   79
   79   80
   80   81
   81   82
   82   83
   83   84
   84   85
   85   86
   86   87
   87   88
   88   89
   89   90
   90   91
   91   92
   92   93
   93   94
   94   95
   95   96
   96   97
   97   98
   98   99
   99  100
  100  101
  101  102
  102  103
  103  104
  104  105
  105  106
  106  107
  107  108
  109  110
  110  111
  111  112
  112  113
  113  114
  114  115
  115  116
Zone T= "Slice_0002 None Relative Regular z = 0.36666667"
 Nodes =          116  Elements=          112  ZONETYPE=FELINESEG
 DATAPACKING=POINT
  9.900000E-01  1.216021E-02  3.666667E-01  9.999938E-01  3.511812E-03  1.121942E-16  3.312631E-02 -2.596989E-02 -8.854429E-04 -6.185414E-03  0.000000E+00
  9.844789E-01  1.379880E-02  3.666667E-01  9.944144E-01  5.167697E-03  5.609708E-17  2.234602E-02 -6.734602E-03 -7.874020E-04  3.853913E-02  0.000000E+00
  9.782622E-01  1.564950E-02  3.666667E-01  9.881321E-01  7.037932E-03  1.682912E-16  1.224998E-02 -3.603386E-03 -6.282418E-04  7.683999E-03  0.000000E+00
  9.712761E-01  1.774961E-02  3.666667E-01  9.810723E-01  9.160210E-03  1.121942E-16  8.219474E-03 -2.455620E-03 -5.090693E-04 -1.013373E-02  0.000000E+00
  9.634271E-01  2.006725E-02  3.666667E-01  9.731405E-01  1.150231E-02  1.121942E-16  7.787779E-03 -2.261565E-03 -4.531215E-04 -3.527194E-02  0.000000E+00
  9.546204E-01  2.258898E-02  3.666667E-01  9.642408E-01  1.405065E-02  1.121942E-16  9.040273E-03 -2.528353E-03 -4.408740E-04 -6.444686E-02  0.000000E+00
  9.447561E-01  2.529655E-02  3.666667E-01  9.542724E-01  1.678680E-02  5.609708E-17  1.093181E-02 -2.931287E-03 -4.495540E-04 -9.519058E-02  0.000000E+00
  9.337360E-01  2.819382E-02  3.666667E-01  9.431360E-01  1.971466E-02  0.000000E+00  1.300957E-02 -3.336577E-03 -4.657341E-04 -1.279335E-01  0.000000E+00
  9.214586E-01  3.127546E-02  3.666667E-01  9.307290E-01  2.282883E-02  0.000000E+00  1.512725E-02 -3.701144E-03 -4.832222E-04 -1.621386E-01  0.000000E+00
  9.078232E-01  3.453516E-02  3.666667E-01  9.169496E-01  2.612294E-02  2.804854E-16  1.720704E-02 -4.005546E-03 -4.981371E-04 -1.976796E-01  0.000000E+00
  8.927319E-01  3.796317E-02  3.666667E-01  9.016990E-01  2.958713E-02  5.609708E-17  1.916224E-02 -4.219680E-03 -5.075740E-04 -2.322043E-01  0.000000E+00
  8.760894E-01  4.152214E-02  3.666667E-01  8.848809E-01  3.318366E-02  0.000000E+00  2.089528E-02 -4.334102E-03 -5.099123E-04 -2.638417E-01  0.000000E+00
  8.578153E-01  4.520232E-02  3.666667E-01  8.664139E-01  3.690269E-02  3.057291E-14  2.234741E-02 -4.370082E-03 -5.049257E-04 -2.917484E-01  0.000000E+00
  8.378441E-01  4.899673E-02  3.666667E-01  8.462319E-01  4.073715E-02  3.074120E-14  2.353629E-02 -4.364564E-03 -4.933436E-04 -3.166026E-01  0.000000E+00
  8.161333E-01  5.292465E-02  3.666667E-01  8.242920E-01  4.470652E-02  1.121942E-16  2.456271E-02 -4.369872E-03 -4.759214E-04 -3.440269E-01  0.000000E+00
  7.926668E-01  5.702483E-02  3.666667E-01  8.005778E-01  4.884999E-02  1.121942E-16  2.561762E-02 -4.403389E-03 -4.534517E-04 -3.789703E-01  0.000000E+00
  7.674503E-01  6.128319E-02  3.666667E-01  7.750951E-01  5.315330E-02  1.682912E-16  2.688213E-02 -4.421550E-03 -4.268034E-04 -4.199233E-01  0.000000E+00
  7.405094E-01  6.559405E-02  3.666667E-01  7.478698E-01  5.750966E-02  3.062901E-14  2.837977E-02 -4.371302E-03 -3.967826E-04 -4.615557E-01  0.000000E+00
  7.119026E-01  6.982946E-02  3.666667E-01  7.189610E-01  6.178977E-02  1.682912E-16  2.996766E-02 -4.235149E-03 -3.646843E-04 -4.994788E-01  0.000000E+00
  6.817298E-01  7.389052E-02  3.666667E-01  6.884698E-01  6.589370E-02  5.609708E-17  3.146477E-02 -4.031764E-03 -3.329635E-04 -5.330924E-01  0.000000E+00
  6.501347E-01  7.773026E-02  3.666667E-01  6.565412E-01  6.977397E-02  5.609708E-17  3.277799E-02 -3.805910E-03 -3.047234E-04 -5.670408E-01  0.000000E+00
  6.173024E-01  8.135544E-02  3.666667E-01  6.233623E-01  7.343741E-02  1.121942E-16  3.398051E-02 -3.572232E-03 -2.826568E-04 -6.051110E-01  0.000000E+00
  5.834550E-01  8.472670E-02  3.666667E-01  5.891576E-01  7.684426E-02  5.609708E-17  3.524005E-02 -3.295745E-03 -2.681090E-04 -6.461526E-01  0.000000E+00
  5.488457E-01  8.774722E-02  3.666667E-01  5.541831E-01  7.989666E-02  2.804854E-16  3.665302E-02 -2.959597E-03 -2.605314E-04 -6.894794E-01  0.000000E+00
  5.137559E-01  9.034692E-02  3.666667E-01  5.187229E-01  8.252380E-02  1.121942E-16  3.823539E-02 -2.561678E-03 -2.580909E-04 -7.351440E-01  0.000000E+00
  4.784836E-01  9.245785E-02  3.666667E-01  4.830782E-01  8.465701E-02  2.243883E-16  3.997853E-02 -2.084299E-03 -2.585800E-04 -7.817746E-01  0.000000E+00
  4.433339E-01  9.401916E-02  3.666667E-01  4.475575E-01  8.623479E-02  5.609708E-17  4.185878E-02 -1.510845E-03 -2.598342E-04 -8.284955E-01  0.000000E+00
  4.086096E-01  9.498364E-02  3.666667E-01  4.124667E-01  8.720946E-02  1.121942E-16  4.385545E-02 -8.389401E-04 -2.599655E-04 -8.767691E-01  0.000000E+00
  3.746012E-01  9.533929E-02  3.666667E-01  3.780994E-01  8.756886E-02  5.609708E-17  4.599184E-02 -5.861048E-05 -2.577138E-04 -9.286860E-01  0.000000E+00
  3.415766E-01  9.507768E-02  3.666667E-01  3.447262E-01  8.730449E-02  1.682912E-16  4.834677E-02  8.840620E-04 -2.527592E-04 -9.828456E-01  0.000000E+00
  3.097730E-01  9.416803E-02  3.666667E-01  3.125869E-01  8.638524E-02  2.243883E-16  5.095535E-02  2.052288E-03 -2.453222E-04 -1.035562E+00  0.000000E+00
  2.793901E-01  9.259220E-02  3.666667E-01  2.818833E-01  8.479277E-02  5.609708E-17  5.373795E-02  3.476837E-03 -2.356379E-04 -1.083748E+00  0.000000E+00
  2.505887E-01  9.036055E-02  3.666667E-01  2.527779E-01  8.253757E-02  3.057291E-14  5.652913E-02  5.149902E-03 -2.238360E-04 -1.125189E+00  0.000000E+00
  2.234888E-01  8.752259E-02  3.666667E-01  2.253920E-01  7.966966E-02  2.243883E-16  5.918825E-02  7.088988E-03 -2.103372E-04 -1.154452E+00  0.000000E+00
  1.981749E-01  8.410858E-02  3.666667E-01  1.998109E-01  7.621961E-02  1.121942E-16  6.153345E-02  9.265948E-03 -1.956136E-04 -1.166192E+00  0.000000E+00
  1.746916E-01  8.019860E-02  3.666667E-01  1.760797E-01  7.226836E-02  3.068510E-14  6.335502E-02  1.158859E-02 -1.800888E-04 -1.157985E+00  0.000000E+00
  1.530489E-01  7.587620E-02  3.666667E-01  1.542085E-01  6.790034E-02  3.074120E-14  6.450103E-02  1.392435E-02 -1.641950E-04 -1.131368E+00  0.000000E+00
  1.332206E-01  7.126306E-02  3.666667E-01  1.341709E-01  6.323851E-02  5.609708E-17  6.494971E-02  1.617240E-02 -1.483444E-04 -1.090591E+00  0.000000E+00
  1.151568E-01  6.645575E-02  3.666667E-01  1.159165E-01  5.838045E-02  2.243883E-16  6.479542E-02  1.829008E-02 -1.328552E-04 -1.040920E+00  0.000000E+00
  9.878428E-02  6.155375E-02  3.666667E-01  9.937115E-02  5.342671E-02  1.682912E-16  6.414430E-02  2.025537E-02 -1.177625E-04 -9.874472E-01  0.000000E+00
  8.401632E-02  5.663361E-02  3.666667E-01  8.444731E-02  4.845464E-02 -1.121942E-16  6.312602E-02  2.220041E-02 -1.032993E-04 -9.254024E-01  0.000000E+00
  7.076936E-02  5.171467E-02  3.666667E-01  7.106052E-02  4.348378E-02  5.609708E-17  6.163326E-02  2.405495E-02 -8.948172E-05 -8.509943E-01  0.000000E+00
  5.893902E-02  4.685793E-02  3.666667E-01  5.910531E-02  3.857577E-02  5.609708E-17  5.946119E-02  2.563112E-02 -7.632721E-05 -7.608147E-01  0.000000E+00
  4.842597E-02  4.209475E-02  3.666667E-01  4.848129E-02  3.376231E-02  1.121942E-16  5.647031E-02  2.669607E-02 -6.398231E-05 -6.557320E-01  0.000000E+00
  3.911374E-02  3.749216E-02  3.666667E-01  3.907077E-02  2.911114E-02  1.121942E-16  5.262023E-02  2.699750E-02 -5.238666E-05 -5.492234E-01  0.000000E+00
  3.088812E-02  3.309739E-02  3.666667E-01  3.075833E-02  2.466999E-02  2.243883E-16  4.803778E-02  2.647875E-02 -4.130832E-05 -4.604866E-01  0.000000E+00
  2.363417E-02  2.895512E-02  3.666667E-01  2.342781E-02  2.048399E-02  1.682912E-16  4.291660E-02  2.539767E-02 -3.076646E-05 -3.843962E-01  0.000000E+00
  1.726952E-02  2.504506E-02  3.666667E-01  1.699598E-02  1.653267E-02  3.365825E-16  3.719481E-02  2.426774E-02 -2.177915E-05 -2.622313E-01  0.000000E+00
  1.179184E-02  2.122095E-02  3.666667E-01  1.146048E-02  1.266819E-02  2.804854E-16  3.031462E-02  2.172851E-02 -1.457128E-05 -1.406349E-01  0.000000E+00
  7.008801E-03  1.767705E-02  3.666667E-01  6.626955E-03  9.086880E-03  1.121942E-16  2.222752E-02  1.795674E-02 -8.516061E-06 -4.980255E-02  0.000000E+00
  9.900000E-01  1.173780E-02  3.666667E-01  9.999938E-01  3.084943E-03  1.682912E-16  6.369882E-02  6.445610E-03  5.714302E-04  3.110747E-02  0.000000E+00
  9.900000E-01  1.177545E-02  3.666667E-01  9.999938E-01  3.122993E-03  1.121942E-16  4.370230E-02 -4.218980E-03  1.188445E-04 -1.392710E-01  0.000000E+00
  9.900000E-01  1.183245E-02  3.666667E-01  9.999938E-01  3.180592E-03  1.121942E-16  5.979556E-03 -5.311192E-02 -4.912638E-04 -9.030263E-02  0.000000E+00
  9.900000E-01  1.190759E-02  3.666667E-01  9.999938E-01  3.256520E-03  1.121942E-16 -1.048781E-02 -4.511001E-02 -8.474162E-04 -3.816638E-02  0.000000E+00
  9.900000E-01  1.199043E-02  3.666667E-01  9.999938E-01  3.340235E-03 -5.609708E-17 -7.230059E-03 -4.055410E-03 -8.302386E-04 -5.109862E-02  0.000000E+00
  9.900000E-01  1.206556E-02  3.666667E-01  9.999938E-01  3.416163E-03  0.000000E+00  6.194014E-03 -1.019508E-03 -6.857979E-04 -8.254860E-02  0.000000E+00
  9.900000E-01  1.212256E-02  3.666667E-01  9.999938E-01  3.473763E-03  2.243883E-16  2.629573E-02 -2.828448E-02 -7.705285E-04 -9.820292E-02  0.000000E+00
  9.900000E-01  1.216021E-02  3.666667E-01  9.999938E-01  3.511812E-03  1.682912E-16  3.312631E-02 -2.596989E-02 -8.854429E-04 -6.185414E-03  0.000000E+00
  7.008801E-03  5.708279E-03  3.666667E-01  6.626955E-03 -3.008222E-03  2.243883E-16  2.325193E-02 -5.380140E-03  7.787773E-05  5.083047E-01  0.000000E+00
  1.236474E-02  4.567914E-03  3.666667E-01  1.203943E-02 -4.160624E-03  1.121942E-16  2.520881E-02 -4.023886E-03  8.836049E-05  5.205739E-01  0.000000E+00
  1.851796E-02  3.854402E-03  3.666667E-01  1.825760E-02 -4.881667E-03  0.000000E+00  2.748190E-02 -2.576133E-03  9.647717E-05  3.972503E-01  0.000000E+00
  2.549652E-02  3.365212E-03  3.666667E-01  2.530982E-02 -5.376020E-03  1.121942E-16  2.910954E-02 -1.470292E-03  1.061415E-04  3.432719E-01  0.000000E+00
  3.337042E-02  3.113544E-03  3.666667E-01  3.326682E-02 -5.630345E-03  1.682912E-16  3.014424E-02 -6.315677E-04  1.149004E-04  3.271255E-01  0.000000E+00
  4.221327E-02  3.018615E-03  3.666667E-01  4.220301E-02 -5.726277E-03  1.121942E-16  3.066111E-02 -8.376312E-05  1.215715E-04  3.172828E-01  0.000000E+00
  5.211509E-02  3.065712E-03  3.666667E-01  5.220935E-02 -5.678682E-03  0.000000E+00  3.075112E-02  3.057570E-04  1.266134E-04  3.044133E-01  0.000000E+00
  6.316987E-02  3.231681E-03  3.666667E-01  6.338082E-02 -5.510961E-03  1.682912E-16  3.065621E-02  5.363174E-04  1.310166E-04  2.956407E-01  0.000000E+00