 Title= "ADflow Lift Distribution Data"
Variables = "eta" "CoordinateX" "CoordinateY" "CoordinateZ" "Lift" "Drag" "Moment" "Normalized Lift" "Normalized Drag" "Normalized Moment" "CL" "CD" "CM" "CLp" "CDp" "CMp" "CLv" "CDv" "CMv" "Elliptical" "thickness" "twist" "chord" "fx" "fy" "fz" 
Zone T= "LiftDist_01 allWalls: : z normal"
 I=          150
 DATAPACKING=BLOCK
  0.000000E+00
  6.711405E-03
  1.342281E-02
  2.013422E-02
  2.684563E-02
  3.355704E-02
  4.026845E-02
  4.697986E-02
  5.369127E-02
  6.040268E-02
  6.711409E-02
  7.382550E-02
  8.053691E-02
  8.724832E-02
  9.395973E-02
  1.006711E-01
  1.073825E-01
  1.140940E-01
  1.208054E-01
  1.275168E-01
  1.342282E-01
  1.409396E-01
  1.476510E-01
  1.543624E-01
  1.610738E-01
  1.677852E-01
  1.744966E-01
  1.812081E-01
  1.879195E-01
  1.946309E-01
  2.013423E-01
  2.080537E-01
  2.147651E-01
  2.214765E-01
  2.281879E-01
  2.348993E-01
  2.416107E-01
  2.483221E-01
  2.550336E-01
  2.617450E-01
  2.684564E-01
  2.751678E-01
  2.818792E-01
  2.885906E-01
  2.953020E-01
  3.020134E-01
  3.087248E-01
  3.154362E-01
  3.221476E-01
  3.288591E-01
  3.355705E-01
  3.422819E-01
  3.489933E-01
  3.557047E-01
  3.624161E-01
  3.691275E-01
  3.758389E-01
  3.825503E-01
  3.892617E-01
  3.959732E-01
  4.026846E-01
  4.093960E-01
  4.161074E-01
  4.228188E-01
  4.295302E-01
  4.362416E-01
  4.429530E-01
  4.496644E-01
  4.563758E-01
  4.630872E-01
  4.697987E-01
  4.765101E-01
  4.832215E-01
  4.899329E-01
  4.966443E-01
  5.033557E-01
  5.100671E-01
  5.167785E-01
  5.234899E-01
  5.302013E-01
  5.369128E-01
  5.436242E-01
  5.503356E-01
  5.570470E-01
  5.637584E-01
  5.704698E-01
  5.771812E-01
  5.838926E-01
  5.906040E-01
  5.973154E-01
  6.040268E-01
  6.107383E-01
  6.174497E-01
  6.241611E-01
  6.308725E-01
  6.375839E-01
  6.442953E-01
  6.510067E-01
  6.577181E-01
  6.644295E-01
  6.711409E-01
  6.778524E-01
  6.845638E-01
  6.912752E-01
  6.979866E-01
  7.046980E-01
  7.114094E-01
  7.181208E-01
  7.248322E-01
  7.315436E-01
  7.382550E-01
  7.449664E-01
  7.516779E-01
  7.583893E-01
  7.651007E-01
  7.718121E-01
  7.785235E-01
  7.852349E-01
  7.919463E-01
  7.986577E-01
  8.053691E-01
  8.120805E-01
  8.187919E-01
  8.255034E-01
  8.322148E-01
  8.389262E-01
  8.456376E-01
  8.523490E-01
  8.590604E-01
  8.657718E-01
  8.724832E-01
  8.791946E-01
  8.859060E-01
  8.926175E-01
  8.993289E-01
  9.060403E-01
  9.127517E-01
  9.194631E-01
  9.261745E-01
  9.328859E-01
  9.395973E-01
  9.463087E-01
  9.530201E-01
  9.597315E-01
  9.664430E-01
  9.731544E-01
  9.798658E-01
  9.865772E-01
  9.932886E-01
  1.000000E+00
  0.000000E+00
  0.000000E+00
  0.000000E+00
  0.000000E+00
  0.000000E+00
  0.000000E+00
  0.000000E+00
  0.000000E+00
  0.000000E+00
  0.000000E+00
  0.000000E+00
  0.000000E+00
  0.000000E+00
  0.000000E+00
  0.000000E+00
  0.000000E+00
  0.000000E+00
  0.000000E+00
  0.000000E+00
  0.000000E+00
  0.000000E+00
  0.000000E+00
  0.000000E+00
  0.000000E+00
  0.000000E+00
  0.000000E+00
  0.000000E+00
  0.000000E+00
  0.000000E+00
  0.000000E+00
  0.000000E+00
  0.000000E+00
  0.000000E+00
  0.000000E+00
  0.000000E+00
  0.000000E+00
  0.000000E+00
  0.000000E+00
  0.000000E+00
  0.000000E+00
  0.000000E+00
  0.000000E+00
  0.000000E+00
  0.000000E+00
  0.000000E+00
  0.000000E+00
  0.000000E+00
  0.000000E+00
  0.000000E+00
  0.000000E+00
  0.000000E+00
  0.000000E+00
  0.000000E+00
  0.000000E+00
  0.000000E+00
  0.000000E+00
  0.000000E+00
  0.000000E+00
  0.000000E+00
  0.000000E+00
  0.000000E+00
  0.000000E+00
  0.000000E+00
  0.000000E+00
  0.000000E+00
  0.000000E+00
  0.000000E+00
  0.000000E+00
  0.000000E+00
  0.000000E+00
  0.000000E+00
  0.000000E+00
  0.000000E+00
  0.000000E+00
  0.000000E+00
  0.000000E+00
  0.000000E+00
  0.000000E+00
  0.000000E+00
  0.000000E+00
  0.000000E+00
  0.000000E+00
  0.000000E+00
  0.000000E+00
  0.000000E+00
  0.000000E+00
  0.000000E+00
  0.000000E+00
  0.000000E+00
  0.000000E+00
  0.000000E+00
  0.000000E+00
  0.000000E+00
  0.000000E+00
  0.000000E+00
  0.000000E+00
  0.000000E+00
  0.000000E+00
  0.000000E+00
  0.000000E+00
  0.000000E+00
  0.000000E+00
  0.000000E+00
  0.000000E+00
  0.000000E+00
  0.000000E+00
  0.000000E+00
  0.000000E+00
  0.000000E+00
  0.000000E+00
  0.000000E+00
  0.000000E+00
  0.000000E+00
  0.000000E+00
  0.000000E+00
  0.000000E+00
  0.000000E+00
  0.000000E+00
  0.000000E+00
  0.000000E+00
  0.000000E+00
  0.000000E+00
  0.000000E+00
  0.000000E+00
  0.000000E+00
  0.000000E+00
  0.000000E+00
  0.000000E+00
  0.000000E+00
  0.000000E+00
  0.000000E+00
  0.000000E+00
  0.000000E+00
  0.000000E+00
  0.000000E+00
  0.000000E+00
  0.000000E+00
  0.000000E+00
  0.000000E+00
  0.000000E+00
  0.000000E+00
  0.000000E+00
  0.000000E+00
  0.000000E+00
  0.000000E+00
  0.000000E+00
  0.000000E+00
  0.000000E+00
  0.000000E+00
  0.000000E+00
  0.000000E+00
  0.000000E+00
  0.000000E+00
  0.000000E+00
  0.000000E+00
  0.000000E+00
  0.000000E+00
  0.000000E+00
  0.000000E+00
  0.000000E+00
  0.000000E+00
  0.000000E+00
  0.000000E+00
  0.000000E+00
  0.000000E+00
  0.000000E+00
  0.000000E+00
  0.000000E+00
  0.000000E+00
  0.000000E+00
  0.000000E+00
  0.000000E+00
  0.000000E+00
  0.000000E+00
  0.000000E+00
  0.000000E+00
  0.000000E+00
  0.000000E+00
  0.000000E+00
  0.000000E+00
  0.000000E+00
  0.000000E+00
  0.000000E+00
  0.000000E+00
  0.000000E+00
  0.000000E+00
  0.000000E+00
  0.000000E+00
  0.000000E+00
  0.000000E+00
  0.000000E+00
  0.000000E+00
  0.000000E+00
  0.000000E+00
  0.000000E+00
  0.000000E+00
  0.000000E+00
  0.000000E+00
  0.000000E+00
  0.000000E+00
  0.000000E+00
  0.000000E+00
  0.000000E+00
  0.000000E+00
  0.000000E+00
  0.000000E+00
  0.000000E+00
  0.000000E+00
  0.000000E+00
  0.000000E+00
  0.000000E+00
  0.000000E+00
  0.000000E+00
  0.000000E+00
  0.000000E+00
  0.000000E+00
  0.000000E+00
  0.000000E+00
  0.000000E+00
  0.000000E+00
  0.000000E+00
  0.000000E+00
  0.000000E+00
  0.000000E+00
  0.000000E+00
  0.000000E+00
  0.000000E+00
  0.000000E+00
  0.000000E+00
  0.000000E+00
  0.000000E+00
  0.000000E+00
  0.000000E+00
  0.000000E+00
  0.000000E+00
  0.000000E+00
  0.000000E+00
  0.000000E+00
  0.000000E+00
  0.000000E+00
  0.000000E+00
  0.000000E+00
  0.000000E+00
  0.000000E+00
  0.000000E+00
  0.000000E+00
  0.000000E+00
  0.000000E+00
  0.000000E+00
  0.000000E+00
  0.000000E+00
  0.000000E+00
  0.000000E+00
  0.000000E+00
  0.000000E+00
  0.000000E+00
  0.000000E+00
  0.000000E+00
  0.000000E+00
  0.000000E+00
  0.000000E+00
  0.000000E+00
  0.000000E+00
  0.000000E+00
  0.000000E+00
  0.000000E+00
  0.000000E+00
  0.000000E+00
  0.000000E+00
  0.000000E+00
  0.000000E+00
  0.000000E+00
  0.000000E+00
  0.000000E+00
  0.000000E+00
  0.000000E+00
  0.000000E+00
  0.000000E+00
  0.000000E+00
  0.000000E+00
  0.000000E+00
  0.000000E+00
  0.000000E+00
  0.000000E+00
  0.000000E+00
  0.000000E+00
  0.000000E+00
  0.000000E+00
  0.000000E+00
  0.000000E+00
  0.000000E+00
  0.000000E+00
  0.000000E+00
  0.000000E+00
  0.000000E+00
  0.000000E+00
  0.000000E+00
  0.000000E+00
  0.000000E+00
  0.000000E+00
  1.000000E-08
  1.691809E-02
  3.383618E-02
  5.075427E-02
  6.767237E-02
  8.459046E-02
  1.015085E-01
  1.184266E-01
  1.353447E-01
  1.522628E-01
  1.691809E-01
  1.860990E-01
  2.030171E-01
  2.199352E-01
  2.368533E-01
  2.537714E-01
  2.706895E-01
  2.876076E-01
  3.045256E-01
  3.214437E-01
  3.383618E-01
  3.552799E-01
  3.721980E-01
  3.891161E-01
  4.060342E-01
  4.229523E-01
  4.398704E-01
  4.567885E-01
  4.737066E-01
  4.906247E-01
  5.075427E-01
  5.244608E-01
  5.413789E-01
  5.582970E-01
  5.752151E-01
  5.921332E-01
  6.090513E-01
  6.259694E-01
  6.428875E-01
  6.598056E-01
  6.767237E-01
  6.936418E-01
  7.105598E-01
  7.274779E-01
  7.443960E-01
  7.613141E-01
  7.782322E-01
  7.951503E-01
  8.120684E-01
  8.289865E-01
  8.459046E-01
  8.628227E-01
  8.797408E-01
  8.966589E-01
  9.135769E-01
  9.304950E-01
  9.474131E-01
  9.643312E-01
  9.812493E-01
  9.981674E-01
  1.015085E+00
  1.032004E+00
  1.048922E+00
  1.065840E+00
  1.082758E+00
  1.099676E+00
  1.116594E+00
  1.133512E+00
  1.150430E+00
  1.167348E+00
  1.184266E+00
  1.201185E+00
  1.218103E+00
  1.235021E+00
  1.251939E+00
  1.268857E+00
  1.285775E+00
  1.302693E+00
  1.319611E+00
  1.336529E+00
  1.353447E+00
  1.370365E+00
  1.387284E+00
  1.404202E+00
  1.421120E+00
  1.438038E+00
  1.454956E+00
  1.471874E+00
  1.488792E+00
  1.505710E+00
  1.522628E+00
  1.539546E+00
  1.556464E+00
  1.573383E+00
  1.590301E+00
  1.607219E+00
  1.624137E+00
  1.641055E+00
  1.657973E+00
  1.674891E+00
  1.691809E+00
  1.708727E+00
  1.725645E+00
  1.742563E+00
  1.759482E+00
  1.776400E+00
  1.793318E+00
  1.810236E+00
  1.827154E+00
  1.844072E+00
  1.860990E+00
  1.877908E+00
  1.894826E+00
  1.911744E+00
  1.928662E+00
  1.945581E+00
  1.962499E+00
  1.979417E+00
  1.996335E+00
  2.013253E+00
  2.030171E+00
  2.047089E+00
  2.064007E+00
  2.080925E+00
  2.097843E+00
  2.114761E+00
  2.131680E+00
  2.148598E+00
  2.165516E+00
  2.182434E+00
  2.199352E+00
  2.216270E+00
  2.233188E+00
  2.250106E+00
  2.267024E+00
  2.283942E+00
  2.300860E+00
  2.317779E+00
  2.334697E+00
  2.351615E+00
  2.368533E+00
  2.385451E+00
  2.402369E+00
  2.419287E+00
  2.436205E+00
  2.453123E+00
  2.470041E+00
  2.486959E+00
  2.503878E+00
  2.520796E+00
  7.281753E+03
  7.280858E+03
  7.279964E+03
  7.279069E+03
  7.278175E+03
  7.277280E+03
  7.276386E+03
  7.275492E+03
  7.274597E+03
  7.272036E+03
  7.269405E+03
  7.266775E+03
  7.264144E+03
  7.261514E+03
  7.258884E+03
  7.256253E+03
  7.253132E+03
  7.248979E+03
  7.244827E+03
  7.240674E+03
  7.236522E+03
  7.232369E+03
  7.228217E+03
  7.223963E+03
  7.218291E+03
  7.212620E+03
  7.206948E+03
  7.201277E+03
  7.195606E+03
  7.189934E+03
  7.183980E+03
  7.176680E+03
  7.169380E+03
  7.162080E+03
  7.154780E+03
  7.147480E+03
  7.140180E+03
  7.131796E+03
  7.122762E+03
  7.113728E+03
  7.104694E+03
  7.095659E+03
  7.086625E+03
  7.076847E+03
  7.065973E+03
  7.055098E+03
  7.044224E+03
  7.033349E+03
  7.022474E+03
  7.010616E+03
  6.997751E+03
  6.984886E+03
  6.972021E+03
  6.959157E+03
  6.946292E+03
  6.931499E+03
  6.916443E+03
  6.901387E+03
  6.886331E+03
  6.871275E+03
  6.854900E+03
  6.837430E+03
  6.819960E+03
  6.802490E+03
  6.785020E+03
  6.766292E+03
  6.746196E+03
  6.726099E+03
  6.706004E+03
  6.685908E+03
  6.663969E+03
  6.641105E+03
  6.618241E+03
  6.595378E+03
  6.572260E+03
  6.546641E+03
  6.521024E+03
  6.495408E+03
  6.469793E+03
  6.442227E+03
  6.414006E+03
  6.385787E+03
  6.357571E+03
  6.327865E+03
  6.297253E+03
  6.266644E+03
  6.236037E+03
  6.203943E+03
  6.171214E+03
  6.138488E+03
  6.105765E+03
  6.071259E+03
  6.036711E+03
  6.002166E+03
  5.966899E+03
  5.930702E+03
  5.894507E+03
  5.858193E+03
  5.820375E+03
  5.782560E+03
  5.744747E+03
  5.705489E+03
  5.666039E+03
  5.626591E+03
  5.585707E+03
  5.544567E+03
  5.503428E+03
  5.460495E+03
  5.417500E+03
  5.374033E+03
  5.328966E+03
  5.283900E+03
  5.237404E+03
  5.190057E+03
  5.142321E+03
  5.092482E+03
  5.042644E+03
  4.990627E+03
  4.938094E+03
  4.883894E+03
  4.828478E+03
  4.771651E+03
  4.713167E+03
  4.653234E+03
  4.591508E+03
  4.527976E+03
  4.462873E+03
  4.395279E+03
  4.326708E+03
  4.254662E+03
  4.181365E+03
  4.105825E+03
  4.027582E+03
  3.947598E+03
  3.865350E+03
  3.780122E+03
  3.692695E+03
  3.602785E+03
  3.510069E+03
  3.414014E+03
  3.315058E+03
  3.215458E+03
  3.117863E+03
  3.034015E+03
  3.014964E+03
  3.046946E+03
  2.975688E+03
  3.696735E+03
  1.104937E+03
  3.415550E-03
  3.135209E+02
  3.135056E+02
  3.134902E+02
  3.134749E+02
  3.134595E+02
  3.134442E+02
  3.134288E+02
  3.134134E+02
  3.133981E+02
  3.133881E+02
  3.133783E+02
  3.133686E+02
  3.133588E+02
  3.133490E+02
  3.133392E+02
  3.133295E+02
  3.133385E+02
  3.133869E+02
  3.134353E+02
  3.134837E+02
  3.135322E+02
  3.135806E+02
  3.136290E+02
  3.136804E+02
  3.137733E+02
  3.138663E+02
  3.139592E+02
  3.140521E+02
  3.141451E+02
  3.142380E+02
  3.143315E+02
  3.144278E+02
  3.145241E+02
  3.146204E+02
  3.147167E+02
  3.148131E+02
  3.149094E+02
  3.149970E+02
  3.150794E+02
  3.151618E+02
  3.152442E+02
  3.153266E+02
  3.154090E+02
  3.154824E+02
  3.155426E+02
  3.156028E+02
  3.156630E+02
  3.157232E+02
  3.157834E+02
  3.158265E+02
  3.158521E+02
  3.158778E+02
  3.159034E+02
  3.159291E+02
  3.159547E+02
  3.159329E+02
  3.159047E+02
  3.158765E+02
  3.158482E+02
  3.158200E+02
  3.157473E+02
  3.156378E+02
  3.155283E+02
  3.154188E+02
  3.153092E+02
  3.151482E+02
  3.149313E+02
  3.147144E+02
  3.144973E+02
  3.142803E+02
  3.139770E+02
  3.136304E+02
  3.132836E+02
  3.129368E+02
  3.125764E+02
  3.120841E+02
  3.115917E+02
  3.110992E+02
  3.106067E+02
  3.100204E+02
  3.094026E+02
  3.087848E+02
  3.081669E+02
  3.075006E+02
  3.068049E+02
  3.061092E+02
  3.054134E+02
  3.046838E+02
  3.039397E+02
  3.031955E+02
  3.024513E+02
  3.016720E+02
  3.008918E+02
  3.001114E+02
  2.993226E+02
  2.985230E+02
  2.977232E+02
  2.969228E+02
  2.961185E+02
  2.953139E+02
  2.945090E+02
  2.937086E+02
  2.929086E+02
  2.921081E+02
  2.913295E+02
  2.905544E+02
  2.897790E+02
  2.890496E+02
  2.883215E+02
  2.876063E+02
  2.869356E+02
  2.862645E+02
  2.856302E+02
  2.850176E+02
  2.844133E+02
  2.838556E+02
  2.832976E+02
  2.827781E+02
  2.822675E+02
  2.817806E+02
  2.813110E+02
  2.808578E+02
  2.804242E+02
  2.800050E+02
  2.796035E+02
  2.792221E+02
  2.788581E+02
  2.785368E+02
  2.782321E+02
  2.780284E+02
  2.778851E+02
  2.778508E+02
  2.780244E+02
  2.783704E+02
  2.789737E+02
  2.800392E+02
  2.815221E+02
  2.835206E+02
  2.861610E+02
  2.896616E+02
  2.944370E+02
  3.010589E+02
  3.105536E+02
  3.259039E+02
  3.568321E+02
  4.055043E+02
  4.573456E+02
  6.182512E+02
  1.759978E+02
  1.181068E-03
  1.474381E+03
  1.474264E+03
  1.474146E+03
  1.474029E+03
  1.473912E+03
  1.473794E+03
  1.473677E+03
  1.473560E+03
  1.473442E+03
  1.473148E+03
  1.472846E+03
  1.472544E+03
  1.472243E+03
  1.471941E+03
  1.471639E+03
  1.471337E+03
  1.471001E+03
  1.470594E+03
  1.470187E+03
  1.469780E+03
  1.469373E+03
  1.468966E+03
  1.468559E+03
  1.468144E+03
  1.467607E+03
  1.467070E+03
  1.466534E+03
  1.465997E+03
  1.465461E+03
  1.464924E+03
  1.464353E+03
  1.463619E+03
  1.462885E+03
  1.462151E+03
  1.461417E+03
  1.460683E+03
  1.459948E+03
  1.459055E+03
  1.458065E+03
  1.457076E+03
  1.456086E+03
  1.455096E+03
  1.454107E+03
  1.452991E+03
  1.451688E+03
  1.450385E+03
  1.449083E+03
  1.447780E+03
  1.446477E+03
  1.444987E+03
  1.443305E+03
  1.441623E+03
  1.439940E+03
  1.438258E+03
  1.436576E+03
  1.434471E+03
  1.432308E+03
  1.430144E+03
  1.427981E+03
  1.425818E+03
  1.423303E+03
  1.420495E+03
  1.417687E+03
  1.414879E+03
  1.412070E+03
  1.408864E+03
  1.405225E+03
  1.401585E+03
  1.397946E+03
  1.394306E+03
  1.390000E+03
  1.385358E+03
  1.380717E+03
  1.376076E+03
  1.371331E+03
  1.365574E+03
  1.359817E+03
  1.354061E+03
  1.348305E+03
  1.341790E+03
  1.335021E+03
  1.328252E+03
  1.321484E+03
  1.314308E+03
  1.306883E+03
  1.299458E+03
  1.292035E+03
  1.284421E+03
  1.276726E+03
  1.269032E+03
  1.261338E+03
  1.253672E+03
  1.246007E+03
  1.238342E+03
  1.230806E+03
  1.223435E+03
  1.216065E+03
  1.208730E+03
  1.201834E+03
  1.194938E+03
  1.188042E+03
  1.181557E+03
  1.175127E+03
  1.168697E+03
  1.162547E+03
  1.156446E+03
  1.150345E+03
  1.144421E+03
  1.138504E+03
  1.132598E+03
  1.126730E+03
  1.120862E+03
  1.114944E+03
  1.108996E+03
  1.103017E+03
  1.096871E+03
  1.090725E+03
  1.084340E+03
  1.077898E+03
  1.071242E+03
  1.064431E+03
  1.057429E+03
  1.050204E+03
  1.042782E+03
  1.035116E+03
  1.027212E+03
  1.019101E+03
  1.010694E+03
  1.002171E+03
  9.933206E+02
  9.843961E+02
  9.753408E+02
  9.662544E+02
  9.572023E+02
  9.482416E+02
  9.395404E+02
  9.310888E+02
  9.229350E+02
  9.151318E+02
  9.077859E+02
  9.015549E+02
  8.980269E+02
  8.999832E+02
  9.156169E+02
  9.732675E+02
  1.078286E+03
  1.166205E+03
  1.530420E+03
  1.604905E+02
  1.038335E-08
  1.208478E+00
  1.208330E+00
  1.208181E+00
  1.208033E+00
  1.207884E+00
  1.207736E+00
  1.207587E+00
  1.207439E+00
  1.207291E+00
  1.206865E+00
  1.206429E+00
  1.205992E+00
  1.205556E+00
  1.205119E+00
  1.204683E+00
  1.204246E+00
  1.203728E+00
  1.203039E+00
  1.202350E+00
  1.201661E+00
  1.200972E+00
  1.200282E+00
  1.199593E+00
  1.198887E+00
  1.197946E+00
  1.197005E+00
  1.196064E+00
  1.195122E+00
  1.194181E+00
  1.193240E+00
  1.192252E+00
  1.191040E+00
  1.189829E+00
  1.188617E+00
  1.187406E+00
  1.186194E+00
  1.184983E+00
  1.183591E+00
  1.182092E+00
  1.180593E+00
  1.179093E+00
  1.177594E+00
  1.176095E+00
  1.174472E+00
  1.172667E+00
  1.170863E+00
  1.169058E+00
  1.167253E+00
  1.165448E+00
  1.163480E+00
  1.161345E+00
  1.159210E+00
  1.157075E+00
  1.154940E+00
  1.152805E+00
  1.150350E+00
  1.147851E+00
  1.145353E+00
  1.142854E+00
  1.140355E+00
  1.137638E+00
  1.134738E+00
  1.131839E+00
  1.128940E+00
  1.126041E+00
  1.122932E+00
  1.119597E+00
  1.116262E+00
  1.112927E+00
  1.109592E+00
  1.105951E+00
  1.102156E+00
  1.098362E+00
  1.094567E+00
  1.090731E+00
  1.086479E+00
  1.082228E+00
  1.077976E+00
  1.073725E+00
  1.069151E+00
  1.064467E+00
  1.059784E+00
  1.055101E+00
  1.050171E+00
  1.045091E+00
  1.040011E+00
  1.034931E+00
  1.029605E+00
  1.024173E+00
  1.018742E+00
  1.013311E+00
  1.007585E+00
  1.001851E+00
  9.961181E-01
  9.902653E-01
  9.842580E-01
  9.782512E-01
  9.722244E-01
  9.659482E-01
  9.596724E-01
  9.533969E-01
  9.468817E-01
  9.403347E-01
  9.337879E-01
  9.270028E-01
  9.201752E-01
  9.133478E-01
  9.062226E-01
  8.990871E-01
  8.918733E-01
  8.843941E-01
  8.769149E-01
  8.691984E-01
  8.613407E-01
  8.534185E-01
  8.451473E-01
  8.368761E-01
  8.282434E-01
  8.195251E-01
  8.105300E-01
  8.013332E-01
  7.919022E-01
  7.821961E-01
  7.722496E-01
  7.620057E-01
  7.514619E-01
  7.406574E-01
  7.294395E-01
  7.180595E-01
  7.061029E-01
  6.939385E-01
  6.814018E-01
  6.684166E-01
  6.551426E-01
  6.414927E-01
  6.273482E-01
  6.128388E-01
  5.979174E-01
  5.825302E-01
  5.665891E-01
  5.501663E-01
  5.336367E-01
  5.174398E-01
  5.035245E-01
  5.003628E-01
  5.056705E-01
  4.938446E-01
  6.135094E-01
  1.833752E-01
  5.668439E-07
  1.023474E+00
  1.023424E+00
  1.023373E+00
  1.023323E+00
  1.023273E+00
  1.023223E+00
  1.023173E+00
  1.023123E+00
  1.023073E+00
  1.023040E+00
  1.023008E+00
  1.022976E+00
  1.022944E+00
  1.022912E+00
  1.022881E+00
  1.022849E+00
  1.022878E+00
  1.023036E+00
  1.023194E+00
  1.023352E+00
  1.023510E+00
  1.023668E+00
  1.023826E+00
  1.023994E+00
  1.024298E+00
  1.024601E+00
  1.024904E+00
  1.025208E+00
  1.025511E+00
  1.025815E+00
  1.026120E+00
  1.026434E+00
  1.026749E+00
  1.027063E+00
  1.027377E+00
  1.027692E+00
  1.028006E+00
  1.028292E+00
  1.028561E+00
  1.028830E+00
  1.029099E+00
  1.029368E+00
  1.029637E+00
  1.029877E+00
  1.030073E+00
  1.030270E+00
  1.030466E+00
  1.030663E+00
  1.030859E+00
  1.031000E+00
  1.031084E+00
  1.031167E+00
  1.031251E+00
  1.031335E+00
  1.031419E+00
  1.031348E+00
  1.031255E+00
  1.031163E+00
  1.031071E+00
  1.030979E+00
  1.030742E+00
  1.030384E+00
  1.030027E+00
  1.029669E+00
  1.029311E+00
  1.028786E+00
  1.028078E+00
  1.027370E+00
  1.026661E+00
  1.025953E+00
  1.024963E+00
  1.023831E+00
  1.022699E+00
  1.021567E+00
  1.020390E+00
  1.018783E+00
  1.017176E+00
  1.015568E+00
  1.013960E+00
  1.012046E+00
  1.010030E+00
  1.008013E+00
  1.005996E+00
  1.003821E+00
  1.001550E+00
  9.992784E-01
  9.970071E-01
  9.946253E-01
  9.921962E-01
  9.897668E-01
  9.873373E-01
  9.847935E-01
  9.822464E-01
  9.796988E-01
  9.771239E-01
  9.745137E-01
  9.719027E-01
  9.692900E-01
  9.666644E-01
  9.640378E-01
  9.614100E-01
  9.587974E-01
  9.561857E-01
  9.535726E-01
  9.510309E-01
  9.485007E-01
  9.459692E-01
  9.435884E-01
  9.412116E-01
  9.388767E-01
  9.366872E-01
  9.344964E-01
  9.324257E-01
  9.304260E-01
  9.284534E-01
  9.266328E-01
  9.248111E-01
  9.231153E-01
  9.214486E-01
  9.198591E-01
  9.183258E-01
  9.168466E-01
  9.154311E-01
  9.140625E-01
  9.127520E-01
  9.115069E-01
  9.103187E-01
  9.092697E-01
  9.082750E-01
  9.076102E-01
  9.071422E-01
  9.070302E-01
  9.075970E-01
  9.087265E-01
  9.106959E-01
  9.141743E-01
  9.190151E-01
  9.255389E-01
  9.341584E-01
  9.455862E-01
  9.611752E-01
  9.827921E-01
  1.013787E+00
  1.063897E+00
  1.164861E+00
  1.323749E+00
  1.492982E+00
  2.018251E+00
  5.745360E-01
  3.855537E-06
  1.151399E+00
  1.151307E+00
  1.151215E+00
  1.151124E+00
  1.151032E+00
  1.150940E+00
  1.150849E+00
  1.150757E+00
  1.150666E+00
  1.150436E+00
  1.150200E+00
  1.149964E+00
  1.149729E+00
  1.149493E+00
  1.149257E+00
  1.149021E+00
  1.148759E+00
  1.148441E+00
  1.148124E+00
  1.147806E+00
  1.147488E+00
  1.147170E+00
  1.146852E+00
  1.146527E+00
  1.146108E+00
  1.145689E+00
  1.145270E+00
  1.144851E+00
  1.144432E+00
  1.144013E+00
  1.143568E+00
  1.142994E+00
  1.142421E+00
  1.141848E+00
  1.141274E+00
  1.140701E+00
  1.140128E+00
  1.139430E+00
  1.138657E+00
  1.137884E+00
  1.137111E+00
  1.136338E+00
  1.135566E+00
  1.134694E+00
  1.133677E+00
  1.132659E+00
  1.131642E+00
  1.130625E+00
  1.129607E+00
  1.128444E+00
  1.127130E+00
  1.125816E+00
  1.124503E+00
  1.123189E+00
  1.121875E+00
  1.120231E+00
  1.118542E+00
  1.116853E+00
  1.115163E+00
  1.113474E+00
  1.111510E+00
  1.109317E+00
  1.107124E+00
  1.104931E+00
  1.102738E+00
  1.100234E+00
  1.097392E+00
  1.094549E+00
  1.091707E+00
  1.088865E+00
  1.085502E+00
  1.081877E+00
  1.078253E+00
  1.074628E+00
  1.070923E+00
  1.066427E+00
  1.061931E+00
  1.057436E+00
  1.052941E+00
  1.047853E+00
  1.042567E+00
  1.037281E+00
  1.031996E+00
  1.026391E+00
  1.020593E+00
  1.014795E+00
  1.008997E+00
  1.003052E+00
  9.970424E-01
  9.910338E-01
  9.850257E-01
  9.790387E-01
  9.730528E-01
  9.670673E-01
  9.611821E-01
  9.554257E-01
  9.496697E-01
  9.439420E-01
  9.385563E-01
  9.331708E-01
  9.277856E-01
  9.227213E-01
  9.177000E-01
  9.126789E-01
  9.078755E-01
  9.031111E-01
  8.983469E-01
  8.937209E-01
  8.890998E-01
  8.844876E-01
  8.799051E-01
  8.753226E-01
  8.707008E-01
  8.660556E-01
  8.613864E-01
  8.565869E-01
  8.517875E-01
  8.468009E-01
  8.417700E-01
  8.365724E-01
  8.312532E-01
  8.257855E-01
  8.201431E-01
  8.143469E-01
  8.083603E-01
  8.021877E-01
  7.958533E-01
  7.892881E-01
  7.826325E-01
  7.757207E-01
  7.687512E-01
  7.616796E-01
  7.545837E-01
  7.475146E-01
  7.405168E-01
  7.337217E-01
  7.271216E-01
  7.207540E-01
  7.146602E-01
  7.089235E-01
  7.040575E-01
  7.013023E-01
  7.028301E-01
  7.150390E-01
  7.600605E-01
  8.420734E-01
  9.107326E-01
  1.195161E+00
  1.253330E-01
  8.108740E-12
  6.448055E-01
  6.447263E-01
  6.446471E-01
  6.445679E-01
  6.444887E-01
  6.444095E-01
  6.443303E-01
  6.442510E-01
  6.441718E-01
  6.439450E-01
  6.437121E-01
  6.434792E-01
  6.432462E-01
  6.430133E-01
  6.427804E-01
  6.425475E-01
  6.422711E-01
  6.419034E-01
  6.415357E-01
  6.411679E-01
  6.408002E-01
  6.404325E-01
  6.400648E-01
  6.396881E-01
  6.391859E-01
  6.386837E-01
  6.381815E-01
  6.376793E-01
  6.371771E-01
  6.366749E-01
  6.361476E-01
  6.355012E-01
  6.348548E-01
  6.342084E-01
  6.335619E-01
  6.329155E-01
  6.322691E-01
  6.315267E-01
  6.307267E-01
  6.299267E-01
  6.291268E-01
  6.283268E-01
  6.275268E-01
  6.266610E-01
  6.256980E-01
  6.247351E-01
  6.237721E-01
  6.228092E-01
  6.218462E-01
  6.207961E-01
  6.196570E-01
  6.185178E-01
  6.173786E-01
  6.162394E-01
  6.151002E-01
  6.137903E-01
  6.124571E-01
  6.111239E-01
  6.097907E-01
  6.084575E-01
  6.070075E-01
  6.054605E-01
  6.039136E-01
  6.023666E-01
  6.008197E-01
  5.991613E-01
  5.973817E-01
  5.956022E-01
  5.938228E-01
  5.920433E-01
  5.901007E-01
  5.880760E-01
  5.860514E-01
  5.840269E-01
  5.819798E-01
  5.797113E-01
  5.774429E-01
  5.751746E-01
  5.729064E-01
  5.704655E-01
  5.679666E-01
  5.654678E-01
  5.629692E-01
  5.603388E-01
  5.576282E-01
  5.549177E-01
  5.522075E-01
  5.493655E-01
  5.464674E-01
  5.435695E-01
  5.406719E-01
  5.376164E-01
  5.345571E-01
  5.314982E-01
  5.283753E-01
  5.251700E-01
  5.219650E-01
  5.187492E-01
  5.154005E-01
  5.120519E-01
  5.087035E-01
  5.052271E-01
  5.017338E-01
  4.982406E-01
  4.946203E-01
  4.909773E-01
  4.873344E-01
  4.835325E-01
  4.797252E-01
  4.758761E-01
  4.718854E-01
  4.678948E-01
  4.637774E-01
  4.595847E-01
  4.553577E-01
  4.509444E-01
  4.465311E-01
  4.419249E-01
  4.372731E-01
  4.324736E-01
  4.275664E-01
  4.225343E-01
  4.173555E-01
  4.120483E-01
  4.065824E-01
  4.009566E-01
  3.951916E-01
  3.892061E-01
  3.831341E-01
  3.767544E-01
  3.702639E-01
  3.635747E-01
  3.566462E-01
  3.495636E-01
  3.422804E-01
  3.347334E-01
  3.269916E-01
  3.190300E-01
  3.108199E-01
  3.023142E-01
  2.935515E-01
  2.847318E-01
  2.760897E-01
  2.686649E-01
  2.669779E-01
  2.698099E-01
  2.635000E-01
  3.273494E-01
  1.197218E-01
  2.483307E-02
  2.776255E-02
  2.776119E-02
  2.775983E-02
  2.775847E-02
  2.775711E-02
  2.775575E-02
  2.775439E-02
  2.775303E-02
  2.775167E-02
  2.775079E-02
  2.774992E-02
  2.774906E-02
  2.774819E-02
  2.774732E-02
  2.774646E-02
  2.774559E-02
  2.774639E-02
  2.775068E-02
  2.775497E-02
  2.775925E-02
  2.776354E-02
  2.776783E-02
  2.777212E-02
  2.777667E-02
  2.778490E-02
  2.779313E-02
  2.780136E-02
  2.780959E-02
  2.781782E-02
  2.782605E-02
  2.783433E-02
  2.784286E-02
  2.785138E-02
  2.785991E-02
  2.786844E-02
  2.787697E-02
  2.788550E-02
  2.789325E-02
  2.790055E-02
  2.790785E-02
  2.791514E-02
  2.792244E-02
  2.792974E-02
  2.793624E-02
  2.794157E-02
  2.794690E-02
  2.795223E-02
  2.795756E-02
  2.796289E-02
  2.796671E-02
  2.796898E-02
  2.797125E-02
  2.797352E-02
  2.797579E-02
  2.797807E-02
  2.797614E-02
  2.797364E-02
  2.797114E-02
  2.796864E-02
  2.796614E-02
  2.795971E-02
  2.795001E-02
  2.794031E-02
  2.793061E-02
  2.792091E-02
  2.790666E-02
  2.788745E-02
  2.786824E-02
  2.784903E-02
  2.782981E-02
  2.780295E-02
  2.777226E-02
  2.774156E-02
  2.771085E-02
  2.767894E-02
  2.763535E-02
  2.759175E-02
  2.754814E-02
  2.750452E-02
  2.745261E-02
  2.739791E-02
  2.734320E-02
  2.728849E-02
  2.722949E-02
  2.716789E-02
  2.710628E-02
  2.704467E-02
  2.698007E-02
  2.691417E-02
  2.684828E-02
  2.678238E-02
  2.671338E-02
  2.664428E-02
  2.657518E-02
  2.650534E-02
  2.643453E-02
  2.636371E-02
  2.629283E-02
  2.622161E-02
  2.615036E-02
  2.607908E-02
  2.600821E-02
  2.593737E-02
  2.586648E-02
  2.579754E-02
  2.572890E-02
  2.566023E-02
  2.559565E-02
  2.553117E-02
  2.546784E-02
  2.540844E-02
  2.534901E-02
  2.529284E-02
  2.523860E-02
  2.518509E-02
  2.513570E-02
  2.508628E-02
  2.504028E-02
  2.499507E-02
  2.495195E-02
  2.491036E-02
  2.487023E-02
  2.483183E-02
  2.479471E-02
  2.475916E-02
  2.472538E-02
  2.469315E-02
  2.466470E-02
  2.463772E-02
  2.461968E-02
  2.460699E-02
  2.460395E-02
  2.461932E-02
  2.464996E-02
  2.470338E-02
  2.479774E-02
  2.492905E-02
  2.510601E-02
  2.533982E-02
  2.564981E-02
  2.607267E-02
  2.665905E-02
  2.749981E-02
  2.885910E-02
  3.159782E-02
  3.590778E-02
  4.049838E-02
  5.474673E-02
  1.906965E-02
  8.587061E-03
  1.305577E-01
  1.305473E-01
  1.305369E-01
  1.305266E-01
  1.305162E-01
  1.305058E-01
  1.304954E-01
  1.304850E-01
  1.304746E-01
  1.304485E-01
  1.304218E-01
  1.303951E-01
  1.303684E-01
  1.303416E-01
  1.303149E-01
  1.302882E-01
  1.302584E-01
  1.302224E-01
  1.301864E-01
  1.301503E-01
  1.301143E-01
  1.300782E-01
  1.300422E-01
  1.300054E-01
  1.299579E-01
  1.299104E-01
  1.298628E-01
  1.298153E-01
  1.297678E-01
  1.297203E-01
  1.296698E-01
  1.296048E-01
  1.295397E-01
  1.294747E-01
  1.294097E-01
  1.293447E-01
  1.292797E-01
  1.292005E-01
  1.291129E-01
  1.290253E-01
  1.289377E-01
  1.288500E-01
  1.287624E-01
  1.286636E-01
  1.285482E-01
  1.284329E-01
  1.283175E-01
  1.282022E-01
  1.280868E-01
  1.279549E-01
  1.278059E-01
  1.276569E-01
  1.275080E-01
  1.273590E-01
  1.272101E-01
  1.270236E-01
  1.268321E-01
  1.266406E-01
  1.264490E-01
  1.262575E-01
  1.260347E-01
  1.257861E-01
  1.255374E-01
  1.252888E-01
  1.250401E-01
  1.247562E-01
  1.244339E-01
  1.241116E-01
  1.237894E-01
  1.234671E-01
  1.230858E-01
  1.226748E-01
  1.222638E-01
  1.218528E-01
  1.214327E-01
  1.209229E-01
  1.204131E-01
  1.199034E-01
  1.193937E-01
  1.188168E-01
  1.182174E-01
  1.176181E-01
  1.170187E-01
  1.163833E-01
  1.157258E-01
  1.150684E-01
  1.144110E-01
  1.137368E-01
  1.130554E-01
  1.123741E-01
  1.116928E-01
  1.110140E-01
  1.103352E-01
  1.096565E-01
  1.089892E-01
  1.083365E-01
  1.076838E-01
  1.070344E-01
  1.064237E-01
  1.058130E-01
  1.052024E-01
  1.046281E-01
  1.040587E-01
  1.034894E-01
  1.029447E-01
  1.024045E-01
  1.018643E-01
  1.013397E-01
  1.008157E-01
  1.002927E-01
  9.977311E-02
  9.925349E-02
  9.872941E-02
  9.820268E-02
  9.767323E-02
  9.712901E-02
  9.658479E-02
  9.601935E-02
  9.544889E-02
  9.485953E-02
  9.425638E-02
  9.363638E-02
  9.299658E-02
  9.233934E-02
  9.166051E-02
  9.096059E-02
  9.024234E-02
  8.949791E-02
  8.874321E-02
  8.795948E-02
  8.716920E-02
  8.636735E-02
  8.556274E-02
  8.476117E-02
  8.396769E-02
  8.319719E-02
  8.244879E-02
  8.172676E-02
  8.103578E-02
  8.038529E-02
  7.983354E-02
  7.952113E-02
  7.969436E-02
  8.107873E-02
  8.618375E-02
  9.548324E-02
  1.032686E-01
  1.355201E-01
  1.738942E-02
  7.549310E-08
  6.448990E-01
  6.448198E-01
  6.447406E-01
  6.446614E-01
  6.445822E-01
  6.445030E-01
  6.444237E-01
  6.443445E-01
  6.442653E-01
  6.440385E-01
  6.438056E-01
  6.435727E-01
  6.433398E-01
  6.431069E-01
  6.428740E-01
  6.426410E-01
  6.423647E-01
  6.419970E-01
  6.416293E-01
  6.412616E-01
  6.408939E-01
  6.405263E-01
  6.401586E-01
  6.397819E-01
  6.392798E-01