 Title= "ADflow Lift Distribution Data"
Variables = "eta" "CoordinateX" "CoordinateY" "CoordinateZ" "Lift" "Drag" "Moment" "Normalized Lift" "Normalized Drag" "Normalized Moment" "CL" "CD" "CM" "CLp" "CDp" "CMp" "CLv" "CDv" "CMv" "Elliptical" "thickness" "twist" "chord" "fx" "fy" "fz" 
Zone T= "LiftDist_01 allWalls: : z normal"
 I=          150
 DATAPACKING=BLOCK
  0.000000E+00
  6.711405E-03
  1.342281E-02
  2.013422E-02
  2.684563E-02
  3.355704E-02
  4.026845E-02
  4.697986E-02
  5.369127E-02
  6.040268E-02
  6.711409E-02
  7.382550E-02
  8.053691E-02
  8.724832E-02
  9.395973E-02
  1.006711E-01
  1.073825E-01
  1.140940E-01
  1.208054E-01
  1.275168E-01
  1.342282E-01
  1.409396E-01
  1.476510E-01
  1.543624E-01
  1.610738E-01
  1.677852E-01
  1.744966E-01
  1.812081E-01
  1.879195E-01
  1.946309E-01
  2.013423E-01
  2.080537E-01
  2.147651E-01
  2.214765E-01
  2.281879E-01
  2.348993E-01
  2.416107E-01
  2.483221E-01
  2.550336E-01
  2.617450E-01
  2.684564E-01
  2.751678E-01
  2.818792E-01
  2.885906E-01
  2.953020E-01
  3.020134E-01
  3.087248E-01
  3.154362E-01
  3.221476E-01
  3.288591E-01
  3.355705E-01
  3.422819E-01
  3.489933E-01
  3.557047E-01
  3.624161E-01
  3.691275E-01
  3.758389E-01
  3.825503E-01
  3.892617E-01
  3.959732E-01
  4.026846E-01
  4.093960E-01
  4.161074E-01
  4.228188E-01
  4.295302E-01
  4.362416E-01
  4.429530E-01
  4.496644E-01
  4.563758E-01
  4.630872E-01
  4.697987E-01
  4.765101E-01
  4.832215E-01
  4.899329E-01
  4.966443E-01
  5.033557E-01
  5.100671E-01
  5.167785E-01
  5.234899E-01
  5.302013E-01
  5.369128E-01
  5.436242E-01
  5.503356E-01
  5.570470E-01
  5.637584E-01
  5.704698E-01
  5.771812E-01
  5.838926E-01
  5.906040E-01
  5.973154E-01
  6.040268E-01
  6.107383E-01
  6.174497E-01
  6.241611E-01
  6.308725E-01
  6.375839E-01
  6.442953E-01
  6.510067E-01
  6.577181E-01
  6.644295E-01
  6.711409E-01
  6.778524E-01
  6.845638E-01
  6.912752E-01
  6.979866E-01
  7.046980E-01
  7.114094E-01
  7.181208E-01
  7.248322E-01
  7.315436E-01
  7.382550E-01
  7.449664E-01
  7.516779E-01
  7.583893E-01
  7.651007E-01
  7.718121E-01
  7.785235E-01
  7.852349E-01
  7.919463E-01
  7.986577E-01
  8.053691E-01
  8.120805E-01
  8.187919E-01
  8.255034E-01
  8.322148E-01
  8.389262E-01
  8.456376E-01
  8.523490E-01
  8.590604E-01
  8.657718E-01
  8.724832E-01
  8.791946E-01
  8.859060E-01
  8.926175E-01
  8.993289E-01
  9.060403E-01
  9.127517E-01
  9.194631E-01
  9.261745E-01
  9.328859E-01
  9.395973E-01
  9.463087E-01
  9.530201E-01
  9.597315E-01
  9.664430E-01
  9.731544E-01
  9.798658E-01
  9.865772E-01
  9.932886E-01
  1.000000E+00
  0.000000E+00
  0.000000E+00
  0.000000E+00
  0.000000E+00
  0.000000E+00
  0.000000E+00
  0.000000E+00
  0.000000E+00
  0.000000E+00
  0.000000E+00
  0.000000E+00
  0.000000E+00
  0.000000E+00
  0.000000E+00
  0.000000E+00
  0.000000E+00
  0.000000E+00
  0.000000E+00
  0.000000E+00
  0.000000E+00
  0.000000E+00
  0.000000E+00
  0.000000E+00
  0.000000E+00
  0.000000E+00
  0.000000E+00
  0.000000E+00
  0.000000E+00
  0.000000E+00
  0.000000E+00
  0.000000E+00
  0.000000E+00
  0.000000E+00
  0.000000E+00
  0.000000E+00
  0.000000E+00
  0.000000E+00
  0.000000E+00
  0.000000E+00
  0.000000E+00
  0.000000E+00
  0.000000E+00
  0.000000E+00
  0.000000E+00
  0.000000E+00
  0.000000E+00
  0.000000E+00
  0.000000E+00
  0.000000E+00
  0.000000E+00
  0.000000E+00
  0.000000E+00
  0.000000E+00
  0.000000E+00
  0.000000E+00
  0.000000E+00
  0.000000E+00
  0.000000E+00
  0.000000E+00
  0.000000E+00
  0.000000E+00
  0.000000E+00
  0.000000E+00
  0.000000E+00
  0.000000E+00
  0.000000E+00
  0.000000E+00
  0.000000E+00
  0.000000E+00
  0.000000E+00
  0.000000E+00
  0.000000E+00
  0.000000E+00
  0.000000E+00
  0.000000E+00
  0.000000E+00
  0.000000E+00
  0.000000E+00
  0.000000E+00
  0.000000E+00
  0.000000E+00
  0.000000E+00
  0.000000E+00
  0.000000E+00
  0.000000E+00
  0.000000E+00
  0.000000E+00
  0.000000E+00
  0.000000E+00
  0.000000E+00
  0.000000E+00
  0.000000E+00
  0.000000E+00
  0.000000E+00
  0.000000E+00
  0.000000E+00
  0.000000E+00
  0.000000E+00
  0.000000E+00
  0.000000E+00
  0.000000E+00
  0.000000E+00
  0.000000E+00
  0.000000E+00
  0.000000E+00
  0.000000E+00
  0.000000E+00
  0.000000E+00
  0.000000E+00
  0.000000E+00
  0.000000E+00
  0.000000E+00
  0.000000E+00
  0.000000E+00
  0.000000E+00
  0.000000E+00
  0.000000E+00
  0.000000E+00
  0.000000E+00
  0.000000E+00
  0.000000E+00
  0.000000E+00
  0.000000E+00
  0.000000E+00
  0.000000E+00
  0.000000E+00
  0.000000E+00
  0.000000E+00
  0.000000E+00
  0.000000E+00
  0.000000E+00
  0.000000E+00
  0.000000E+00
  0.000000E+00
  0.000000E+00
  0.000000E+00
  0.000000E+00
  0.000000E+00
  0.000000E+00
  0.000000E+00
  0.000000E+00
  0.000000E+00
  0.000000E+00
  0.000000E+00
  0.000000E+00
  0.000000E+00
  0.000000E+00
  0.000000E+00
  0.000000E+00
  0.000000E+00
  0.000000E+00
  0.000000E+00
  0.000000E+00
  0.000000E+00
  0.000000E+00
  0.000000E+00
  0.000000E+00
  0.000000E+00
  0.000000E+00
  0.000000E+00
  0.000000E+00
  0.000000E+00
  0.000000E+00
  0.000000E+00
  0.000000E+00
  0.000000E+00
  0.000000E+00
  0.000000E+00
  0.000000E+00
  0.000000E+00
  0.000000E+00
  0.000000E+00
  0.000000E+00
  0.000000E+00
  0.000000E+00
  0.000000E+00
  0.000000E+00
  0.000000E+00
  0.000000E+00
  0.000000E+00
  0.000000E+00
  0.000000E+00
  0.000000E+00
  0.000000E+00
  0.000000E+00
  0.000000E+00
  0.000000E+00
  0.000000E+00
  0.000000E+00
  0.000000E+00
  0.000000E+00
  0.000000E+00
  0.000000E+00
  0.000000E+00
  0.000000E+00
  0.000000E+00
  0.000000E+00
  0.000000E+00
  0.000000E+00
  0.000000E+00
  0.000000E+00
  0.000000E+00
  0.000000E+00
  0.000000E+00
  0.000000E+00
  0.000000E+00
  0.000000E+00
  0.000000E+00
  0.000000E+00
  0.000000E+00
  0.000000E+00
  0.000000E+00
  0.000000E+00
  0.000000E+00
  0.000000E+00
  0.000000E+00
  0.000000E+00
  0.000000E+00
  0.000000E+00
  0.000000E+00
  0.000000E+00
  0.000000E+00
  0.000000E+00
  0.000000E+00
  0.000000E+00
  0.000000E+00
  0.000000E+00
  0.000000E+00
  0.000000E+00
  0.000000E+00
  0.000000E+00
  0.000000E+00
  0.000000E+00
  0.000000E+00
  0.000000E+00
  0.000000E+00
  0.000000E+00
  0.000000E+00
  0.000000E+00
  0.000000E+00
  0.000000E+00
  0.000000E+00
  0.000000E+00
  0.000000E+00
  0.000000E+00
  0.000000E+00
  0.000000E+00
  0.000000E+00
  0.000000E+00
  0.000000E+00
  0.000000E+00
  0.000000E+00
  0.000000E+00
  0.000000E+00
  0.000000E+00
  0.000000E+00
  0.000000E+00
  0.000000E+00
  0.000000E+00
  0.000000E+00
  0.000000E+00
  0.000000E+00
  0.000000E+00
  0.000000E+00
  0.000000E+00
  0.000000E+00
  0.000000E+00
  0.000000E+00
  0.000000E+00
  0.000000E+00
  0.000000E+00
  0.000000E+00
  0.000000E+00
  0.000000E+00
  0.000000E+00
  0.000000E+00
  0.000000E+00
  0.000000E+00
  0.000000E+00
  0.000000E+00
  0.000000E+00
  0.000000E+00
  0.000000E+00
  0.000000E+00
  0.000000E+00
  0.000000E+00
  0.000000E+00
  0.000000E+00
  0.000000E+00
  0.000000E+00
  0.000000E+00
  0.000000E+00
  0.000000E+00
  0.000000E+00
  0.000000E+00
  0.000000E+00
  0.000000E+00
  0.000000E+00
  0.000000E+00
  0.000000E+00
  1.000000E-08
  1.691809E-02
  3.383618E-02
  5.075427E-02
  6.767237E-02
  8.459046E-02
  1.015085E-01
  1.184266E-01
  1.353447E-01
  1.522628E-01
  1.691809E-01
  1.860990E-01
  2.030171E-01
  2.199352E-01
  2.368533E-01
  2.537714E-01
  2.706895E-01
  2.876076E-01
  3.045256E-01
  3.214437E-01
  3.383618E-01
  3.552799E-01
  3.721980E-01
  3.891161E-01
  4.060342E-01
  4.229523E-01
  4.398704E-01
  4.567885E-01
  4.737066E-01
  4.906247E-01
  5.075427E-01
  5.244608E-01
  5.413789E-01
  5.582970E-01
  5.752151E-01
  5.921332E-01
  6.090513E-01
  6.259694E-01
  6.428875E-01
  6.598056E-01
  6.767237E-01
  6.936418E-01
  7.105598E-01
  7.274779E-01
  7.443960E-01
  7.613141E-01
  7.782322E-01
  7.951503E-01
  8.120684E-01
  8.289865E-01
  8.459046E-01
  8.628227E-01
  8.797408E-01
  8.966589E-01
  9.135769E-01
  9.304950E-01
  9.474131E-01
  9.643312E-01
  9.812493E-01
  9.981674E-01
  1.015085E+00
  1.032004E+00
  1.048922E+00
  1.065840E+00
  1.082758E+00
  1.099676E+00
  1.116594E+00
  1.133512E+00
  1.150430E+00
  1.167348E+00
  1.184266E+00
  1.201185E+00
  1.218103E+00
  1.235021E+00
  1.251939E+00
  1.268857E+00
  1.285775E+00
  1.302693E+00
  1.319611E+00
  1.336529E+00
  1.353447E+00
  1.370365E+00
  1.387284E+00
  1.404202E+00
  1.421120E+00
  1.438038E+00
  1.454956E+00
  1.471874E+00
  1.488792E+00
  1.505710E+00
  1.522628E+00
  1.539546E+00
  1.556464E+00
  1.573383E+00
  1.590301E+00
  1.607219E+00
  1.624137E+00
  1.641055E+00
  1.657973E+00
  1.674891E+00
  1.691809E+00
  1.708727E+00
  1.725645E+00
  1.742563E+00
  1.759482E+00
  1.776400E+00
  1.793318E+00
  1.810236E+00
  1.827154E+00
  1.844072E+00
  1.860990E+00
  1.877908E+00
  1.894826E+00
  1.911744E+00
  1.928662E+00
  1.945581E+00
  1.962499E+00
  1.979417E+00
  1.996335E+00
  2.013253E+00
  2.030171E+00
  2.047089E+00
  2.064007E+00
  2.080925E+00
  2.097843E+00
  2.114761E+00
  2.131680E+00
  2.148598E+00
  2.165516E+00
  2.182434E+00
  2.199352E+00
  2.216270E+00
  2.233188E+00
  2.250106E+00
  2.267024E+00
  2.283942E+00
  2.300860E+00
  2.317779E+00
  2.334697E+00
  2.351615E+00
  2.368533E+00
  2.385451E+00
  2.402369E+00
  2.419287E+00
  2.436205E+00
  2.453123E+00
  2.470041E+00
  2.486959E+00
  2.503878E+00
  2.520796E+00
  1.098176E+04
  1.098024E+04
  1.097871E+04
  1.097719E+04
  1.097566E+04
  1.097414E+04
  1.097262E+04
  1.097109E+04
  1.096957E+04
  1.096516E+04
  1.096062E+04
  1.095609E+04
  1.095156E+04
  1.094703E+04
  1.094250E+04
  1.093797E+04
  1.093256E+04
  1.092531E+04
  1.091807E+04
  1.091082E+04
  1.090357E+04
  1.089633E+04
  1.088908E+04
  1.088165E+04
  1.087164E+04
  1.086164E+04
  1.085163E+04
  1.084162E+04
  1.083162E+04
  1.082161E+04
  1.081109E+04
  1.079809E+04
  1.078509E+04
  1.077209E+04
  1.075909E+04
  1.074609E+04
  1.073309E+04
  1.071813E+04
  1.070201E+04
  1.068588E+04
  1.066976E+04
  1.065363E+04
  1.063751E+04
  1.062011E+04
  1.060086E+04
  1.058160E+04
  1.056234E+04
  1.054308E+04
  1.052383E+04
  1.050298E+04
  1.048050E+04
  1.045803E+04
  1.043556E+04
  1.041308E+04
  1.039061E+04
  1.036517E+04
  1.033932E+04
  1.031347E+04
  1.028762E+04
  1.026177E+04
  1.023405E+04
  1.020478E+04
  1.017550E+04
  1.014622E+04
  1.011695E+04
  1.008595E+04
  1.005308E+04
  1.002021E+04
  9.987340E+03
  9.954471E+03
  9.918976E+03
  9.882162E+03
  9.845348E+03
  9.808535E+03
  9.771338E+03
  9.730370E+03
  9.689403E+03
  9.648437E+03
  9.607471E+03
  9.563366E+03
  9.518205E+03
  9.473045E+03
  9.427887E+03
  9.380128E+03
  9.330784E+03
  9.281442E+03
  9.232102E+03
  9.180066E+03
  9.126880E+03
  9.073696E+03
  9.020517E+03
  8.964142E+03
  8.907694E+03
  8.851253E+03
  8.793485E+03
  8.734011E+03
  8.674551E+03
  8.614877E+03
  8.552414E+03
  8.489981E+03
  8.427577E+03
  8.362827E+03
  8.297803E+03
  8.232825E+03
  8.165467E+03
  8.097731E+03
  8.030050E+03
  7.958783E+03
  7.887448E+03
  7.815126E+03
  7.739330E+03
  7.663588E+03
  7.584764E+03
  7.504123E+03
  7.422721E+03
  7.336985E+03
  7.251289E+03
  7.161486E+03
  7.070733E+03
  6.977197E+03
  6.881635E+03
  6.783965E+03
  6.683808E+03
  6.581711E+03
  6.477203E+03
  6.370599E+03
  6.262171E+03
  6.151232E+03
  6.039315E+03
  5.924280E+03
  5.808229E+03
  5.690351E+03
  5.570419E+03
  5.449180E+03
  5.326254E+03
  5.201027E+03
  5.074041E+03
  4.945133E+03
  4.814314E+03
  4.682351E+03
  4.553946E+03
  4.439157E+03
  4.354053E+03
  4.325665E+03
  4.415349E+03
  4.546839E+03
  4.292526E+03
  4.578857E+03
  1.331710E+03
  7.336173E-03
  5.974034E+02
  5.973680E+02
  5.973325E+02
  5.972971E+02
  5.972616E+02
  5.972261E+02
  5.971907E+02
  5.971552E+02
  5.971198E+02
  5.970707E+02
  5.970212E+02
  5.969716E+02
  5.969220E+02
  5.968725E+02
  5.968229E+02
  5.967734E+02
  5.967473E+02
  5.967707E+02
  5.967941E+02
  5.968175E+02
  5.968409E+02
  5.968643E+02
  5.968877E+02
  5.969153E+02
  5.970005E+02
  5.970858E+02
  5.971711E+02
  5.972565E+02
  5.973418E+02
  5.974273E+02
  5.975144E+02
  5.976097E+02
  5.977051E+02
  5.978005E+02
  5.978961E+02
  5.979917E+02
  5.980873E+02
  5.981813E+02
  5.982743E+02
  5.983674E+02
  5.984607E+02
  5.985541E+02
  5.986477E+02
  5.987378E+02
  5.988230E+02
  5.989084E+02
  5.989940E+02
  5.990798E+02
  5.991658E+02
  5.992131E+02
  5.992206E+02
  5.992285E+02
  5.992366E+02
  5.992449E+02
  5.992534E+02
  5.991001E+02
  5.989248E+02
  5.987498E+02
  5.985749E+02
  5.984003E+02
  5.981085E+02
  5.977196E+02
  5.973308E+02
  5.969421E+02
  5.965537E+02
  5.960700E+02
  5.954829E+02
  5.948960E+02
  5.943092E+02
  5.937226E+02
  5.930184E+02
  5.922553E+02
  5.914923E+02
  5.907295E+02
  5.899566E+02
  5.890832E+02
  5.882101E+02
  5.873372E+02
  5.864645E+02
  5.854743E+02
  5.844446E+02
  5.834153E+02
  5.823862E+02
  5.810932E+02
  5.796390E+02
  5.781849E+02
  5.767307E+02
  5.748049E+02
  5.726770E+02
  5.705489E+02
  5.684206E+02
  5.655085E+02
  5.625772E+02
  5.596463E+02
  5.562643E+02
  5.523030E+02
  5.483448E+02
  5.443029E+02
  5.392066E+02
  5.341183E+02
  5.290381E+02
  5.233261E+02
  5.175411E+02
  5.117686E+02
  5.059183E+02
  5.000656E+02
  4.942264E+02
  4.886812E+02
  4.831577E+02
  4.777669E+02
  4.727969E+02
  4.678349E+02
  4.633157E+02
  4.590605E+02
  4.549286E+02
  4.514426E+02
  4.479585E+02
  4.450793E+02
  4.423439E+02
  4.399961E+02
  4.379313E+02
  4.360789E+02
  4.344767E+02
  4.329613E+02
  4.315539E+02
  4.301700E+02
  4.288083E+02
  4.274467E+02
  4.260898E+02
  4.247588E+02
  4.234735E+02
  4.222655E+02
  4.212515E+02
  4.204198E+02
  4.198674E+02
  4.198561E+02
  4.203783E+02
  4.216156E+02
  4.238537E+02
  4.277263E+02
  4.346858E+02
  4.469585E+02
  4.683826E+02
  5.052919E+02
  5.703569E+02
  6.556868E+02
  6.981411E+02
  8.225901E+02
  3.676302E+02
  2.353418E-03
  2.005437E+03
  2.005077E+03
  2.004717E+03
  2.004356E+03
  2.003996E+03
  2.003635E+03
  2.003275E+03
  2.002915E+03
  2.002554E+03
  2.001539E+03
  2.000497E+03
  1.999454E+03
  1.998412E+03
  1.997370E+03
  1.996327E+03
  1.995285E+03
  1.994051E+03
  1.992413E+03
  1.990775E+03
  1.989138E+03
  1.987500E+03
  1.985863E+03
  1.984225E+03
  1.982543E+03
  1.980234E+03
  1.977925E+03
  1.975616E+03
  1.973307E+03
  1.970998E+03
  1.968689E+03
  1.966239E+03
  1.963119E+03
  1.959998E+03
  1.956878E+03
  1.953757E+03
  1.950637E+03
  1.947517E+03
  1.943850E+03
  1.939856E+03
  1.935862E+03
  1.931868E+03
  1.927874E+03
  1.923880E+03
  1.919554E+03
  1.914736E+03
  1.909918E+03
  1.905101E+03
  1.900284E+03
  1.895466E+03
  1.890292E+03
  1.884752E+03
  1.879212E+03
  1.873672E+03
  1.868132E+03
  1.862593E+03
  1.856508E+03
  1.850349E+03
  1.844189E+03
  1.838030E+03
  1.831871E+03
  1.825412E+03
  1.818706E+03
  1.811999E+03
  1.805292E+03
  1.798585E+03
  1.791578E+03
  1.784244E+03
  1.776926E+03
  1.769592E+03
  1.762258E+03
  1.754414E+03
  1.746314E+03
  1.738215E+03
  1.730115E+03
  1.721952E+03
  1.713168E+03
  1.704384E+03
  1.695600E+03
  1.686815E+03
  1.677632E+03
  1.668314E+03
  1.658997E+03
  1.649679E+03
  1.640051E+03
  1.630232E+03
  1.620414E+03
  1.610596E+03
  1.600617E+03
  1.590569E+03
  1.580522E+03
  1.570475E+03
  1.560670E+03
  1.550872E+03
  1.541077E+03
  1.531397E+03
  1.521869E+03
  1.512346E+03
  1.502813E+03
  1.493110E+03
  1.483419E+03
  1.473728E+03
  1.463666E+03
  1.453569E+03
  1.443492E+03
  1.432792E+03
  1.422000E+03
  1.411232E+03
  1.399070E+03
  1.386882E+03
  1.374239E+03
  1.359997E+03
  1.345776E+03
  1.330088E+03
  1.313533E+03
  1.296620E+03
  1.277691E+03
  1.258774E+03
  1.238025E+03
  1.216847E+03
  1.194560E+03
  1.171464E+03
  1.147729E+03
  1.123244E+03
  1.098391E+03
  1.073083E+03
  1.047627E+03
  1.022045E+03
  9.966454E+02
  9.713215E+02
  9.467714E+02
  9.226853E+02
  8.994332E+02
  8.775681E+02
  8.567323E+02
  8.373488E+02
  8.201607E+02
  8.047274E+02
  7.913943E+02
  7.806940E+02
  7.739971E+02
  7.749898E+02
  7.899874E+02
  8.302016E+02
  9.124258E+02
  1.063405E+03
  1.250868E+03
  1.301868E+03
  1.404748E+03
 -3.008580E+00
  2.282233E-08
  1.233019E+00
  1.232848E+00
  1.232677E+00
  1.232506E+00
  1.232335E+00
  1.232164E+00
  1.231993E+00
  1.231822E+00
  1.231650E+00
  1.231155E+00
  1.230646E+00
  1.230138E+00
  1.229629E+00
  1.229120E+00
  1.228611E+00
  1.228102E+00
  1.227495E+00
  1.226682E+00
  1.225868E+00
  1.225054E+00
  1.224241E+00
  1.223427E+00
  1.222613E+00
  1.221779E+00
  1.220655E+00
  1.219532E+00
  1.218408E+00
  1.217285E+00
  1.216162E+00
  1.215038E+00
  1.213856E+00
  1.212397E+00
  1.210937E+00
  1.209478E+00
  1.208018E+00
  1.206558E+00
  1.205099E+00
  1.203420E+00
  1.201609E+00
  1.199799E+00
  1.197988E+00
  1.196177E+00
  1.194367E+00
  1.192414E+00
  1.190252E+00
  1.188090E+00
  1.185927E+00
  1.183765E+00
  1.181603E+00
  1.179262E+00
  1.176739E+00
  1.174216E+00
  1.171692E+00
  1.169169E+00
  1.166646E+00
  1.163789E+00
  1.160887E+00
  1.157984E+00
  1.155082E+00
  1.152180E+00
  1.149068E+00
  1.145781E+00
  1.142493E+00
  1.139206E+00
  1.135919E+00
  1.132439E+00
  1.128748E+00
  1.125058E+00
  1.121367E+00
  1.117677E+00
  1.113691E+00
  1.109558E+00
  1.105424E+00
  1.101291E+00
  1.097115E+00
  1.092515E+00
  1.087915E+00
  1.083315E+00
  1.078716E+00
  1.073764E+00
  1.068693E+00
  1.063623E+00
  1.058552E+00
  1.053190E+00
  1.047650E+00
  1.042110E+00
  1.036570E+00
  1.030727E+00
  1.024756E+00
  1.018784E+00
  1.012813E+00
  1.006484E+00
  1.000146E+00
  9.938085E-01
  9.873224E-01
  9.806447E-01
  9.739686E-01
  9.672684E-01
  9.602552E-01
  9.532453E-01
  9.462387E-01
  9.389685E-01
  9.316678E-01
  9.243721E-01
  9.168093E-01
  9.092039E-01
  9.016047E-01
  8.936030E-01
  8.855935E-01
  8.774734E-01
  8.689630E-01
  8.604588E-01
  8.516085E-01
  8.425543E-01
  8.334145E-01
  8.237882E-01
  8.141664E-01
  8.040834E-01
  7.938937E-01
  7.833916E-01
  7.726621E-01
  7.616958E-01
  7.504503E-01
  7.389869E-01
  7.272529E-01
  7.152835E-01
  7.031094E-01
  6.906533E-01
  6.780874E-01
  6.651714E-01
  6.521413E-01
  6.389061E-01
  6.254402E-01
  6.118277E-01
  5.980257E-01
  5.839654E-01
  5.697075E-01
  5.552338E-01
  5.405456E-01
  5.257290E-01
  5.113118E-01
  4.984234E-01
  4.888681E-01
  4.856807E-01
  4.957503E-01
  5.105138E-01
  4.819598E-01
  5.141088E-01
  1.495228E-01
  8.236971E-07
  1.087945E+00
  1.087880E+00
  1.087816E+00
  1.087751E+00
  1.087687E+00
  1.087622E+00
  1.087558E+00
  1.087493E+00
  1.087428E+00
  1.087339E+00
  1.087249E+00
  1.087159E+00
  1.087068E+00
  1.086978E+00
  1.086888E+00
  1.086798E+00
  1.086750E+00
  1.086793E+00
  1.086835E+00
  1.086878E+00
  1.086921E+00
  1.086963E+00
  1.087006E+00
  1.087056E+00
  1.087211E+00
  1.087367E+00
  1.087522E+00
  1.087677E+00
  1.087833E+00
  1.087988E+00
  1.088147E+00
  1.088321E+00
  1.088494E+00
  1.088668E+00
  1.088842E+00
  1.089016E+00
  1.089190E+00
  1.089362E+00
  1.089531E+00
  1.089701E+00
  1.089870E+00
  1.090041E+00
  1.090211E+00
  1.090375E+00
  1.090530E+00
  1.090686E+00
  1.090842E+00
  1.090998E+00
  1.091155E+00
  1.091241E+00
  1.091254E+00
  1.091269E+00
  1.091283E+00
  1.091299E+00
  1.091314E+00
  1.091035E+00
  1.090716E+00
  1.090397E+00
  1.090078E+00
  1.089760E+00
  1.089229E+00
  1.088521E+00
  1.087813E+00
  1.087105E+00
  1.086398E+00
  1.085517E+00
  1.084448E+00
  1.083379E+00
  1.082310E+00
  1.081242E+00
  1.079959E+00
  1.078570E+00
  1.077180E+00
  1.075791E+00
  1.074383E+00
  1.072793E+00
  1.071203E+00
  1.069613E+00
  1.068024E+00
  1.066221E+00
  1.064345E+00
  1.062471E+00
  1.060597E+00
  1.058242E+00
  1.055594E+00
  1.052946E+00
  1.050297E+00
  1.046790E+00
  1.042915E+00
  1.039040E+00
  1.035164E+00
  1.029860E+00
  1.024522E+00
  1.019185E+00
  1.013026E+00
  1.005812E+00
  9.986032E-01
  9.912424E-01
  9.819614E-01
  9.726951E-01
  9.634433E-01
  9.530411E-01
  9.425060E-01
  9.319934E-01
  9.213393E-01
  9.106809E-01
  9.000470E-01
  8.899485E-01
  8.798895E-01
  8.700723E-01
  8.610212E-01
  8.519848E-01
  8.437548E-01
  8.360056E-01
  8.284808E-01
  8.221324E-01
  8.157875E-01
  8.105441E-01
  8.055625E-01
  8.012869E-01
  7.975268E-01
  7.941532E-01
  7.912354E-01
  7.884756E-01
  7.859127E-01
  7.833924E-01
  7.809126E-01
  7.784329E-01
  7.759618E-01
  7.735380E-01
  7.711973E-01
  7.689973E-01
  7.671508E-01
  7.656362E-01
  7.646302E-01
  7.646095E-01
  7.655606E-01
  7.678138E-01
  7.718897E-01
  7.789421E-01
  7.916163E-01
  8.139664E-01
  8.529823E-01
  9.201986E-01
  1.038690E+00
  1.194086E+00
  1.271401E+00
  1.498038E+00
  6.694997E-01
  4.285863E-06
  1.260730E+00
  1.260503E+00
  1.260277E+00
  1.260050E+00
  1.259824E+00
  1.259597E+00
  1.259371E+00
  1.259144E+00
  1.258917E+00
  1.258279E+00
  1.257624E+00
  1.256969E+00
  1.256313E+00
  1.255658E+00
  1.255003E+00
  1.254348E+00
  1.253572E+00
  1.252542E+00
  1.251513E+00
  1.250483E+00
  1.249454E+00
  1.248424E+00
  1.247395E+00
  1.246337E+00
  1.244885E+00
  1.243434E+00
  1.241982E+00
  1.240531E+00
  1.239079E+00
  1.237628E+00
  1.236088E+00
  1.234126E+00
  1.232164E+00
  1.230203E+00
  1.228241E+00
  1.226279E+00
  1.224318E+00
  1.222013E+00
  1.219502E+00
  1.216991E+00
  1.214480E+00
  1.211969E+00
  1.209459E+00
  1.206739E+00
  1.203710E+00
  1.200681E+00
  1.197653E+00
  1.194624E+00
  1.191596E+00
  1.188343E+00
  1.184860E+00
  1.181378E+00
  1.177895E+00
  1.174412E+00
  1.170930E+00
  1.167105E+00
  1.163232E+00
  1.159360E+00
  1.155488E+00
  1.151616E+00
  1.147556E+00
  1.143340E+00
  1.139124E+00
  1.134907E+00
  1.130691E+00
  1.126286E+00
  1.121675E+00
  1.117075E+00
  1.112464E+00
  1.107853E+00
  1.102923E+00
  1.097831E+00
  1.092739E+00
  1.087647E+00
  1.082515E+00
  1.076993E+00
  1.071471E+00
  1.065949E+00
  1.060426E+00
  1.054653E+00
  1.048796E+00
  1.042938E+00
  1.037080E+00
  1.031027E+00
  1.024855E+00
  1.018683E+00
  1.012511E+00
  1.006237E+00
  9.999205E-01
  9.936042E-01
  9.872884E-01
  9.811241E-01
  9.749648E-01
  9.688069E-01
  9.627219E-01
  9.567319E-01
  9.507452E-01
  9.447524E-01
  9.386525E-01
  9.325599E-01
  9.264678E-01
  9.201421E-01
  9.137949E-01
  9.074596E-01
  9.007330E-01
  8.939488E-01
  8.871792E-01
  8.795334E-01
  8.718715E-01
  8.639234E-01
  8.549698E-01
  8.460298E-01
  8.361677E-01
  8.257602E-01
  8.151276E-01
  8.032277E-01
  7.913355E-01
  7.782916E-01
  7.649782E-01
  7.509673E-01
  7.364475E-01
  7.215268E-01
  7.061338E-01
  6.905099E-01
  6.745999E-01
  6.585971E-01
  6.425144E-01
  6.265469E-01
  6.106269E-01
  5.951934E-01
  5.800515E-01
  5.654339E-01
  5.516883E-01
  5.385898E-01
  5.264042E-01
  5.155988E-01
  5.058966E-01
  4.975146E-01
  4.907878E-01
  4.865778E-01
  4.872018E-01
  4.966302E-01
  5.219111E-01
  5.736018E-01
  6.685158E-01
  7.863656E-01
  8.184268E-01
  8.831032E-01
 -1.891361E-03
  1.434739E-11
  9.724415E-01
  9.723066E-01
  9.721717E-01
  9.720367E-01
  9.719018E-01
  9.717669E-01
  9.716320E-01
  9.714971E-01
  9.713621E-01
  9.709715E-01
  9.705703E-01
  9.701691E-01
  9.697679E-01
  9.693666E-01
  9.689654E-01
  9.685642E-01
  9.680855E-01
  9.674438E-01
  9.668022E-01
  9.661606E-01
  9.655189E-01
  9.648773E-01
  9.642357E-01
  9.635778E-01
  9.626919E-01
  9.618060E-01
  9.609201E-01
  9.600342E-01
  9.591483E-01
  9.582624E-01
  9.573305E-01
  9.561794E-01
  9.550285E-01
  9.538775E-01
  9.527265E-01
  9.515756E-01
  9.504246E-01
  9.491006E-01
  9.476728E-01
  9.462450E-01
  9.448172E-01
  9.433895E-01
  9.419618E-01
  9.404219E-01
  9.387167E-01
  9.370116E-01
  9.353065E-01
  9.336014E-01
  9.318964E-01
  9.300505E-01
  9.280604E-01
  9.260704E-01
  9.240805E-01
  9.220906E-01
  9.201007E-01
  9.178477E-01
  9.155589E-01
  9.132700E-01
  9.109813E-01
  9.086926E-01
  9.062379E-01
  9.036454E-01
  9.010530E-01
  8.984606E-01
  8.958683E-01
  8.931234E-01
  8.902127E-01
  8.873020E-01
  8.843913E-01
  8.814807E-01
  8.783376E-01
  8.750776E-01
  8.718176E-01
  8.685577E-01
  8.652638E-01
  8.616360E-01
  8.580082E-01
  8.543805E-01
  8.507528E-01
  8.468471E-01
  8.428479E-01
  8.388487E-01
  8.348496E-01
  8.306204E-01
  8.262507E-01
  8.218812E-01
  8.175119E-01
  8.129040E-01
  8.081942E-01
  8.034846E-01
  7.987754E-01
  7.937836E-01
  7.887852E-01
  7.837875E-01
  7.786723E-01
  7.734062E-01
  7.681413E-01
  7.628573E-01
  7.573265E-01
  7.517983E-01
  7.462724E-01
  7.405384E-01
  7.347799E-01
  7.290253E-01
  7.230597E-01
  7.170602E-01
  7.110654E-01
  7.047531E-01
  6.984344E-01
  6.920284E-01
  6.853147E-01
  6.786059E-01
  6.716244E-01
  6.644822E-01
  6.572728E-01
  6.496803E-01
  6.420913E-01
  6.341393E-01
  6.261034E-01
  6.178216E-01
  6.093608E-01
  6.007134E-01
  5.918462E-01
  5.828071E-01
  5.735547E-01
  5.641166E-01
  5.545169E-01
  5.446948E-01
  5.347858E-01
  5.246005E-01
  5.143249E-01
  5.038873E-01
  4.932674E-01
  4.825315E-01
  4.716459E-01
  4.605562E-01
  4.493104E-01
  4.378942E-01
  4.263086E-01
  4.146214E-01
  4.032491E-01
  3.930823E-01
  3.855440E-01
  3.830275E-01
  3.909656E-01
  4.026051E-01
  3.800831E-01
  4.054323E-01
  1.443252E-01
  5.331538E-02
  5.290044E-02
  5.289730E-02
  5.289416E-02
  5.289102E-02
  5.288788E-02
  5.288475E-02
  5.288161E-02
  5.287847E-02
  5.287533E-02
  5.287099E-02
  5.286660E-02
  5.286222E-02
  5.285783E-02
  5.285345E-02
  5.284906E-02
  5.284468E-02
  5.284237E-02
  5.284445E-02
  5.284652E-02
  5.284860E-02
  5.285068E-02
  5.285275E-02
  5.285483E-02
  5.285728E-02
  5.286484E-02
  5.287239E-02
  5.287995E-02
  5.288752E-02
  5.289509E-02
  5.290266E-02
  5.291038E-02
  5.291883E-02
  5.292729E-02
  5.293575E-02
  5.294421E-02
  5.295269E-02
  5.296117E-02
  5.296950E-02
  5.297774E-02
  5.298600E-02
  5.299427E-02
  5.300255E-02
  5.301085E-02
  5.301884E-02
  5.302639E-02
  5.303397E-02
  5.304156E-02
  5.304916E-02
  5.305679E-02
  5.306098E-02
  5.306166E-02
  5.306236E-02
  5.306309E-02
  5.306383E-02
  5.306459E-02
  5.305102E-02
  5.303551E-02
  5.302001E-02
  5.300453E-02
  5.298907E-02
  5.296324E-02
  5.292880E-02
  5.289437E-02
  5.285996E-02
  5.282556E-02
  5.278274E-02
  5.273075E-02
  5.267878E-02
  5.262682E-02
  5.257487E-02
  5.251251E-02
  5.244493E-02
  5.237737E-02
  5.230982E-02
  5.224137E-02
  5.216403E-02
  5.208671E-02
  5.200940E-02
  5.193212E-02
  5.184442E-02
  5.175324E-02
  5.166207E-02
  5.157093E-02
  5.145642E-02
  5.132764E-02
  5.119886E-02
  5.107008E-02
  5.089954E-02
  5.071111E-02
  5.052266E-02
  5.033419E-02
  5.007633E-02
  4.981677E-02
  4.955725E-02
  4.925779E-02
  4.890703E-02
  4.855655E-02
  4.819865E-02
  4.774739E-02
  4.729684E-02
  4.684697E-02
  4.634116E-02
  4.582886E-02
  4.531765E-02
  4.479953E-02
  4.428119E-02
  4.376403E-02
  4.327289E-02
  4.278367E-02
  4.230620E-02
  4.186598E-02
  4.142648E-02
  4.102621E-02
  4.064933E-02
  4.028336E-02
  3.997464E-02
  3.966609E-02
  3.941114E-02
  3.916893E-02
  3.896108E-02
  3.877831E-02
  3.861436E-02
  3.847258E-02
  3.833850E-02
  3.821399E-02
  3.809156E-02
  3.797109E-02
  3.785062E-02
  3.773056E-02
  3.761278E-02
  3.749903E-02
  3.739210E-02
  3.730234E-02
  3.722869E-02
  3.717974E-02
  3.717868E-02
  3.722484E-02
  3.733429E-02
  3.753234E-02
  3.787509E-02
  3.849116E-02
  3.957767E-02
  4.147448E-02
  4.474240E-02
  5.050335E-02
  5.805855E-02
  6.181713E-02
  7.283577E-02
  3.984224E-02
  1.710338E-02
  1.775827E-01
  1.775508E-01
  1.775189E-01
  1.774870E-01
  1.774551E-01
  1.774232E-01
  1.773912E-01
  1.773593E-01
  1.773274E-01
  1.772375E-01
  1.771452E-01
  1.770530E-01
  1.769607E-01
  1.768684E-01
  1.767761E-01
  1.766838E-01
  1.765745E-01
  1.764295E-01
  1.762845E-01
  1.761395E-01
  1.759945E-01
  1.758495E-01
  1.757045E-01
  1.755556E-01
  1.753511E-01
  1.751467E-01
  1.749423E-01
  1.747379E-01
  1.745334E-01
  1.743290E-01
  1.741121E-01
  1.738358E-01
  1.735595E-01
  1.732832E-01
  1.730069E-01
  1.727306E-01
  1.724543E-01
  1.721297E-01
  1.717760E-01
  1.714224E-01
  1.710688E-01
  1.707151E-01
  1.703615E-01
  1.699784E-01
  1.695518E-01
  1.691253E-01
  1.686987E-01
  1.682722E-01
  1.678456E-01
  1.673874E-01
  1.668969E-01
  1.664064E-01
  1.659158E-01
  1.654253E-01
  1.649348E-01
  1.643960E-01
  1.638506E-01
  1.633052E-01
  1.627598E-01
  1.622144E-01
  1.616425E-01
  1.610486E-01
  1.604547E-01
  1.598608E-01
  1.592670E-01
  1.586465E-01
  1.579970E-01
  1.573490E-01
  1.566996E-01
  1.560501E-01
  1.553555E-01
  1.546383E-01
  1.539210E-01
  1.532038E-01
  1.524809E-01
  1.517031E-01
  1.509252E-01
  1.501474E-01
  1.493695E-01
  1.485562E-01
  1.477311E-01
  1.469060E-01
  1.460809E-01
  1.452282E-01
  1.443588E-01
  1.434893E-01
  1.426199E-01
  1.417362E-01
  1.408465E-01
  1.399567E-01
  1.390671E-01
  1.381988E-01
  1.373313E-01
  1.364639E-01
  1.356068E-01
  1.347632E-01
  1.339199E-01
  1.330759E-01
  1.322167E-01
  1.313586E-01
  1.305005E-01
  1.296094E-01
  1.287152E-01
  1.278227E-01
  1.268750E-01
  1.259192E-01
  1.249654E-01
  1.238881E-01
  1.228086E-01
  1.216887E-01
  1.204272E-01
  1.191676E-01
  1.177782E-01
  1.163120E-01
  1.148141E-01
  1.131378E-01
  1.114626E-01
  1.096253E-01
  1.077501E-01
  1.057767E-01
  1.037317E-01
  1.016303E-01
  9.946238E-02
  9.726196E-02
  9.502122E-02
  9.276742E-02
  9.050233E-02
  8.825345E-02
  8.601123E-02
  8.383748E-02
  8.170477E-02
  7.964586E-02
  7.770974E-02
  7.586469E-02
  7.414819E-02
  7.262605E-02
  7.125926E-02
  7.007839E-02
  6.913062E-02
  6.853732E-02
  6.862487E-02
  6.995249E-02
  7.351293E-02
  8.079315E-02
  9.416126E-02
  1.107596E-01
  1.152743E-01
  1.243826E-01
 -3.260575E-04
  1.658605E-07
  9.726321E-01
  9.724972E-01
  9.723623E-01
  9.722274E-01
  9.720925E-01
  9.719576E-01
  9.718226E-01
  9.716877E-01
  9.715528E-01
  9.711622E-01
  9.707611E-01
  9.703599E-01
  9.699587E-01
  9.695576E-01
  9.691564E-01
  9.687553E-01
  9.682766E-01
  9.676351E-01
  9.669936E-01
  9.663521E-01
  9.657106E-01
  9.650691E-01
  9.644276E-01
  9.637698E-01
  9.628841E-01