 Title= "ADflow Lift Distribution Data"
Variables = "eta" "CoordinateX" "CoordinateY" "CoordinateZ" "Lift" "Drag" "Moment" "Normalized Lift" "Normalized Drag" "Normalized Moment" "CL" "CD" "CM" "CLp" "CDp" "CMp" "CLv" "CDv" "CMv" "Elliptical" "thickness" "twist" "chord" "fx" "fy" "fz" 
Zone T= "LiftDist_01 allWalls: : z normal"
 I=          150
 DATAPACKING=BLOCK
  0.000000E+00
  6.711405E-03
  1.342281E-02
  2.013422E-02
  2.684563E-02
  3.355704E-02
  4.026845E-02
  4.697986E-02
  5.369127E-02
  6.040268E-02
  6.711409E-02
  7.382550E-02
  8.053691E-02
  8.724832E-02
  9.395973E-02
  1.006711E-01
  1.073825E-01
  1.140940E-01
  1.208054E-01
  1.275168E-01
  1.342282E-01
  1.409396E-01
  1.476510E-01
  1.543624E-01
  1.610738E-01
  1.677852E-01
  1.744966E-01
  1.812081E-01
  1.879195E-01
  1.946309E-01
  2.013423E-01
  2.080537E-01
  2.147651E-01
  2.214765E-01
  2.281879E-01
  2.348993E-01
  2.416107E-01
  2.483221E-01
  2.550336E-01
  2.617450E-01
  2.684564E-01
  2.751678E-01
  2.818792E-01
  2.885906E-01
  2.953020E-01
  3.020134E-01
  3.087248E-01
  3.154362E-01
  3.221476E-01
  3.288591E-01
  3.355705E-01
  3.422819E-01
  3.489933E-01
  3.557047E-01
  3.624161E-01
  3.691275E-01
  3.758389E-01
  3.825503E-01
  3.892617E-01
  3.959732E-01
  4.026846E-01
  4.093960E-01
  4.161074E-01
  4.228188E-01
  4.295302E-01
  4.362416E-01
  4.429530E-01
  4.496644E-01
  4.563758E-01
  4.630872E-01
  4.697987E-01
  4.765101E-01
  4.832215E-01
  4.899329E-01
  4.966443E-01
  5.033557E-01
  5.100671E-01
  5.167785E-01
  5.234899E-01
  5.302013E-01
  5.369128E-01
  5.436242E-01
  5.503356E-01
  5.570470E-01
  5.637584E-01
  5.704698E-01
  5.771812E-01
  5.838926E-01
  5.906040E-01
  5.973154E-01
  6.040268E-01
  6.107383E-01
  6.174497E-01
  6.241611E-01
  6.308725E-01
  6.375839E-01
  6.442953E-01
  6.510067E-01
  6.577181E-01
  6.644295E-01
  6.711409E-01
  6.778524E-01
  6.845638E-01
  6.912752E-01
  6.979866E-01
  7.046980E-01
  7.114094E-01
  7.181208E-01
  7.248322E-01
  7.315436E-01
  7.382550E-01
  7.449664E-01
  7.516779E-01
  7.583893E-01
  7.651007E-01
  7.718121E-01
  7.785235E-01
  7.852349E-01
  7.919463E-01
  7.986577E-01
  8.053691E-01
  8.120805E-01
  8.187919E-01
  8.255034E-01
  8.322148E-01
  8.389262E-01
  8.456376E-01
  8.523490E-01
  8.590604E-01
  8.657718E-01
  8.724832E-01
  8.791946E-01
  8.859060E-01
  8.926175E-01
  8.993289E-01
  9.060403E-01
  9.127517E-01
  9.194631E-01
  9.261745E-01
  9.328859E-01
  9.395973E-01
  9.463087E-01
  9.530201E-01
  9.597315E-01
  9.664430E-01
  9.731544E-01
  9.798658E-01
  9.865772E-01
  9.932886E-01
  1.000000E+00
  0.000000E+00
  0.000000E+00
  0.000000E+00
  0.000000E+00
  0.000000E+00
  0.000000E+00
  0.000000E+00
  0.000000E+00
  0.000000E+00
  0.000000E+00
  0.000000E+00
  0.000000E+00
  0.000000E+00
  0.000000E+00
  0.000000E+00
  0.000000E+00
  0.000000E+00
  0.000000E+00
  0.000000E+00
  0.000000E+00
  0.000000E+00
  0.000000E+00
  0.000000E+00
  0.000000E+00
  0.000000E+00
  0.000000E+00
  0.000000E+00
  0.000000E+00
  0.000000E+00
  0.000000E+00
  0.000000E+00
  0.000000E+00
  0.000000E+00
  0.000000E+00
  0.000000E+00
  0.000000E+00
  0.000000E+00
  0.000000E+00
  0.000000E+00
  0.000000E+00
  0.000000E+00
  0.000000E+00
  0.000000E+00
  0.000000E+00
  0.000000E+00
  0.000000E+00
  0.000000E+00
  0.000000E+00
  0.000000E+00
  0.000000E+00
  0.000000E+00
  0.000000E+00
  0.000000E+00
  0.000000E+00
  0.000000E+00
  0.000000E+00
  0.000000E+00
  0.000000E+00
  0.000000E+00
  0.000000E+00
  0.000000E+00
  0.000000E+00
  0.000000E+00
  0.000000E+00
  0.000000E+00
  0.000000E+00
  0.000000E+00
  0.000000E+00
  0.000000E+00
  0.000000E+00
  0.000000E+00
  0.000000E+00
  0.000000E+00
  0.000000E+00
  0.000000E+00
  0.000000E+00
  0.000000E+00
  0.000000E+00
  0.000000E+00
  0.000000E+00
  0.000000E+00
  0.000000E+00
  0.000000E+00
  0.000000E+00
  0.000000E+00
  0.000000E+00
  0.000000E+00
  0.000000E+00
  0.000000E+00
  0.000000E+00
  0.000000E+00
  0.000000E+00
  0.000000E+00
  0.000000E+00
  0.000000E+00
  0.000000E+00
  0.000000E+00
  0.000000E+00
  0.000000E+00
  0.000000E+00
  0.000000E+00
  0.000000E+00
  0.000000E+00
  0.000000E+00
  0.000000E+00
  0.000000E+00
  0.000000E+00
  0.000000E+00
  0.000000E+00
  0.000000E+00
  0.000000E+00
  0.000000E+00
  0.000000E+00
  0.000000E+00
  0.000000E+00
  0.000000E+00
  0.000000E+00
  0.000000E+00
  0.000000E+00
  0.000000E+00
  0.000000E+00
  0.000000E+00
  0.000000E+00
  0.000000E+00
  0.000000E+00
  0.000000E+00
  0.000000E+00
  0.000000E+00
  0.000000E+00
  0.000000E+00
  0.000000E+00
  0.000000E+00
  0.000000E+00
  0.000000E+00
  0.000000E+00
  0.000000E+00
  0.000000E+00
  0.000000E+00
  0.000000E+00
  0.000000E+00
  0.000000E+00
  0.000000E+00
  0.000000E+00
  0.000000E+00
  0.000000E+00
  0.000000E+00
  0.000000E+00
  0.000000E+00
  0.000000E+00
  0.000000E+00
  0.000000E+00
  0.000000E+00
  0.000000E+00
  0.000000E+00
  0.000000E+00
  0.000000E+00
  0.000000E+00
  0.000000E+00
  0.000000E+00
  0.000000E+00
  0.000000E+00
  0.000000E+00
  0.000000E+00
  0.000000E+00
  0.000000E+00
  0.000000E+00
  0.000000E+00
  0.000000E+00
  0.000000E+00
  0.000000E+00
  0.000000E+00
  0.000000E+00
  0.000000E+00
  0.000000E+00
  0.000000E+00
  0.000000E+00
  0.000000E+00
  0.000000E+00
  0.000000E+00
  0.000000E+00
  0.000000E+00
  0.000000E+00
  0.000000E+00
  0.000000E+00
  0.000000E+00
  0.000000E+00
  0.000000E+00
  0.000000E+00
  0.000000E+00
  0.000000E+00
  0.000000E+00
  0.000000E+00
  0.000000E+00
  0.000000E+00
  0.000000E+00
  0.000000E+00
  0.000000E+00
  0.000000E+00
  0.000000E+00
  0.000000E+00
  0.000000E+00
  0.000000E+00
  0.000000E+00
  0.000000E+00
  0.000000E+00
  0.000000E+00
  0.000000E+00
  0.000000E+00
  0.000000E+00
  0.000000E+00
  0.000000E+00
  0.000000E+00
  0.000000E+00
  0.000000E+00
  0.000000E+00
  0.000000E+00
  0.000000E+00
  0.000000E+00
  0.000000E+00
  0.000000E+00
  0.000000E+00
  0.000000E+00
  0.000000E+00
  0.000000E+00
  0.000000E+00
  0.000000E+00
  0.000000E+00
  0.000000E+00
  0.000000E+00
  0.000000E+00
  0.000000E+00
  0.000000E+00
  0.000000E+00
  0.000000E+00
  0.000000E+00
  0.000000E+00
  0.000000E+00
  0.000000E+00
  0.000000E+00
  0.000000E+00
  0.000000E+00
  0.000000E+00
  0.000000E+00
  0.000000E+00
  0.000000E+00
  0.000000E+00
  0.000000E+00
  0.000000E+00
  0.000000E+00
  0.000000E+00
  0.000000E+00
  0.000000E+00
  0.000000E+00
  0.000000E+00
  0.000000E+00
  0.000000E+00
  0.000000E+00
  0.000000E+00
  0.000000E+00
  0.000000E+00
  0.000000E+00
  0.000000E+00
  0.000000E+00
  0.000000E+00
  0.000000E+00
  0.000000E+00
  0.000000E+00
  0.000000E+00
  0.000000E+00
  0.000000E+00
  0.000000E+00
  0.000000E+00
  0.000000E+00
  0.000000E+00
  0.000000E+00
  0.000000E+00
  0.000000E+00
  0.000000E+00
  0.000000E+00
  0.000000E+00
  0.000000E+00
  0.000000E+00
  0.000000E+00
  0.000000E+00
  0.000000E+00
  0.000000E+00
  0.000000E+00
  0.000000E+00
  0.000000E+00
  0.000000E+00
  0.000000E+00
  0.000000E+00
  0.000000E+00
  0.000000E+00
  0.000000E+00
  0.000000E+00
  0.000000E+00
  0.000000E+00
  0.000000E+00
  0.000000E+00
  1.000000E-08
  1.691809E-02
  3.383618E-02
  5.075427E-02
  6.767237E-02
  8.459046E-02
  1.015085E-01
  1.184266E-01
  1.353447E-01
  1.522628E-01
  1.691809E-01
  1.860990E-01
  2.030171E-01
  2.199352E-01
  2.368533E-01
  2.537714E-01
  2.706895E-01
  2.876076E-01
  3.045256E-01
  3.214437E-01
  3.383618E-01
  3.552799E-01
  3.721980E-01
  3.891161E-01
  4.060342E-01
  4.229523E-01
  4.398704E-01
  4.567885E-01
  4.737066E-01
  4.906247E-01
  5.075427E-01
  5.244608E-01
  5.413789E-01
  5.582970E-01
  5.752151E-01
  5.921332E-01
  6.090513E-01
  6.259694E-01
  6.428875E-01
  6.598056E-01
  6.767237E-01
  6.936418E-01
  7.105598E-01
  7.274779E-01
  7.443960E-01
  7.613141E-01
  7.782322E-01
  7.951503E-01
  8.120684E-01
  8.289865E-01
  8.459046E-01
  8.628227E-01
  8.797408E-01
  8.966589E-01
  9.135769E-01
  9.304950E-01
  9.474131E-01
  9.643312E-01
  9.812493E-01
  9.981674E-01
  1.015085E+00
  1.032004E+00
  1.048922E+00
  1.065840E+00
  1.082758E+00
  1.099676E+00
  1.116594E+00
  1.133512E+00
  1.150430E+00
  1.167348E+00
  1.184266E+00
  1.201185E+00
  1.218103E+00
  1.235021E+00
  1.251939E+00
  1.268857E+00
  1.285775E+00
  1.302693E+00
  1.319611E+00
  1.336529E+00
  1.353447E+00
  1.370365E+00
  1.387284E+00
  1.404202E+00
  1.421120E+00
  1.438038E+00
  1.454956E+00
  1.471874E+00
  1.488792E+00
  1.505710E+00
  1.522628E+00
  1.539546E+00
  1.556464E+00
  1.573383E+00
  1.590301E+00
  1.607219E+00
  1.624137E+00
  1.641055E+00
  1.657973E+00
  1.674891E+00
  1.691809E+00
  1.708727E+00
  1.725645E+00
  1.742563E+00
  1.759482E+00
  1.776400E+00
  1.793318E+00
  1.810236E+00
  1.827154E+00
  1.844072E+00
  1.860990E+00
  1.877908E+00
  1.894826E+00
  1.911744E+00
  1.928662E+00
  1.945581E+00
  1.962499E+00
  1.979417E+00
  1.996335E+00
  2.013253E+00
  2.030171E+00
  2.047089E+00
  2.064007E+00
  2.080925E+00
  2.097843E+00
  2.114761E+00
  2.131680E+00
  2.148598E+00
  2.165516E+00
  2.182434E+00
  2.199352E+00
  2.216270E+00
  2.233188E+00
  2.250106E+00
  2.267024E+00
  2.283942E+00
  2.300860E+00
  2.317779E+00
  2.334697E+00
  2.351615E+00
  2.368533E+00
  2.385451E+00
  2.402369E+00
  2.419287E+00
  2.436205E+00
  2.453123E+00
  2.470041E+00
  2.486959E+00
  2.503878E+00
  2.520796E+00
  1.098093E+04
  1.097941E+04
  1.097790E+04
  1.097638E+04
  1.097486E+04
  1.097334E+04
  1.097182E+04
  1.097030E+04
  1.096878E+04
  1.096439E+04
  1.095987E+04
  1.095536E+04
  1.095085E+04
  1.094633E+04
  1.094182E+04
  1.093730E+04
  1.093192E+04
  1.092470E+04
  1.091748E+04
  1.091026E+04
  1.090305E+04
  1.089583E+04
  1.088861E+04
  1.088121E+04
  1.087125E+04
  1.086128E+04
  1.085132E+04
  1.084136E+04
  1.083139E+04
  1.082143E+04
  1.081094E+04
  1.079800E+04
  1.078505E+04
  1.077210E+04
  1.075915E+04
  1.074620E+04
  1.073326E+04
  1.071836E+04
  1.070228E+04
  1.068621E+04
  1.067014E+04
  1.065407E+04
  1.063800E+04
  1.062066E+04
  1.060145E+04
  1.058223E+04
  1.056302E+04
  1.054381E+04
  1.052460E+04
  1.050379E+04
  1.048134E+04
  1.045889E+04
  1.043644E+04
  1.041400E+04
  1.039155E+04
  1.036611E+04
  1.034026E+04
  1.031442E+04
  1.028857E+04
  1.026273E+04
  1.023500E+04
  1.020569E+04
  1.017639E+04
  1.014708E+04
  1.011778E+04
  1.008674E+04
  1.005381E+04
  1.002089E+04
  9.987963E+03
  9.955039E+03
  9.919482E+03
  9.882602E+03
  9.845723E+03
  9.808845E+03
  9.771583E+03
  9.730553E+03
  9.689524E+03
  9.648495E+03
  9.607467E+03
  9.563310E+03
  9.518100E+03
  9.472892E+03
  9.427684E+03
  9.379894E+03
  9.330529E+03
  9.281165E+03
  9.231804E+03
  9.179769E+03
  9.126593E+03
  9.073420E+03
  9.020250E+03
  8.963911E+03
  8.907499E+03
  8.851095E+03
  8.793374E+03
  8.733963E+03
  8.674566E+03
  8.614955E+03
  8.552570E+03
  8.490216E+03
  8.427891E+03
  8.363200E+03
  8.298234E+03
  8.233313E+03
  8.165976E+03
  8.098254E+03
  8.030587E+03
  7.959302E+03
  7.887947E+03
  7.815602E+03
  7.739767E+03
  7.663987E+03
  7.585123E+03
  7.504439E+03
  7.422995E+03
  7.337225E+03
  7.251494E+03
  7.161670E+03
  7.070900E+03
  6.977357E+03
  6.881798E+03
  6.784137E+03
  6.683998E+03
  6.581919E+03
  6.477430E+03
  6.370836E+03
  6.262411E+03
  6.151458E+03
  6.039520E+03
  5.924439E+03
  5.808335E+03
  5.690390E+03
  5.570375E+03
  5.449044E+03
  5.326013E+03
  5.200666E+03
  5.073548E+03
  4.944501E+03
  4.813537E+03
  4.681431E+03
  4.552899E+03
  4.438011E+03
  4.352842E+03
  4.324425E+03
  4.414153E+03
  4.545805E+03
  4.291944E+03
  4.579052E+03
  1.331534E+03
  7.309601E-03
  5.972756E+02
  5.972401E+02
  5.972046E+02
  5.971691E+02
  5.971336E+02
  5.970981E+02
  5.970626E+02
  5.970271E+02
  5.969916E+02
  5.969424E+02
  5.968927E+02
  5.968429E+02
  5.967932E+02
  5.967435E+02
  5.966938E+02
  5.966441E+02
  5.966177E+02
  5.966404E+02
  5.966630E+02
  5.966857E+02
  5.967084E+02
  5.967311E+02
  5.967539E+02
  5.967807E+02
  5.968640E+02
  5.969474E+02
  5.970308E+02
  5.971142E+02
  5.971977E+02
  5.972812E+02
  5.973661E+02
  5.974576E+02
  5.975491E+02
  5.976407E+02
  5.977324E+02
  5.978242E+02
  5.979160E+02
  5.980044E+02
  5.980909E+02
  5.981775E+02
  5.982642E+02
  5.983511E+02
  5.984381E+02
  5.985208E+02
  5.985973E+02
  5.986739E+02
  5.987507E+02
  5.988278E+02
  5.989050E+02
  5.989443E+02
  5.989447E+02
  5.989454E+02
  5.989463E+02
  5.989474E+02
  5.989488E+02
  5.987936E+02
  5.986173E+02
  5.984412E+02
  5.982653E+02
  5.980896E+02
  5.978002E+02
  5.974165E+02
  5.970329E+02
  5.966495E+02
  5.962663E+02
  5.957895E+02
  5.952112E+02
  5.946330E+02
  5.940550E+02
  5.934771E+02
  5.927817E+02
  5.920272E+02
  5.912728E+02
  5.905187E+02
  5.897541E+02
  5.888844E+02
  5.880150E+02
  5.871458E+02
  5.862769E+02
  5.852867E+02
  5.842559E+02
  5.832254E+02
  5.821952E+02
  5.809038E+02
  5.794529E+02
  5.780020E+02
  5.765511E+02
  5.746395E+02
  5.725305E+02
  5.704213E+02
  5.683118E+02
  5.654419E+02
  5.625533E+02
  5.596651E+02
  5.563404E+02
  5.524552E+02
  5.485729E+02
  5.446093E+02
  5.396221E+02
  5.346427E+02
  5.296709E+02
  5.240773E+02
  5.184115E+02
  5.127579E+02
  5.070109E+02
  5.012586E+02
  4.955194E+02
  4.900380E+02
  4.845767E+02
  4.792374E+02
  4.742829E+02
  4.693363E+02
  4.648023E+02
  4.605144E+02
  4.563427E+02
  4.527796E+02
  4.492184E+02
  4.462315E+02
  4.433810E+02
  4.409033E+02
  4.386976E+02
  4.367001E+02
  4.349479E+02
  4.332846E+02
  4.317320E+02
  4.302095E+02
  4.287148E+02
  4.272323E+02
  4.257586E+02
  4.243303E+02
  4.229543E+02
  4.216684E+02
  4.205923E+02
  4.197080E+02
  4.191155E+02
  4.190792E+02
  4.195864E+02
  4.208189E+02
  4.230628E+02
  4.269527E+02
  4.339415E+02
  4.462549E+02
  4.677325E+02
  5.047100E+02
  5.698592E+02
  6.553106E+02
  6.979972E+02
  8.226153E+02
  3.681096E+02
  2.342266E-03
  2.005695E+03
  2.005340E+03
  2.004985E+03
  2.004630E+03
  2.004275E+03
  2.003921E+03
  2.003566E+03
  2.003211E+03
  2.002856E+03
  2.001857E+03
  2.000832E+03
  1.999807E+03
  1.998781E+03
  1.997756E+03
  1.996731E+03
  1.995706E+03
  1.994492E+03
  1.992883E+03
  1.991274E+03
  1.989664E+03
  1.988055E+03
  1.986446E+03
  1.984837E+03
  1.983183E+03
  1.980913E+03
  1.978642E+03
  1.976371E+03
  1.974101E+03
  1.971830E+03
  1.969560E+03
  1.967149E+03
  1.964074E+03
  1.960999E+03
  1.957924E+03
  1.954849E+03
  1.951773E+03
  1.948698E+03
  1.945077E+03
  1.941127E+03
  1.937178E+03
  1.933229E+03
  1.929280E+03
  1.925331E+03
  1.921043E+03
  1.916257E+03
  1.911470E+03
  1.906684E+03
  1.901898E+03
  1.897112E+03
  1.891954E+03
  1.886417E+03
  1.880880E+03
  1.875343E+03
  1.869806E+03
  1.864269E+03
  1.858152E+03
  1.851955E+03
  1.845759E+03
  1.839562E+03
  1.833366E+03
  1.826846E+03
  1.820058E+03
  1.813270E+03
  1.806482E+03
  1.799694E+03
  1.792588E+03
  1.785136E+03
  1.777685E+03
  1.770249E+03
  1.762798E+03
  1.754824E+03
  1.746588E+03
  1.738352E+03
  1.730115E+03
  1.721815E+03
  1.712890E+03
  1.703965E+03
  1.695039E+03
  1.686114E+03
  1.676793E+03
  1.667340E+03
  1.657887E+03
  1.648434E+03
  1.638679E+03
  1.628740E+03
  1.618801E+03
  1.608862E+03
  1.598772E+03
  1.588617E+03
  1.578463E+03
  1.568310E+03
  1.558407E+03
  1.548512E+03
  1.538619E+03
  1.528848E+03
  1.519234E+03
  1.509626E+03
  1.500010E+03
  1.490245E+03
  1.480491E+03
  1.470738E+03
  1.460636E+03
  1.450502E+03
  1.440386E+03
  1.429670E+03
  1.418865E+03
  1.408083E+03
  1.395938E+03
  1.383768E+03
  1.371150E+03
  1.356962E+03
  1.342795E+03
  1.327185E+03
  1.310720E+03
  1.293902E+03
  1.275097E+03
  1.256303E+03
  1.235697E+03
  1.214666E+03
  1.192533E+03
  1.169597E+03
  1.146029E+03
  1.121715E+03
  1.097038E+03
  1.071910E+03
  1.046633E+03
  1.021228E+03
  9.959987E+02
  9.708425E+02
  9.464456E+02
  9.225061E+02
  8.993889E+02
  8.776422E+02
  8.569129E+02
  8.376198E+02
  8.204991E+02
  8.051167E+02
  7.918171E+02
  7.811336E+02
  7.744398E+02
  7.754304E+02
  7.904308E+02
  8.306602E+02
  9.129250E+02
  1.064029E+03
  1.251773E+03
  1.303130E+03
  1.406662E+03
 -2.001677E+00
  2.273422E-08
  1.232923E+00
  1.232752E+00
  1.232582E+00
  1.232411E+00
  1.232241E+00
  1.232070E+00
  1.231900E+00
  1.231729E+00
  1.231559E+00
  1.231065E+00
  1.230558E+00
  1.230052E+00
  1.229545E+00
  1.229038E+00
  1.228531E+00
  1.228024E+00
  1.227419E+00
  1.226609E+00
  1.225799E+00
  1.224988E+00
  1.224178E+00
  1.223368E+00
  1.222557E+00
  1.221726E+00
  1.220608E+00
  1.219489E+00
  1.218370E+00
  1.217251E+00
  1.216133E+00
  1.215014E+00
  1.213837E+00
  1.212383E+00
  1.210929E+00
  1.209475E+00
  1.208022E+00
  1.206568E+00
  1.205114E+00
  1.203441E+00
  1.201637E+00
  1.199832E+00
  1.198028E+00
  1.196223E+00
  1.194419E+00
  1.192472E+00
  1.190315E+00
  1.188158E+00
  1.186000E+00
  1.183843E+00
  1.181686E+00
  1.179350E+00
  1.176829E+00
  1.174309E+00
  1.171788E+00
  1.169268E+00
  1.166748E+00
  1.163892E+00
  1.160990E+00
  1.158088E+00
  1.155186E+00
  1.152284E+00
  1.149170E+00
  1.145880E+00
  1.142589E+00
  1.139299E+00
  1.136009E+00
  1.132524E+00
  1.128827E+00
  1.125130E+00
  1.121434E+00
  1.117737E+00
  1.113745E+00
  1.109604E+00
  1.105463E+00
  1.101323E+00
  1.097139E+00
  1.092532E+00
  1.087925E+00
  1.083319E+00
  1.078712E+00
  1.073754E+00
  1.068678E+00
  1.063602E+00
  1.058526E+00
  1.053161E+00
  1.047618E+00
  1.042075E+00
  1.036533E+00
  1.030691E+00
  1.024720E+00
  1.018750E+00
  1.012780E+00
  1.006455E+00
  1.000121E+00
  9.937878E-01
  9.873070E-01
  9.806364E-01
  9.739674E-01
  9.672743E-01
  9.602699E-01
  9.532689E-01
  9.462711E-01
  9.390077E-01
  9.317134E-01
  9.244242E-01
  9.168637E-01
  9.092599E-01
  9.016624E-01
  8.936586E-01
  8.856470E-01
  8.775242E-01
  8.690096E-01
  8.605011E-01
  8.516463E-01
  8.425873E-01
  8.334429E-01
  8.238128E-01
  8.141870E-01
  8.041017E-01
  7.939101E-01
  7.834074E-01
  7.726781E-01
  7.617129E-01
  7.504694E-01
  7.390081E-01
  7.272763E-01
  7.153081E-01
  7.031343E-01
  6.906766E-01
  6.781083E-01
  6.651873E-01
  6.521512E-01
  6.389085E-01
  6.254334E-01
  6.118106E-01
  5.979969E-01
  5.839230E-01
  5.696505E-01
  5.551612E-01
  5.404568E-01
  5.256242E-01
  5.111928E-01
  4.982933E-01
  4.887306E-01
  4.855401E-01
  4.956146E-01
  5.103962E-01
  4.818931E-01
  5.141292E-01
  1.495027E-01
  8.207111E-07
  1.087724E+00
  1.087659E+00
  1.087595E+00
  1.087530E+00
  1.087465E+00
  1.087401E+00
  1.087336E+00
  1.087271E+00
  1.087207E+00
  1.087117E+00
  1.087027E+00
  1.086936E+00
  1.086845E+00
  1.086755E+00
  1.086664E+00
  1.086574E+00
  1.086526E+00
  1.086567E+00
  1.086608E+00
  1.086650E+00
  1.086691E+00
  1.086732E+00
  1.086774E+00
  1.086823E+00
  1.086974E+00
  1.087126E+00
  1.087278E+00
  1.087430E+00
  1.087582E+00
  1.087734E+00
  1.087889E+00
  1.088055E+00
  1.088222E+00
  1.088389E+00
  1.088556E+00
  1.088723E+00
  1.088890E+00
  1.089051E+00
  1.089209E+00
  1.089366E+00
  1.089524E+00
  1.089683E+00
  1.089841E+00
  1.089992E+00
  1.090131E+00
  1.090270E+00
  1.090410E+00
  1.090551E+00
  1.090691E+00
  1.090763E+00
  1.090764E+00
  1.090765E+00
  1.090766E+00
  1.090769E+00
  1.090771E+00
  1.090488E+00
  1.090167E+00
  1.089847E+00
  1.089526E+00
  1.089206E+00
  1.088679E+00
  1.087980E+00
  1.087282E+00
  1.086584E+00
  1.085886E+00
  1.085018E+00
  1.083964E+00
  1.082911E+00
  1.081859E+00
  1.080806E+00
  1.079540E+00
  1.078166E+00
  1.076792E+00
  1.075419E+00
  1.074026E+00
  1.072442E+00
  1.070859E+00
  1.069276E+00
  1.067694E+00
  1.065890E+00
  1.064013E+00
  1.062137E+00
  1.060260E+00
  1.057909E+00
  1.055266E+00
  1.052624E+00
  1.049982E+00
  1.046500E+00
  1.042660E+00
  1.038818E+00
  1.034977E+00
  1.029750E+00
  1.024490E+00
  1.019230E+00
  1.013175E+00
  1.006100E+00
  9.990293E-01
  9.918111E-01
  9.827287E-01
  9.736605E-01
  9.646062E-01
  9.544194E-01
  9.441013E-01
  9.338051E-01
  9.233392E-01
  9.128634E-01
  9.024114E-01
  8.924289E-01
  8.824832E-01
  8.727596E-01
  8.637367E-01
  8.547283E-01
  8.464712E-01
  8.386623E-01
  8.310652E-01
  8.245761E-01
  8.180907E-01
  8.126511E-01
  8.074599E-01
  8.029477E-01
  7.989308E-01
  7.952931E-01
  7.921021E-01
  7.890730E-01
  7.862455E-01
  7.834728E-01
  7.807507E-01
  7.780509E-01
  7.753671E-01
  7.727659E-01
  7.702600E-01
  7.679182E-01
  7.659584E-01
  7.643480E-01
  7.632690E-01
  7.632029E-01
  7.641266E-01
  7.663712E-01
  7.704577E-01
  7.775416E-01
  7.902693E-01
  8.126938E-01
  8.518075E-01
  9.191488E-01
  1.037795E+00
  1.193414E+00
  1.271152E+00
  1.498100E+00
  6.703801E-01
  4.265600E-06
  1.261075E+00
  1.260852E+00
  1.260629E+00
  1.260406E+00
  1.260183E+00
  1.259959E+00
  1.259736E+00
  1.259513E+00
  1.259290E+00
  1.258662E+00
  1.258017E+00
  1.257373E+00
  1.256728E+00
  1.256084E+00
  1.255439E+00
  1.254794E+00
  1.254031E+00
  1.253020E+00
  1.252008E+00
  1.250996E+00
  1.249984E+00
  1.248972E+00
  1.247961E+00
  1.246921E+00
  1.245493E+00
  1.244066E+00
  1.242638E+00
  1.241210E+00
  1.239783E+00
  1.238355E+00
  1.236840E+00
  1.234906E+00
  1.232973E+00
  1.231039E+00
  1.229106E+00
  1.227172E+00
  1.225239E+00
  1.222961E+00
  1.220478E+00
  1.217995E+00
  1.215512E+00
  1.213029E+00
  1.210546E+00
  1.207851E+00
  1.204841E+00
  1.201832E+00
  1.198822E+00
  1.195813E+00
  1.192804E+00
  1.189561E+00
  1.186079E+00
  1.182598E+00
  1.179117E+00
  1.175635E+00
  1.172154E+00
  1.168308E+00
  1.164412E+00
  1.160516E+00
  1.156620E+00
  1.152724E+00
  1.148625E+00
  1.144357E+00
  1.140089E+00
  1.135821E+00
  1.131553E+00
  1.127085E+00
  1.122400E+00
  1.117714E+00
  1.113039E+00
  1.108354E+00
  1.103341E+00
  1.098162E+00
  1.092984E+00
  1.087805E+00
  1.082587E+00
  1.076975E+00
  1.071363E+00
  1.065751E+00
  1.060139E+00
  1.054279E+00
  1.048335E+00
  1.042392E+00
  1.036448E+00
  1.030315E+00
  1.024066E+00
  1.017817E+00
  1.011568E+00
  1.005223E+00
  9.988387E-01
  9.924545E-01
  9.860707E-01
  9.798441E-01
  9.736227E-01
  9.674024E-01
  9.612586E-01
  9.552144E-01
  9.491733E-01
  9.431272E-01
  9.369874E-01
  9.308547E-01
  9.247226E-01
  9.183707E-01
  9.119990E-01
  9.056389E-01
  8.989008E-01
  8.921074E-01
  8.853284E-01
  8.776920E-01
  8.700401E-01
  8.621071E-01
  8.531862E-01
  8.442788E-01
  8.344636E-01
  8.241115E-01
  8.135376E-01
  8.017136E-01
  7.898972E-01
  7.769409E-01
  7.637178E-01
  7.498020E-01
  7.353810E-01
  7.205625E-01
  7.052755E-01
  6.897597E-01
  6.739603E-01
  6.580674E-01
  6.420940E-01
  6.262314E-01
  6.104145E-01
  5.950750E-01
  5.800231E-01
  5.654883E-01
  5.518151E-01
  5.387816E-01
  5.266511E-01
  5.158866E-01
  5.062149E-01
  4.978528E-01
  4.911356E-01
  4.869269E-01
  4.875497E-01
  4.969812E-01
  5.222753E-01
  5.739991E-01
  6.690053E-01
  7.870487E-01
  8.193394E-01
  8.844348E-01
 -1.258549E-03
  1.429408E-11
  9.723683E-01
  9.722339E-01
  9.720994E-01
  9.719650E-01
  9.718305E-01
  9.716961E-01
  9.715616E-01
  9.714272E-01
  9.712927E-01
  9.709035E-01
  9.705038E-01
  9.701041E-01
  9.697044E-01
  9.693048E-01
  9.689051E-01
  9.685054E-01
  9.680285E-01
  9.673895E-01
  9.667505E-01
  9.661114E-01
  9.654724E-01
  9.648334E-01
  9.641944E-01
  9.635392E-01
  9.626570E-01
  9.617747E-01
  9.608925E-01
  9.600103E-01
  9.591281E-01
  9.582459E-01
  9.573178E-01
  9.561714E-01
  9.550250E-01
  9.538786E-01
  9.527322E-01
  9.515858E-01
  9.504395E-01
  9.491202E-01
  9.476972E-01
  9.462742E-01
  9.448513E-01
  9.434284E-01
  9.420056E-01
  9.404702E-01
  9.387690E-01
  9.370678E-01
  9.353667E-01
  9.336657E-01
  9.319647E-01
  9.301219E-01
  9.281342E-01
  9.261465E-01
  9.241589E-01
  9.221714E-01
  9.201839E-01
  9.179314E-01
  9.156427E-01
  9.133541E-01
  9.110656E-01
  9.087771E-01
  9.063212E-01
  9.037263E-01
  9.011314E-01
  8.985365E-01
  8.959417E-01
  8.931931E-01
  8.902775E-01
  8.873620E-01
  8.844465E-01
  8.815310E-01
  8.783824E-01
  8.751166E-01
  8.718509E-01
  8.685852E-01
  8.652855E-01
  8.616522E-01
  8.580189E-01
  8.543856E-01
  8.507524E-01
  8.468421E-01
  8.428385E-01
  8.388350E-01
  8.348317E-01
  8.305996E-01
  8.262280E-01
  8.218566E-01
  8.174854E-01
  8.128775E-01
  8.081686E-01
  8.034600E-01
  7.987517E-01
  7.937630E-01
  7.887678E-01
  7.837733E-01
  7.786623E-01
  7.734017E-01
  7.681424E-01
  7.628641E-01
  7.573403E-01
  7.518190E-01
  7.463002E-01
  7.405715E-01
  7.348182E-01
  7.290688E-01
  7.231051E-01
  7.171070E-01
  7.111136E-01
  7.047997E-01
  6.984794E-01
  6.920713E-01
  6.853545E-01
  6.786423E-01
  6.716573E-01
  6.645114E-01
  6.572982E-01
  6.497027E-01
  6.421106E-01
  6.341567E-01
  6.261192E-01
  6.178367E-01
  6.093759E-01
  6.007293E-01
  5.918634E-01
  5.828259E-01
  5.735750E-01
  5.641378E-01
  5.545383E-01
  5.447148E-01
  5.348038E-01
  5.246145E-01
  5.143342E-01
  5.038907E-01
  4.932635E-01
  4.825195E-01
  4.716246E-01
  4.605243E-01
  4.492670E-01
  4.378385E-01
  4.262401E-01
  4.145403E-01
  4.031568E-01
  3.929812E-01
  3.854371E-01
  3.829181E-01
  3.908602E-01
  4.025141E-01
  3.800321E-01
  4.054501E-01
  1.443063E-01
  5.312401E-02
  5.288912E-02
  5.288598E-02
  5.288283E-02
  5.287969E-02
  5.287655E-02
  5.287341E-02
  5.287026E-02
  5.286712E-02
  5.286398E-02
  5.285963E-02
  5.285523E-02
  5.285083E-02
  5.284642E-02
  5.284202E-02
  5.283762E-02
  5.283322E-02
  5.283089E-02
  5.283290E-02
  5.283492E-02
  5.283693E-02
  5.283895E-02
  5.284096E-02
  5.284298E-02
  5.284536E-02
  5.285274E-02
  5.286013E-02
  5.286753E-02
  5.287492E-02
  5.288232E-02
  5.288972E-02
  5.289725E-02
  5.290536E-02
  5.291347E-02
  5.292159E-02
  5.292972E-02
  5.293785E-02
  5.294599E-02
  5.295383E-02
  5.296150E-02
  5.296918E-02
  5.297687E-02
  5.298457E-02
  5.299228E-02
  5.299962E-02
  5.300640E-02
  5.301320E-02
  5.302001E-02
  5.302684E-02
  5.303369E-02
  5.303718E-02
  5.303722E-02
  5.303729E-02
  5.303738E-02
  5.303748E-02
  5.303761E-02
  5.302388E-02
  5.300827E-02
  5.299268E-02
  5.297711E-02
  5.296156E-02
  5.293594E-02
  5.290196E-02
  5.286799E-02
  5.283404E-02
  5.280011E-02
  5.275790E-02
  5.270669E-02
  5.265549E-02
  5.260430E-02
  5.255313E-02
  5.249155E-02
  5.242473E-02
  5.235793E-02
  5.229115E-02
  5.222344E-02
  5.214642E-02
  5.206942E-02
  5.199245E-02
  5.191550E-02
  5.182781E-02
  5.173652E-02
  5.164525E-02
  5.155401E-02
  5.143965E-02
  5.131116E-02
  5.118267E-02
  5.105417E-02
  5.088489E-02
  5.069813E-02
  5.051135E-02
  5.032454E-02
  5.007042E-02
  4.981465E-02
  4.955891E-02
  4.926452E-02
  4.892050E-02
  4.857674E-02
  4.822578E-02
  4.778418E-02
  4.734326E-02
  4.690302E-02
  4.640768E-02
  4.590594E-02
  4.540526E-02
  4.489631E-02
  4.438686E-02
  4.387856E-02
  4.339308E-02
  4.290937E-02
  4.243646E-02
  4.199763E-02
  4.155950E-02
  4.115792E-02
  4.077814E-02
  4.040866E-02
  4.009310E-02
  3.977772E-02
  3.951322E-02
  3.926082E-02
  3.904146E-02
  3.884620E-02
  3.866940E-02
  3.851434E-02
  3.836715E-02
  3.822977E-02
  3.809507E-02
  3.796282E-02
  3.783164E-02
  3.770123E-02
  3.757483E-02
  3.745305E-02
  3.733922E-02
  3.724396E-02
  3.716565E-02
  3.711316E-02
  3.710989E-02
  3.715473E-02
  3.726376E-02
  3.746233E-02
  3.780662E-02
  3.842529E-02
  3.951541E-02
  4.141696E-02
  4.469094E-02
  5.045935E-02
  5.802532E-02
  6.180447E-02
  7.283810E-02
  3.989423E-02
  1.702289E-02
  1.776055E-01
  1.775741E-01
  1.775427E-01
  1.775113E-01
  1.774798E-01
  1.774484E-01
  1.774170E-01
  1.773856E-01
  1.773541E-01
  1.772657E-01
  1.771749E-01
  1.770842E-01
  1.769934E-01
  1.769026E-01
  1.768118E-01
  1.767211E-01
  1.766136E-01
  1.764711E-01
  1.763286E-01
  1.761862E-01
  1.760437E-01
  1.759012E-01
  1.757587E-01
  1.756123E-01
  1.754113E-01
  1.752102E-01
  1.750092E-01
  1.748081E-01
  1.746071E-01
  1.744061E-01
  1.741927E-01
  1.739204E-01
  1.736481E-01
  1.733758E-01
  1.731035E-01
  1.728312E-01
  1.725590E-01
  1.722383E-01
  1.718886E-01
  1.715389E-01
  1.711893E-01
  1.708396E-01
  1.704899E-01
  1.701103E-01
  1.696865E-01
  1.692627E-01
  1.688389E-01
  1.684151E-01
  1.679913E-01
  1.675346E-01
  1.670443E-01
  1.665540E-01
  1.660638E-01
  1.655735E-01
  1.650832E-01
  1.645415E-01
  1.639928E-01
  1.634441E-01
  1.628955E-01
  1.623468E-01
  1.617695E-01
  1.611684E-01
  1.605673E-01
  1.599662E-01
  1.593651E-01
  1.587359E-01
  1.580760E-01
  1.574162E-01
  1.567578E-01
  1.560979E-01
  1.553918E-01
  1.546625E-01
  1.539332E-01
  1.532038E-01
  1.524688E-01
  1.516785E-01
  1.508881E-01
  1.500977E-01
  1.493073E-01
  1.484820E-01
  1.476448E-01
  1.468077E-01
  1.459706E-01
  1.451068E-01
  1.442266E-01
  1.433465E-01
  1.424663E-01
  1.415728E-01
  1.406736E-01
  1.397745E-01
  1.388754E-01
  1.379984E-01
  1.371223E-01
  1.362462E-01
  1.353810E-01
  1.345298E-01
  1.336791E-01
  1.328276E-01
  1.319630E-01
  1.310993E-01
  1.302357E-01
  1.293411E-01
  1.284436E-01
  1.275478E-01
  1.265986E-01
  1.256417E-01
  1.246867E-01
  1.236109E-01
  1.225329E-01
  1.214153E-01
  1.201587E-01
  1.189039E-01
  1.175213E-01
  1.160631E-01
  1.145737E-01
  1.129083E-01
  1.112441E-01
  1.094194E-01
  1.075571E-01
  1.055974E-01
  1.035666E-01
  1.014798E-01
  9.932713E-02
  9.714223E-02
  9.491738E-02
  9.267936E-02
  9.042998E-02
  8.819619E-02
  8.596880E-02
  8.380861E-02
  8.168889E-02
  7.964194E-02
  7.771629E-02
  7.588069E-02
  7.417220E-02
  7.265604E-02
  7.129376E-02
  7.011588E-02
  6.916960E-02
  6.857657E-02
  6.866395E-02
  6.999183E-02
  7.355362E-02
  8.083746E-02
  9.421663E-02
  1.108398E-01
  1.153862E-01
  1.245522E-01
 -2.169337E-04
  1.652256E-07
  9.725588E-01
  9.724243E-01
  9.722899E-01
  9.721554E-01
  9.720210E-01
  9.718866E-01
  9.717521E-01
  9.716177E-01
  9.714832E-01
  9.710941E-01
  9.706945E-01
  9.702948E-01
  9.698952E-01
  9.694955E-01
  9.690959E-01
  9.686962E-01
  9.682194E-01
  9.675805E-01
  9.669417E-01
  9.663028E-01
  9.656639E-01
  9.650250E-01
  9.643861E-01
  9.637311E-01
  9.628490E-01