 Title = "ADflow Slice Data"
Variables =  "CoordinateX"  "CoordinateY"  "CoordinateZ"  "XoC"  "YoC"  "ZoC" "VelocityX" "VelocityY" "VelocityZ" "CoefPressure" "Mach" 
Zone T= "Slice_0001 None Relative Regular z = 0.10000000"
 Nodes =          116  Elements=          112  ZONETYPE=FELINESEG
 DATAPACKING=POINT
  9.900000E-01  1.240911E-02  1.000000E-01  9.999929E-01  3.763321E-03  5.609703E-17  3.321636E-02 -2.608514E-02 -2.359552E-04 -8.421140E-03  0.000000E+00
  9.844789E-01  1.405908E-02  1.000000E-01  9.944135E-01  5.430702E-03 -1.402426E-17  2.196232E-02 -6.670397E-03 -2.152383E-04  3.640193E-02  0.000000E+00
  9.782622E-01  1.592211E-02  1.000000E-01  9.881312E-01  7.313400E-03  2.804852E-17  1.165540E-02 -3.451217E-03 -1.709340E-04  5.899470E-03  0.000000E+00
  9.712761E-01  1.803550E-02  1.000000E-01  9.810714E-01  9.449090E-03  0.000000E+00  7.532995E-03 -2.267234E-03 -1.376095E-04 -1.114234E-02  0.000000E+00
  9.634271E-01  2.036720E-02  1.000000E-01  9.731396E-01  1.180540E-02  9.816981E-17  7.041937E-03 -2.058713E-03 -1.222191E-04 -3.552274E-02  0.000000E+00
  9.546204E-01  2.290359E-02  1.000000E-01  9.642399E-01  1.436856E-02  4.207277E-17  8.254461E-03 -2.322952E-03 -1.193902E-04 -6.421907E-02  0.000000E+00
  9.447561E-01  2.562619E-02  1.000000E-01  9.542715E-01  1.711990E-02  5.609703E-17  1.011942E-02 -2.729534E-03 -1.226508E-04 -9.473082E-02  0.000000E+00
  9.337360E-01  2.853855E-02  1.000000E-01  9.431351E-01  2.006299E-02  4.207277E-17  1.216922E-02 -3.138362E-03 -1.281548E-04 -1.274924E-01  0.000000E+00
  9.214586E-01  3.163489E-02  1.000000E-01  9.307281E-01  2.319202E-02  5.609703E-17  1.425672E-02 -3.505827E-03 -1.343261E-04 -1.619891E-01  0.000000E+00
  9.078232E-01  3.490837E-02  1.000000E-01  9.169488E-01  2.650004E-02  4.207277E-17  1.632911E-02 -3.817957E-03 -1.404577E-04 -1.980688E-01  0.000000E+00
  8.927319E-01  3.834853E-02  1.000000E-01  9.016982E-01  2.997652E-02  5.609703E-17  1.831328E-02 -4.047247E-03 -1.459855E-04 -2.333628E-01  0.000000E+00
  8.760894E-01  4.191716E-02  1.000000E-01  8.848801E-01  3.358280E-02  5.609703E-17  2.009757E-02 -4.179540E-03 -1.504508E-04 -2.659608E-01  0.000000E+00
  8.578153E-01  4.560346E-02  1.000000E-01  8.664131E-01  3.730801E-02  5.188975E-16  2.160717E-02 -4.231164E-03 -1.537644E-04 -2.949372E-01  0.000000E+00
  8.378441E-01  4.939925E-02  1.000000E-01  8.462312E-01  4.114386E-02  5.188975E-16  2.285153E-02 -4.237067E-03 -1.561589E-04 -3.208674E-01  0.000000E+00
  8.161333E-01  5.332244E-02  1.000000E-01  8.242912E-01  4.510847E-02  2.804852E-17  2.392716E-02 -4.248711E-03 -1.578761E-04 -3.492543E-01  0.000000E+00
  7.926668E-01  5.741039E-02  1.000000E-01  8.005770E-01  4.923956E-02  5.609703E-17  2.501979E-02 -4.283734E-03 -1.591877E-04 -3.849482E-01  0.000000E+00
  7.674503E-01  6.164763E-02  1.000000E-01  7.750943E-01  5.352151E-02  8.414555E-17  2.630418E-02 -4.299646E-03 -1.603540E-04 -4.263805E-01  0.000000E+00
  7.405094E-01  6.592747E-02  1.000000E-01  7.478691E-01  5.784652E-02  4.908490E-16  2.779855E-02 -4.244339E-03 -1.613505E-04 -4.681413E-01  0.000000E+00
  7.119026E-01  7.012188E-02  1.000000E-01  7.189603E-01  6.208521E-02  4.207277E-17  2.935669E-02 -4.101494E-03 -1.618616E-04 -5.057474E-01  0.000000E+00
  6.817298E-01  7.413356E-02  1.000000E-01  6.884692E-01  6.613923E-02  2.804852E-17  3.079673E-02 -3.892198E-03 -1.615440E-04 -5.386701E-01  0.000000E+00
  6.501347E-01  7.791983E-02  1.000000E-01  6.565406E-01  6.996546E-02  8.414555E-17  3.202929E-02 -3.664500E-03 -1.601631E-04 -5.719130E-01  0.000000E+00
  6.173024E-01  8.149472E-02  1.000000E-01  6.233618E-01  7.357808E-02  5.609703E-17  3.313732E-02 -3.434589E-03 -1.578036E-04 -6.095957E-01  0.000000E+00
  5.834550E-01  8.482330E-02  1.000000E-01  5.891571E-01  7.694179E-02  9.816981E-17  3.429953E-02 -3.166929E-03 -1.548027E-04 -6.506763E-01  0.000000E+00
  5.488457E-01  8.780990E-02  1.000000E-01  5.541826E-01  7.995991E-02  8.414555E-17  3.562010E-02 -2.844013E-03 -1.512898E-04 -6.945505E-01  0.000000E+00
  5.137559E-01  9.038471E-02  1.000000E-01  5.187224E-01  8.256190E-02  1.402426E-16  3.712061E-02 -2.463311E-03 -1.472217E-04 -7.413521E-01  0.000000E+00
  4.784836E-01  9.247910E-02  1.000000E-01  4.830778E-01  8.467839E-02  8.414555E-17  3.879708E-02 -2.006630E-03 -1.426086E-04 -7.897424E-01  0.000000E+00
  4.433339E-01  9.403067E-02  1.000000E-01  4.475571E-01  8.624633E-02  8.414555E-17  4.062915E-02 -1.456459E-03 -1.374843E-04 -8.388387E-01  0.000000E+00
  4.086096E-01  9.499018E-02  1.000000E-01  4.124664E-01  8.721597E-02 -1.402426E-17  4.259739E-02 -8.090108E-04 -1.318404E-04 -8.900585E-01  0.000000E+00
  3.746012E-01  9.534357E-02  1.000000E-01  3.780991E-01  8.757309E-02  9.816981E-17  4.472395E-02 -5.326900E-05 -1.256733E-04 -9.454448E-01  0.000000E+00
  3.415766E-01  9.508074E-02  1.000000E-01  3.447259E-01  8.730749E-02  5.609703E-17  4.708529E-02  8.639922E-04 -1.190910E-04 -1.003623E+00  0.000000E+00
  3.097730E-01  9.417021E-02  1.000000E-01  3.125866E-01  8.638735E-02  4.207277E-17  4.971739E-02  2.005165E-03 -1.121909E-04 -1.060996E+00  0.000000E+00
  2.793901E-01  9.259375E-02  1.000000E-01  2.818831E-01  8.479425E-02  8.414555E-17  5.254660E-02  3.402300E-03 -1.049528E-04 -1.114530E+00  0.000000E+00
  2.505887E-01  9.036165E-02  1.000000E-01  2.527776E-01  8.253859E-02  4.768248E-16  5.541262E-02  5.050568E-03 -9.729676E-05 -1.161922E+00  0.000000E+00
  2.234888E-01  8.752337E-02  1.000000E-01  2.253918E-01  7.967036E-02  5.609703E-17  5.817118E-02  6.969371E-03 -8.931801E-05 -1.197480E+00  0.000000E+00
  1.981749E-01  8.410913E-02  1.000000E-01  1.998107E-01  7.622008E-02  4.207277E-17  6.063642E-02  9.132814E-03 -8.120345E-05 -1.215489E+00  0.000000E+00
  1.746916E-01  8.019900E-02  1.000000E-01  1.760795E-01  7.226868E-02  4.768248E-16  6.258998E-02  1.145019E-02 -7.314261E-05 -1.213207E+00  0.000000E+00
  1.530489E-01  7.587648E-02  1.000000E-01  1.542084E-01  6.790055E-02  5.329218E-16  6.386456E-02  1.378793E-02 -6.531490E-05 -1.192064E+00  0.000000E+00
  1.332206E-01  7.126326E-02  1.000000E-01  1.341708E-01  6.323863E-02  9.816981E-17  6.443079E-02  1.604367E-02 -5.786682E-05 -1.156434E+00  0.000000E+00
  1.151568E-01  6.645589E-02  1.000000E-01  1.159164E-01  5.838052E-02  4.207277E-17  6.438285E-02  1.817368E-02 -5.088347E-05 -1.111789E+00  0.000000E+00
  9.878428E-02  6.155385E-02  1.000000E-01  9.937106E-02  5.342674E-02  5.609703E-17  6.383085E-02  2.015627E-02 -4.432570E-05 -1.063276E+00  0.000000E+00
  8.401632E-02  5.663367E-02  1.000000E-01  8.444723E-02  4.845464E-02  5.609703E-17  6.290807E-02  2.212361E-02 -3.823581E-05 -1.005952E+00  0.000000E+00
  7.076936E-02  5.171471E-02  1.000000E-01  7.106045E-02  4.348376E-02  2.804852E-17  6.149939E-02  2.400231E-02 -3.258149E-05 -9.357197E-01  0.000000E+00
  5.893902E-02  4.685795E-02  1.000000E-01  5.910526E-02  3.857575E-02  9.816981E-17  5.938468E-02  2.559737E-02 -2.734007E-05 -8.491215E-01  0.000000E+00
  4.842597E-02  4.209477E-02  1.000000E-01  4.848125E-02  3.376229E-02 -1.402426E-17  5.641114E-02  2.666660E-02 -2.253845E-05 -7.476137E-01  0.000000E+00
  3.911374E-02  3.749217E-02  1.000000E-01  3.907073E-02  2.911111E-02  2.804852E-17  5.253404E-02  2.695129E-02 -1.811825E-05 -6.456534E-01  0.000000E+00
  3.088812E-02  3.309740E-02  1.000000E-01  3.075830E-02  2.466996E-02  2.804852E-17  4.788628E-02  2.639370E-02 -1.396644E-05 -5.627791E-01  0.000000E+00
  2.363417E-02  2.895512E-02  1.000000E-01  2.342779E-02  2.048396E-02  1.262183E-16  4.265976E-02  2.524381E-02 -1.008144E-05 -4.934742E-01  0.000000E+00
  1.726952E-02  2.504507E-02  1.000000E-01  1.699596E-02  1.653264E-02  4.207277E-17  3.674726E-02  2.396505E-02 -6.830170E-06 -3.811819E-01  0.000000E+00
  1.179184E-02  2.122096E-02  1.000000E-01  1.146047E-02  1.266817E-02  2.804852E-17  2.946265E-02  2.111315E-02 -4.272812E-06 -2.744882E-01  0.000000E+00
  7.008801E-03  1.767705E-02  1.000000E-01  6.626949E-03  9.086863E-03  1.121941E-16  2.075673E-02  1.670539E-02 -2.173133E-06 -1.942430E-01  0.000000E+00
  9.900000E-01  1.198598E-02  1.000000E-01  9.999929E-01  3.335728E-03  5.609703E-17  6.549261E-02  6.851631E-03  1.646048E-04  3.045111E-02  0.000000E+00
  9.900000E-01  1.202370E-02  1.000000E-01  9.999929E-01  3.373842E-03  8.414555E-17  4.379745E-02 -3.321999E-03  4.059866E-05 -1.438310E-01  0.000000E+00
  9.900000E-01  1.208079E-02  1.000000E-01  9.999929E-01  3.431539E-03  5.609703E-17  3.544795E-03 -5.306087E-02 -1.113893E-04 -9.477367E-02  0.000000E+00
  9.900000E-01  1.215606E-02  1.000000E-01  9.999929E-01  3.507596E-03  5.609703E-17 -1.264390E-02 -4.528866E-02 -2.154025E-04 -4.139677E-02  0.000000E+00
  9.900000E-01  1.223904E-02  1.000000E-01  9.999929E-01  3.591453E-03  8.414555E-17 -7.933894E-03 -4.604628E-03 -2.293080E-04 -5.474862E-02  0.000000E+00
  9.900000E-01  1.231430E-02  1.000000E-01  9.999929E-01  3.667510E-03  8.414555E-17  6.201111E-03 -1.881504E-03 -1.909624E-04 -8.471625E-02  0.000000E+00
  9.900000E-01  1.237139E-02  1.000000E-01  9.999929E-01  3.725207E-03  5.609703E-17  2.657957E-02 -2.870330E-02 -2.035037E-04 -1.002335E-01  0.000000E+00
  9.900000E-01  1.240911E-02  1.000000E-01  9.999929E-01  3.763321E-03  8.414555E-17  3.321636E-02 -2.608514E-02 -2.359552E-04 -8.421140E-03  0.000000E+00
  7.008801E-03  5.708300E-03  1.000000E-01  6.626949E-03 -3.008212E-03  9.816981E-17  2.075890E-02 -4.815493E-03  2.732347E-05  5.914748E-01  0.000000E+00
  1.236474E-02  4.567940E-03  1.000000E-01  1.203942E-02 -4.160608E-03  0.000000E+00  2.276106E-02 -3.617902E-03  3.089211E-05  6.027868E-01  0.000000E+00
  1.851796E-02  3.854433E-03  1.000000E-01  1.825758E-02 -4.881645E-03  1.262183E-16  2.515872E-02 -2.359015E-03  3.377921E-05  4.721060E-01  0.000000E+00
  2.549652E-02  3.365248E-03  1.000000E-01  2.530979E-02 -5.375993E-03  7.012129E-17  2.697702E-02 -1.359913E-03  3.740759E-05  4.103274E-01  0.000000E+00
  3.337042E-02  3.113586E-03  1.000000E-01  3.326679E-02 -5.630311E-03 -9.816981E-17  2.829602E-02 -5.904282E-04  4.085573E-05  3.875390E-01  0.000000E+00
  4.221327E-02  3.018665E-03  1.000000E-01  4.220298E-02 -5.726234E-03  5.609703E-17  2.911791E-02 -7.841027E-05  4.359591E-05  3.712880E-01  0.000000E+00
  5.211509E-02  3.065773E-03  1.000000E-01  5.220930E-02 -5.678629E-03 -5.609703E-17  2.946854E-02  2.935603E-04  4.575117E-05  3.530869E-01  0.000000E+00
  6.316987E-02  3.231755E-03  1.000000E-01  6.338076E-02 -5.510895E-03  2.804852E-17  2.956588E-02  5.175240E-04  4.767404E-05  3.398696E-01  0.000000E+00
  7.547353E-02  3.475075E-03  1.000000E-01  7.581427E-02 -5.265008E-03  1.262183E-16  2.955698E-02  6.458885E-04  4.952656E-05  3.287726E-01  0.000000E+00
  8.912494E-02  3.798107E-03  1.000000E-01  8.960976E-02 -4.938566E-03  0.000000E+00  2.946103E-02  7.465928E-04  5.137478E-05  3.164627E-01  0.000000E+00
  1.042203E-01  4.202978E-03  1.000000E-01  1.048644E-01 -4.529422E-03  5.609703E-17  2.927017E-02  8.362892E-04  5.327295E-05  3.045135E-01  0.000000E+00
  1.208505E-01  4.704339E-03  1.000000E-01  1.216702E-01 -4.022769E-03  9.816981E-17  2.899012E-02  9.071550E-04  5.524647E-05  2.945072E-01  0.000000E+00
  1.390959E-01  5.293160E-03  1.000000E-01  1.401082E-01 -3.427734E-03  5.188975E-16  2.864657E-02  9.474376E-04  5.730495E-05  2.867962E-01  0.000000E+00
  1.590234E-01  5.964239E-03  1.000000E-01  1.602459E-01 -2.749572E-03  4.908490E-16  2.826825E-02  9.657461E-04  5.944523E-05  2.799342E-01  0.000000E+00
  1.806810E-01  6.710863E-03  1.000000E-01  1.821322E-01 -1.995068E-03  8.414555E-17  2.791869E-02  9.538119E-04  6.170145E-05  2.741466E-01  0.000000E+00
  2.040935E-01  7.499206E-03  1.000000E-01  2.057917E-01 -1.198405E-03  2.804852E-17  2.767898E-02  9.065712E-04  6.411641E-05  2.689772E-01  0.000000E+00
  2.292572E-01  8.295308E-03  1.000000E-01  2.312210E-01 -3.939001E-04  1.262183E-16  2.761729E-02  8.271524E-04  6.673921E-05  2.629377E-01  0.000000E+00
  2.561364E-01  9.050212E-03  1.000000E-01  2.583839E-01  3.689710E-04  5.469461E-16  2.775902E-02  7.205511E-04  6.962343E-05  2.549188E-01  0.000000E+00
  2.846592E-01  9.724870E-03  1.000000E-01  2.872077E-01  1.050750E-03  5.609703E-17  2.803170E-02  6.225038E-04  7.275598E-05  2.432837E-01  0.000000E+00
  3.147147E-01  1.034309E-02  1.000000E-01  3.175805E-01  1.675490E-03  9.816981E-17  2.825667E-02  6.002360E-04  7.602069E-05  2.274657E-01  0.000000E+00
  3.461514E-01  1.102513E-02  1.000000E-01  3.493489E-01  2.364733E-03  5.609703E-17  2.821359E-02  7.170676E-04  7.921566E-05  2.095306E-01  0.000000E+00
  3.787768E-01  1.196989E-02  1.000000E-01  3.823187E-01  3.319467E-03  5.609703E-17  2.777246E-02  9.644077E-04  8.216509E-05  1.950977E-01  0.000000E+00
  4.123613E-01  1.333036E-02  1.000000E-01  4.162576E-01  4.694292E-03  4.207277E-17  2.700325E-02  1.239497E-03  8.485353E-05  1.919793E-01  0.000000E+00
  4.466470E-01  1.508975E-02  1.000000E-01  4.509052E-01  6.472251E-03  8.414555E-17  2.607607E-02  1.458056E-03  8.729392E-05  1.995591E-01  0.000000E+00
  4.813557E-01  1.718544E-02  1.000000E-01  4.859802E-01  8.590061E-03  5.609703E-17  2.516016E-02  1.542825E-03  8.955326E-05  2.126180E-01  0.000000E+00
  5.162084E-01  1.936026E-02  1.000000E-01  5.212008E-01  1.078783E-02  5.609703E-17  2.442091E-02  1.391298E-03  9.187681E-05  2.366963E-01  0.000000E+00
  5.509355E-01  2.112549E-02  1.000000E-01  5.562945E-01  1.257169E-02  8.414555E-17  2.347843E-02  1.390792E-03  9.336046E-05  2.433469E-01  0.000000E+00
  5.851877E-01  2.344053E-02  1.000000E-01  5.909081E-01  1.491117E-02  5.609703E-17  2.208981E-02  1.587799E-03  9.387076E-05  2.414178E-01  0.000000E+00
  6.187009E-01  2.601836E-02  1.000000E-01  6.247750E-01  1.751621E-02  8.414555E-17  2.058426E-02  1.568571E-03  9.422279E-05  2.697156E-01  0.000000E+00
  6.512484E-01  2.846182E-02  1.000000E-01  6.576661E-01  1.998546E-02  0.000000E+00  1.904290E-02  1.407798E-03  9.394310E-05  3.049930E-01  0.000000E+00
  6.826050E-01  3.072352E-02  1.000000E-01  6.893536E-01  2.227102E-02  5.609703E-17  1.744558E-02  1.221619E-03  9.279978E-05  3.317589E-01  0.000000E+00
  7.125788E-01  3.274500E-02  1.000000E-01  7.196438E-01  2.431384E-02  9.816981E-17  1.586371E-02  1.024822E-03  9.110370E-05  3.558455E-01  0.000000E+00
  7.410206E-01  3.448741E-02  1.000000E-01  7.483857E-01  2.607464E-02  4.768248E-16  1.447559E-02  7.949760E-04  8.935258E-05  3.822497E-01  0.000000E+00
  7.678340E-01  3.576922E-02  1.000000E-01  7.754822E-01  2.736998E-02  1.402426E-16  1.351055E-02  4.953785E-04  8.812114E-05  4.101135E-01  0.000000E+00
  7.929606E-01  3.638673E-02  1.000000E-01  8.008739E-01  2.799400E-02  5.609703E-17  1.311271E-02  1.222506E-04  8.777032E-05  4.324954E-01  0.000000E+00
  8.163626E-01  3.623714E-02  1.000000E-01  8.245229E-01  2.784284E-02  8.414555E-17  1.330729E-02 -3.195675E-04  8.846389E-05  4.449173E-01  0.000000E+00
  8.380221E-01  3.534144E-02  1.000000E-01  8.464110E-01  2.693768E-02  5.469461E-16  1.402297E-02 -8.079608E-04  9.018848E-05  4.458343E-01  0.000000E+00
  8.579484E-01  3.388427E-02  1.000000E-01  8.665476E-01  2.546513E-02  5.188975E-16  1.513091E-02 -1.320643E-03  9.277614E-05  4.371703E-01  0.000000E+00
  8.761825E-01  3.205157E-02  1.000000E-01  8.849742E-01  2.361309E-02  5.609703E-17  1.648069E-02 -1.850502E-03  9.590182E-05  4.233223E-01  0.000000E+00
  8.927902E-01  3.000397E-02  1.000000E-01  9.017572E-01  2.154388E-02  8.414555E-17  1.791351E-02 -2.377889E-03  9.911026E-05  4.065197E-01  0.000000E+00
  9.078551E-01  2.786923E-02  1.000000E-01  9.169811E-01  1.938661E-02  2.804852E-17  1.928187E-02 -2.862517E-03  1.019830E-04  3.874411E-01  0.000000E+00
  9.214730E-01  2.575841E-02  1.000000E-01  9.307427E-01  1.725351E-02  9.816981E-17  2.048448E-02 -3.273545E-03  1.042503E-04  3.672199E-01  0.000000E+00
  9.337443E-01  2.373925E-02  1.000000E-01  9.431435E-01  1.521304E-02  5.609703E-17  2.152300E-02 -3.641950E-03  1.058738E-04  3.480971E-01  0.000000E+00
  9.447684E-01  2.182284E-02  1.000000E-01  9.542839E-01  1.327640E-02  5.609703E-17  2.256169E-02 -4.069842E-03  1.072044E-04  3.308353E-01  0.000000E+00
  9.546409E-01  1.997885E-02  1.000000E-01  9.642607E-01  1.141295E-02  1.262183E-16  2.402340E-02 -4.704957E-03  1.095225E-04  3.134565E-01  0.000000E+00
  9.634551E-01  1.817699E-02  1.000000E-01  9.731678E-01  9.592074E-03  5.609703E-17  2.679285E-02 -5.721075E-03  1.160740E-04  2.909424E-01  0.000000E+00
  9.713058E-01  1.643613E-02  1.000000E-01  9.811015E-01  7.832847E-03  5.609703E-17  3.243528E-02 -7.387748E-03  1.326522E-04  2.567162E-01  0.000000E+00
  9.782892E-01  1.480925E-02  1.000000E-01  9.881586E-01  6.188796E-03  4.207277E-17  4.261498E-02 -1.018566E-02  1.633600E-04  2.119818E-01  0.000000E+00
  9.844933E-01  1.331980E-02  1.000000E-01  9.944281E-01  4.683617E-03  5.609703E-17  5.611487E-02 -1.340390E-02  1.943199E-04  1.831507E-01  0.000000E+00
  9.900000E-01  1.198598E-02  1.000000E-01  9.999929E-01  3.335728E-03  8.414555E-17  6.549261E-02  6.851631E-03  1.646048E-04  3.045111E-02  0.000000E+00
  7.008801E-03  1.767705E-02  1.000000E-01  6.626949E-03  9.086863E-03  9.816981E-17  2.075673E-02  1.670539E-02 -2.173133E-06 -1.942430E-01  0.000000E+00
  5.701244E-03  1.647698E-02  1.000000E-01  5.305592E-03  7.874121E-03  5.609703E-17  1.369911E-02  1.223482E-02  1.519176E-07 -2.132660E-01  0.000000E+00
  3.721537E-03  1.465774E-02  1.000000E-01  3.304990E-03  6.035679E-03  8.414555E-17  1.313963E-02  1.253279E-02  3.911433E-06 -3.954493E-01  0.000000E+00
  1.120163E-03  1.224894E-02  1.000000E-01  6.761613E-04  3.601458E-03  9.816981E-17  9.692070E-03  1.815112E-02  1.045497E-05  1.795798E-01  0.000000E+00
  4.510637E-04  8.685094E-03  1.000000E-01  0.000000E+00  0.000000E+00  0.000000E+00  4.760250E-03  9.210814E-03  1.732729E-05  1.081657E+00  0.000000E+00
  3.160124E-03  7.059501E-03  1.000000E-01  2.737652E-03 -1.642750E-03  4.207277E-17  1.176614E-02 -5.494777E-03  2.081123E-05  1.007058E+00  0.000000E+00
  5.423594E-03  6.090384E-03  1.000000E-01  5.025012E-03 -2.622095E-03 -1.402426E-17  1.923443E-02 -6.751772E-03  2.324196E-05  6.065700E-01  0.000000E+00
  7.008801E-03  5.708300E-03  1.000000E-01  6.626949E-03 -3.008212E-03  1.121941E-16  2.075890E-02 -4.815493E-03  2.732347E-05  5.914748E-01  0.000000E+00
    1    2
    2    3
    3    4
    4    5
    5    6
    6    7
    7    8
    8    9
    9   10
   10   11
   11   12
   12   13
   13   14
   14   15
   15   16
   16   17
   17   18
   18   19
   19   20
   20   21
   21   22
   22   23
   23   24
   24   25
   25   26
   26   27
   27   28
   28   29
   29   30
   30   31
   31   32
   32   33
   33   34
   34   35
   35   36
   36   37
   37   38
   38   39
   39   40
   40   41
   41   42
   42   43
   43   44
   44   45
   45   46
   46   47
   47   48
   48   49
   49   50
   51   52
   52   53
   53   54
   54   55
   55   56
   56   57
   57   58
   59   60
   60   61
   61   62
   62   63
   63   64
   64   65
   65   66
   66   67
   67   68
   68   69
   69   70
   70   71
   71   72
   72   73
   73   74
   74   75
   75   76
   76   77
   77   78
   78   79
   79   80
   80   81
   81   82
   82   83
   83   84
   84   85
   85   86
   86   87
   87   88
   88   89
   89   90
   90   91
   91   92
   92   93
   93   94
   94   95
   95   96
   96   97
   97   98
   98   99
   99  100
  100  101
  101  102
  102  103
  103  104
  104  105
  105  106
  106  107
  107  108
  109  110
  110  111
  111  112
  112  113
  113  114
  114  115
  115  116
Zone T= "Slice_0002 None Relative Regular z = 0.36666667"
 Nodes =          116  Elements=          112  ZONETYPE=FELINESEG
 DATAPACKING=POINT
  9.900000E-01  1.240733E-02  3.666667E-01  9.999929E-01  3.761488E-03  1.121941E-16  3.266555E-02 -2.583586E-02 -7.800756E-04 -8.119948E-03  0.000000E+00
  9.844789E-01  1.405629E-02  3.666667E-01  9.944135E-01  5.427852E-03  5.609703E-17  2.183934E-02 -6.628994E-03 -7.124370E-04  3.712583E-02  0.000000E+00
  9.782622E-01  1.591826E-02  3.666667E-01  9.881312E-01  7.309473E-03  1.682911E-16  1.173647E-02 -3.473295E-03 -5.677314E-04  6.632991E-03  0.000000E+00
  9.712761E-01  1.803052E-02  3.666667E-01  9.810714E-01  9.444029E-03  1.121941E-16  7.672401E-03 -2.307713E-03 -4.586489E-04 -1.042801E-02  0.000000E+00
  9.634271E-01  2.036111E-02  3.666667E-01  9.731396E-01  1.179921E-02  1.121941E-16  7.194632E-03 -2.102435E-03 -4.079081E-04 -3.479399E-02  0.000000E+00
  9.546204E-01  2.289646E-02  3.666667E-01  9.642399E-01  1.436132E-02  1.121941E-16  8.413529E-03 -2.366921E-03 -3.980787E-04 -6.341792E-02  0.000000E+00
  9.447561E-01  2.561813E-02  3.666667E-01  9.542715E-01  1.711172E-02  5.609703E-17  1.028646E-02 -2.773817E-03 -4.081911E-04 -9.381166E-02  0.000000E+00
  9.337360E-01  2.852972E-02  3.666667E-01  9.431351E-01  2.005404E-02  0.000000E+00  1.234954E-02 -3.184186E-03 -4.258589E-04 -1.264191E-01  0.000000E+00
  9.214586E-01  3.162551E-02  3.666667E-01  9.307281E-01  2.318250E-02  0.000000E+00  1.445605E-02 -3.554330E-03 -4.459520E-04 -1.607277E-01  0.000000E+00
  9.078232E-01  3.489868E-02  3.666667E-01  9.169488E-01  2.649022E-02  2.804852E-16  1.654488E-02 -3.868193E-03 -4.659194E-04 -1.965886E-01  0.000000E+00
  8.927319E-01  3.833884E-02  3.666667E-01  9.016982E-01  2.996668E-02  5.609703E-17  1.853603E-02 -4.096649E-03 -4.837410E-04 -2.316445E-01  0.000000E+00
  8.760894E-01  4.190779E-02  3.666667E-01  8.848801E-01  3.357330E-02  0.000000E+00  2.032055E-02 -4.226477E-03 -4.979909E-04 -2.639927E-01  0.000000E+00
  8.578153E-01  4.559476E-02  3.666667E-01  8.664131E-01  3.729919E-02  3.057288E-14  2.182829E-02 -4.275399E-03 -5.084772E-04 -2.927172E-01  0.000000E+00
  8.378441E-01  4.939154E-02  3.666667E-01  8.462312E-01  4.113604E-02  3.074117E-14  2.307088E-02 -4.278958E-03 -5.159774E-04 -3.183995E-01  0.000000E+00
  8.161333E-01  5.331601E-02  3.666667E-01  8.242912E-01  4.510193E-02  1.121941E-16  2.414539E-02 -4.288874E-03 -5.212527E-04 -3.465304E-01  0.000000E+00
  7.926668E-01  5.740541E-02  3.666667E-01  8.005770E-01  4.923449E-02  1.121941E-16  2.523807E-02 -4.322619E-03 -5.251637E-04 -3.819542E-01  0.000000E+00
  7.674503E-01  6.164416E-02  3.666667E-01  7.750944E-01  5.351798E-02  1.682911E-16  2.652424E-02 -4.337103E-03 -5.285479E-04 -4.230996E-01  0.000000E+00
  7.405094E-01  6.592544E-02  3.666667E-01  7.478691E-01  5.784444E-02  3.062898E-14  2.802190E-02 -4.279732E-03 -5.313235E-04 -4.645537E-01  0.000000E+00
  7.119026E-01  7.012100E-02  3.666667E-01  7.189604E-01  6.208428E-02  1.682911E-16  2.958396E-02 -4.134149E-03 -5.324621E-04 -5.018362E-01  0.000000E+00
  6.817298E-01  7.413336E-02  3.666667E-01  6.884692E-01  6.613899E-02  5.609703E-17  3.102782E-02 -3.921814E-03 -5.308394E-04 -5.344218E-01  0.000000E+00
  6.501347E-01  7.791983E-02  3.666667E-01  6.565406E-01  6.996542E-02  5.609703E-17  3.226397E-02 -3.691409E-03 -5.256660E-04 -5.673211E-01  0.000000E+00
  6.173024E-01  8.149472E-02  3.666667E-01  6.233618E-01  7.357805E-02  1.121941E-16  3.337629E-02 -3.459324E-03 -5.171921E-04 -6.046580E-01  0.000000E+00
  5.834550E-01  8.482330E-02  3.666667E-01  5.891571E-01  7.694175E-02  5.609703E-17  3.454535E-02 -3.189606E-03 -5.065219E-04 -6.453927E-01  0.000000E+00
  5.488457E-01  8.780990E-02  3.666667E-01  5.541826E-01  7.995987E-02  2.804852E-16  3.587688E-02 -2.864516E-03 -4.941159E-04 -6.889260E-01  0.000000E+00
  5.137559E-01  9.038471E-02  3.666667E-01  5.187224E-01  8.256187E-02  1.121941E-16  3.739274E-02 -2.481405E-03 -4.798753E-04 -7.353962E-01  0.000000E+00
  4.784836E-01  9.247910E-02  3.666667E-01  4.830778E-01  8.467836E-02  2.243881E-16  3.908784E-02 -2.021757E-03 -4.638629E-04 -7.834678E-01  0.000000E+00
  4.433339E-01  9.403067E-02  3.666667E-01  4.475571E-01  8.624630E-02  5.609703E-17  4.093994E-02 -1.467750E-03 -4.462151E-04 -8.322623E-01  0.000000E+00
  4.086096E-01  9.499018E-02  3.666667E-01  4.124664E-01  8.721594E-02  1.121941E-16  4.292819E-02 -8.154952E-04 -4.269295E-04 -8.831945E-01  0.000000E+00
  3.746012E-01  9.534357E-02  3.666667E-01  3.780991E-01  8.757306E-02  5.609703E-17  4.507466E-02 -5.393227E-05 -4.060142E-04 -9.382925E-01  0.000000E+00
  3.415766E-01  9.508074E-02  3.666667E-01  3.447259E-01  8.730746E-02  1.682911E-16  4.745636E-02  8.705362E-04 -3.838454E-04 -9.961718E-01  0.000000E+00
  3.097730E-01  9.417020E-02  3.666667E-01  3.125866E-01  8.638730E-02  2.243881E-16  5.010850E-02  2.020702E-03 -3.607756E-04 -1.053243E+00  0.000000E+00
  2.793901E-01  9.259368E-02  3.666667E-01  2.818831E-01  8.479415E-02  5.609703E-17  5.295541E-02  3.428599E-03 -3.367870E-04 -1.106486E+00  0.000000E+00
  2.505887E-01  9.036151E-02  3.666667E-01  2.527776E-01  8.253841E-02  3.057288E-14  5.583476E-02  5.088954E-03 -3.116741E-04 -1.153619E+00  0.000000E+00
  2.234888E-01  8.752312E-02  3.666667E-01  2.253918E-01  7.967007E-02  2.243881E-16  5.860395E-02  7.021268E-03 -2.857662E-04 -1.188985E+00  0.000000E+00
  1.981749E-01  8.410877E-02  3.666667E-01  1.998107E-01  7.621968E-02  1.121941E-16  6.107663E-02  9.199271E-03 -2.596397E-04 -1.206900E+00  0.000000E+00
  1.746916E-01  8.019851E-02  3.666667E-01  1.760795E-01  7.226816E-02  3.068508E-14  6.303293E-02  1.153149E-02 -2.338542E-04 -1.204630E+00  0.000000E+00
  1.530489E-01  7.587589E-02  3.666667E-01  1.542084E-01  6.789991E-02  3.074117E-14  6.430746E-02  1.388391E-02 -2.089352E-04 -1.183577E+00  0.000000E+00
  1.332206E-01  7.126257E-02  3.666667E-01  1.341708E-01  6.323791E-02  5.609703E-17  6.487122E-02  1.615375E-02 -1.852942E-04 -1.148063E+00  0.000000E+00
  1.151568E-01  6.645513E-02  3.666667E-01  1.159164E-01  5.837973E-02  2.243881E-16  6.481851E-02  1.829707E-02 -1.631541E-04 -1.103517E+00  0.000000E+00
  9.878428E-02  6.155305E-02  3.666667E-01  9.937106E-02  5.342590E-02  1.682911E-16  6.425960E-02  2.029201E-02 -1.423545E-04 -1.055066E+00  0.000000E+00
  8.401632E-02  5.663285E-02  3.666667E-01  8.444723E-02  4.845378E-02 -1.121941E-16  6.332793E-02  2.227152E-02 -1.229909E-04 -9.977804E-01  0.000000E+00
  7.076936E-02  5.171389E-02  3.666667E-01  7.106045E-02  4.348290E-02  5.609703E-17  6.190832E-02  2.416207E-02 -1.049552E-04 -9.275944E-01  0.000000E+00
  5.893902E-02  4.685716E-02  3.666667E-01  5.910526E-02  3.857491E-02  5.609703E-17  5.978103E-02  2.576830E-02 -8.818252E-05 -8.410534E-01  0.000000E+00
  4.842597E-02  4.209402E-02  3.666667E-01  4.848125E-02  3.376150E-02  1.121941E-16  5.679402E-02  2.684761E-02 -7.277585E-05 -7.395658E-01  0.000000E+00
  3.911374E-02  3.749148E-02  3.666667E-01  3.907073E-02  2.911038E-02  1.121941E-16  5.290358E-02  2.714084E-02 -5.858148E-05 -6.375182E-01  0.000000E+00
  3.088812E-02  3.309679E-02  3.666667E-01  3.075830E-02  2.466931E-02  2.243881E-16  4.824319E-02  2.659028E-02 -4.523790E-05 -5.544169E-01  0.000000E+00
  2.363417E-02  2.895459E-02  3.666667E-01  2.342779E-02  2.048339E-02  1.682911E-16  4.300176E-02  2.544580E-02 -3.268860E-05 -4.847407E-01  0.000000E+00
  1.726952E-02  2.504462E-02  3.666667E-01  1.699596E-02  1.653216E-02  3.365822E-16  3.706521E-02  2.417263E-02 -2.205845E-05 -3.717415E-01  0.000000E+00
  1.179184E-02  2.122061E-02  3.666667E-01  1.146047E-02  1.266779E-02  2.804852E-16  2.975054E-02  2.131913E-02 -1.375985E-05 -2.638792E-01  0.000000E+00
  7.008801E-03  1.767680E-02  3.666667E-01  6.626949E-03  9.086576E-03  1.121941E-16  2.102332E-02  1.692474E-02 -7.145179E-06 -1.826470E-01  0.000000E+00
  9.900000E-01  1.198460E-02  3.666667E-01  9.999929E-01  3.334292E-03  1.682911E-16  6.420487E-02  6.377932E-03  5.237309E-04  2.962878E-02  0.000000E+00
  9.900000E-01  1.202228E-02  3.666667E-01  9.999929E-01  3.372371E-03  1.121941E-16  4.403555E-02 -4.363857E-03  1.135696E-04 -1.425629E-01  0.000000E+00
  9.900000E-01  1.207932E-02  3.666667E-01  9.999929E-01  3.430015E-03  1.121941E-16  6.049532E-03 -5.368529E-02 -3.924631E-04 -9.328702E-02  0.000000E+00
  9.900000E-01  1.215451E-02  3.666667E-01  9.999929E-01  3.506001E-03  1.121941E-16 -1.045095E-02 -4.591336E-02 -7.383689E-04 -4.091533E-02  0.000000E+00
  9.900000E-01  1.223742E-02  3.666667E-01  9.999929E-01  3.589780E-03 -5.609703E-17 -7.172763E-03 -5.084151E-03 -7.768971E-04 -5.407001E-02  0.000000E+00
  9.900000E-01  1.231261E-02  3.666667E-01  9.999929E-01  3.665766E-03  0.000000E+00  6.081077E-03 -1.894487E-03 -6.413661E-04 -8.476460E-02  0.000000E+00
  9.900000E-01  1.236965E-02  3.666667E-01  9.999929E-01  3.723409E-03  2.243881E-16  2.595286E-02 -2.846607E-02 -6.758854E-04 -1.000304E-01  0.000000E+00
  9.900000E-01  1.240733E-02  3.666667E-01  9.999929E-01  3.761488E-03  1.682911E-16  3.266555E-02 -2.583586E-02 -7.800756E-04 -8.119948E-03  0.000000E+00
  7.008801E-03  5.708453E-03  3.666667E-01  6.626949E-03 -3.008093E-03  2.243881E-16  2.107633E-02 -4.887261E-03  8.823421E-05  5.851333E-01  0.000000E+00
  1.236474E-02  4.568140E-03  3.666667E-01  1.203942E-02 -4.160440E-03  1.121941E-16  2.311509E-02 -3.675059E-03  9.969619E-05  5.963262E-01  0.000000E+00
  1.851796E-02  3.854665E-03  3.666667E-01  1.825758E-02 -4.881445E-03  0.000000E+00  2.554274E-02 -2.394420E-03  1.089960E-04  4.660360E-01  0.000000E+00
  2.549652E-02  3.365504E-03  3.666667E-01  2.530979E-02 -5.375770E-03  1.121941E-16  2.737577E-02 -1.380141E-03  1.207299E-04  4.047024E-01  0.000000E+00
  3.337042E-02  3.113856E-03  3.666667E-01  3.326679E-02 -5.630074E-03  1.682911E-16  2.868998E-02 -5.988721E-04  1.318867E-04  3.823460E-01  0.000000E+00
  4.221327E-02  3.018942E-03  3.666667E-01  4.220298E-02 -5.725989E-03  1.121941E-16  2.949606E-02 -7.956555E-05  1.407540E-04  3.665342E-01  0.000000E+00
  5.211509E-02  3.066051E-03  3.666667E-01  5.220930E-02 -5.678383E-03  0.000000E+00  2.982874E-02  2.970610E-04  1.477133E-04  3.486750E-01  0.000000E+00
  6.316987E-02  3.232029E-03  3.666667E-01  6.338076E-02 -5.510653E-03  1.682911E-16  2.991154E-02  5.234913E-04  1.539136E-04  3.357303E-01  0.000000E+00