 Title = "ADflow Slice Data"
Variables =  "CoordinateX"  "CoordinateY"  "CoordinateZ"  "XoC"  "YoC"  "ZoC" "VelocityX" "VelocityY" "VelocityZ" "CoefPressure" "Mach" 
Zone T= "Slice_0001 None Relative Regular z = 0.10000000"
 Nodes =          116  Elements=          112  ZONETYPE=FELINESEG
 DATAPACKING=POINT
  9.900000E-01  1.238254E-02  1.000000E-01  9.999930E-01  3.736467E-03  5.609704E-17  3.358043E-02 -2.622265E-02 -2.656029E-04 -6.733135E-03  0.000000E+00
  9.844789E-01  1.403140E-02  1.000000E-01  9.944136E-01  5.402739E-03 -1.402426E-17  2.237136E-02 -6.785286E-03 -2.359326E-04  3.729754E-02  0.000000E+00
  9.782622E-01  1.589325E-02  1.000000E-01  9.881313E-01  7.284233E-03  2.804852E-17  1.208991E-02 -3.578467E-03 -1.874875E-04  6.292153E-03  0.000000E+00
  9.712761E-01  1.800535E-02  1.000000E-01  9.810715E-01  9.418627E-03  0.000000E+00  8.026724E-03 -2.412782E-03 -1.513030E-04 -1.164295E-02  0.000000E+00
  9.634271E-01  2.033568E-02  1.000000E-01  9.731397E-01  1.177356E-02  9.816982E-17  7.606233E-03 -2.221525E-03 -1.343723E-04 -3.703009E-02  0.000000E+00
  9.546204E-01  2.287065E-02  1.000000E-01  9.642400E-01  1.433528E-02  4.207278E-17  8.876282E-03 -2.495990E-03 -1.306969E-04 -6.657528E-02  0.000000E+00
  9.447561E-01  2.559177E-02  1.000000E-01  9.542716E-01  1.708511E-02  5.609704E-17  1.078443E-02 -2.906661E-03 -1.333068E-04 -9.778701E-02  0.000000E+00
  9.337360E-01  2.850263E-02  1.000000E-01  9.431352E-01  2.002670E-02  4.207278E-17  1.287642E-02 -3.318255E-03 -1.380912E-04 -1.310825E-01  0.000000E+00
  9.214586E-01  3.159750E-02  1.000000E-01  9.307282E-01  2.315423E-02  5.609704E-17  1.500899E-02 -3.688179E-03 -1.431965E-04 -1.659086E-01  0.000000E+00
  9.078232E-01  3.486958E-02  1.000000E-01  9.169489E-01  2.646085E-02  4.207278E-17  1.711072E-02 -3.998208E-03 -1.475139E-04 -2.021181E-01  0.000000E+00
  8.927319E-01  3.830850E-02  1.000000E-01  9.016983E-01  2.993606E-02  5.609704E-17  1.909575E-02 -4.218065E-03 -1.501926E-04 -2.373176E-01  0.000000E+00
  8.760894E-01  4.187612E-02  1.000000E-01  8.848802E-01  3.354134E-02  5.609704E-17  2.086124E-02 -4.336787E-03 -1.507326E-04 -2.695923E-01  0.000000E+00
  8.578153E-01  4.556177E-02  1.000000E-01  8.664132E-01  3.726589E-02  5.188976E-16  2.234408E-02 -4.374669E-03 -1.490694E-04 -2.980565E-01  0.000000E+00
  8.378441E-01  4.935739E-02  1.000000E-01  8.462313E-01  4.110157E-02  5.188976E-16  2.355989E-02 -4.368570E-03 -1.454462E-04 -3.233665E-01  0.000000E+00
  8.161333E-01  5.328106E-02  1.000000E-01  8.242913E-01  4.506665E-02  2.804852E-17  2.460794E-02 -4.370932E-03 -1.401188E-04 -3.511676E-01  0.000000E+00
  7.926668E-01  5.737027E-02  1.000000E-01  8.005771E-01  4.919902E-02  5.609704E-17  2.567730E-02 -4.399083E-03 -1.333550E-04 -3.864082E-01  0.000000E+00
  7.674503E-01  6.160973E-02  1.000000E-01  7.750944E-01  5.348322E-02  8.414556E-17  2.694658E-02 -4.409095E-03 -1.254507E-04 -4.274990E-01  0.000000E+00
  7.405094E-01  6.589286E-02  1.000000E-01  7.478692E-01  5.781156E-02  4.908491E-16  2.843572E-02 -4.347852E-03 -1.166877E-04 -4.689558E-01  0.000000E+00
  7.119026E-01  7.009167E-02  1.000000E-01  7.189604E-01  6.205469E-02  4.207278E-17  2.999808E-02 -4.198985E-03 -1.074900E-04 -5.062472E-01  0.000000E+00
  6.817298E-01  7.410868E-02  1.000000E-01  6.884692E-01  6.611410E-02  2.804852E-17  3.145056E-02 -3.983803E-03 -9.861137E-05 -5.388189E-01  0.000000E+00
  6.501347E-01  7.790074E-02  1.000000E-01  6.565407E-01  6.994617E-02  8.414556E-17  3.270200E-02 -3.750478E-03 -9.097498E-05 -5.716419E-01  0.000000E+00
  6.173024E-01  8.148104E-02  1.000000E-01  6.233618E-01  7.356426E-02  5.609704E-17  3.383375E-02 -3.514819E-03 -8.536215E-05 -6.087862E-01  0.000000E+00
  5.834550E-01  8.481416E-02  1.000000E-01  5.891571E-01  7.693256E-02  9.816982E-17  3.502411E-02 -3.240463E-03 -8.213095E-05 -6.491413E-01  0.000000E+00
  5.488457E-01  8.780430E-02  1.000000E-01  5.541826E-01  7.995427E-02  8.414556E-17  3.637617E-02 -2.909532E-03 -8.104082E-05 -6.920280E-01  0.000000E+00
  5.137559E-01  9.038166E-02  1.000000E-01  5.187225E-01  8.255882E-02  1.402426E-16  3.790885E-02 -2.519364E-03 -8.144935E-05 -7.375141E-01  0.000000E+00
  4.784836E-01  9.247766E-02  1.000000E-01  4.830778E-01  8.467695E-02  8.414556E-17  3.961471E-02 -2.051450E-03 -8.260555E-05 -7.842016E-01  0.000000E+00
  4.433339E-01  9.403010E-02  1.000000E-01  4.475572E-01  8.624577E-02  8.414556E-17  4.146973E-02 -1.488196E-03 -8.378500E-05 -8.311566E-01  0.000000E+00
  4.086096E-01  9.498999E-02  1.000000E-01  4.124664E-01  8.721579E-02 -1.402426E-17  4.345085E-02 -8.262454E-04 -8.437181E-05 -8.797585E-01  0.000000E+00
  3.746012E-01  9.534349E-02  1.000000E-01  3.780991E-01  8.757302E-02  9.816982E-17  4.557702E-02 -5.510327E-05 -8.397522E-05 -9.320139E-01  0.000000E+00
  3.415766E-01  9.508068E-02  1.000000E-01  3.447259E-01  8.730744E-02  5.609704E-17  4.792214E-02  8.784774E-04 -8.252438E-05 -9.864774E-01  0.000000E+00
  3.097730E-01  9.417017E-02  1.000000E-01  3.125866E-01  8.638732E-02  4.207278E-17  5.051887E-02  2.036500E-03 -8.012914E-05 -1.039458E+00  0.000000E+00
  2.793901E-01  9.259372E-02  1.000000E-01  2.818831E-01  8.479423E-02  8.414556E-17  5.328936E-02  3.449294E-03 -7.690311E-05 -1.087870E+00  0.000000E+00
  2.505887E-01  9.036163E-02  1.000000E-01  2.527777E-01  8.253859E-02  4.768248E-16  5.606969E-02  5.109249E-03 -7.291687E-05 -1.129489E+00  0.000000E+00
  2.234888E-01  8.752337E-02  1.000000E-01  2.253918E-01  7.967036E-02  5.609704E-17  5.871850E-02  7.033676E-03 -6.833413E-05 -1.158872E+00  0.000000E+00
  1.981749E-01  8.410914E-02  1.000000E-01  1.998107E-01  7.622010E-02  4.207278E-17  6.105640E-02  9.194861E-03 -6.333650E-05 -1.170661E+00  0.000000E+00
  1.746916E-01  8.019901E-02  1.000000E-01  1.760795E-01  7.226870E-02  4.768248E-16  6.287549E-02  1.150143E-02 -5.808291E-05 -1.162430E+00  0.000000E+00
  1.530489E-01  7.587650E-02  1.000000E-01  1.542084E-01  6.790057E-02  5.329219E-16  6.402289E-02  1.382150E-02 -5.272899E-05 -1.135734E+00  0.000000E+00
  1.332206E-01  7.126328E-02  1.000000E-01  1.341708E-01  6.323866E-02  9.816982E-17  6.447644E-02  1.605478E-02 -4.741849E-05 -1.094854E+00  0.000000E+00
  1.151568E-01  6.645591E-02  1.000000E-01  1.159164E-01  5.838056E-02  4.207278E-17  6.432988E-02  1.815876E-02 -4.225976E-05 -1.045079E+00  0.000000E+00
  9.878428E-02  6.155388E-02  1.000000E-01  9.937107E-02  5.342678E-02  5.609704E-17  6.368861E-02  2.011149E-02 -3.726591E-05 -9.915169E-01  0.000000E+00
  8.401632E-02  5.663370E-02  1.000000E-01  8.444724E-02  4.845468E-02  5.609704E-17  6.268187E-02  2.204417E-02 -3.251590E-05 -9.293971E-01  0.000000E+00
  7.076936E-02  5.171474E-02  1.000000E-01  7.106046E-02  4.348380E-02  2.804852E-17  6.120291E-02  2.388687E-02 -2.801189E-05 -8.549133E-01  0.000000E+00
  5.893902E-02  4.685798E-02  1.000000E-01  5.910526E-02  3.857578E-02  9.816982E-17  5.904757E-02  2.545266E-02 -2.375474E-05 -7.646546E-01  0.000000E+00
  4.842597E-02  4.209479E-02  1.000000E-01  4.848125E-02  3.376232E-02 -1.402426E-17  5.607650E-02  2.650969E-02 -1.978428E-05 -6.595074E-01  0.000000E+00
  3.911374E-02  3.749219E-02  1.000000E-01  3.907074E-02  2.911114E-02  2.804852E-17  5.224883E-02  2.680668E-02 -1.607032E-05 -5.529734E-01  0.000000E+00
  3.088812E-02  3.309742E-02  1.000000E-01  3.075831E-02  2.466999E-02  2.804852E-17  4.769093E-02  2.628728E-02 -1.253836E-05 -4.642704E-01  0.000000E+00
  2.363417E-02  2.895514E-02  1.000000E-01  2.342779E-02  2.048399E-02  1.262183E-16  4.259996E-02  2.521023E-02 -9.207811E-06 -3.882986E-01  0.000000E+00
  1.726952E-02  2.504508E-02  1.000000E-01  1.699596E-02  1.653266E-02  4.207278E-17  3.692191E-02  2.408961E-02 -6.410058E-06 -2.664220E-01  0.000000E+00
  1.179184E-02  2.122097E-02  1.000000E-01  1.146047E-02  1.266819E-02  2.804852E-17  3.009740E-02  2.157290E-02 -4.158657E-06 -1.453144E-01  0.000000E+00
  7.008801E-03  1.767706E-02  1.000000E-01  6.626950E-03  9.086875E-03  1.121941E-16  2.206039E-02  1.782044E-02 -2.234359E-06 -5.481453E-02  0.000000E+00
  9.900000E-01  1.195944E-02  1.000000E-01  9.999930E-01  3.308905E-03  5.609704E-17  6.490364E-02  6.843965E-03  1.743589E-04  3.212741E-02  0.000000E+00
  9.900000E-01  1.199715E-02  1.000000E-01  9.999930E-01  3.347017E-03  8.414556E-17  4.343987E-02 -3.232816E-03  4.058890E-05 -1.406183E-01  0.000000E+00
  9.900000E-01  1.205424E-02  1.000000E-01  9.999930E-01  3.404709E-03  5.609704E-17  3.499228E-03 -5.247451E-02 -1.394489E-04 -9.183918E-02  0.000000E+00
  9.900000E-01  1.212950E-02  1.000000E-01  9.999930E-01  3.480761E-03  5.609704E-17 -1.263452E-02 -4.447905E-02 -2.456119E-04 -3.883182E-02  0.000000E+00
  9.900000E-01  1.221247E-02  1.000000E-01  9.999930E-01  3.564612E-03  8.414556E-17 -7.959504E-03 -3.675691E-03 -2.435831E-04 -5.198493E-02  0.000000E+00
  9.900000E-01  1.228773E-02  1.000000E-01  9.999930E-01  3.640663E-03  8.414556E-17  6.299031E-03 -1.129356E-03 -2.032285E-04 -8.262038E-02  0.000000E+00
  9.900000E-01  1.234482E-02  1.000000E-01  9.999930E-01  3.698356E-03  5.609704E-17  2.685518E-02 -2.856170E-02 -2.303391E-04 -9.846463E-02  0.000000E+00
  9.900000E-01  1.238254E-02  1.000000E-01  9.999930E-01  3.736467E-03  8.414556E-17  3.358043E-02 -2.622265E-02 -2.656029E-04 -6.733135E-03  0.000000E+00
  7.008801E-03  5.708294E-03  1.000000E-01  6.626950E-03 -3.008217E-03  9.816982E-17  2.304020E-02 -5.332328E-03  2.423010E-05  5.117537E-01  0.000000E+00
  1.236474E-02  4.567932E-03  1.000000E-01  1.203942E-02 -4.160615E-03  0.000000E+00  2.494955E-02 -3.982360E-03  2.753971E-05  5.240786E-01  0.000000E+00
  1.851796E-02  3.854424E-03  1.000000E-01  1.825758E-02 -4.881654E-03  1.262183E-16  2.718451E-02 -2.548667E-03  3.012516E-05  4.005269E-01  0.000000E+00
  2.549652E-02  3.365238E-03  1.000000E-01  2.530980E-02 -5.376003E-03  7.012130E-17  2.879267E-02 -1.454156E-03  3.318926E-05  3.462987E-01  0.000000E+00
  3.337042E-02  3.113575E-03  1.000000E-01  3.326680E-02 -5.630321E-03 -9.816982E-17  2.982626E-02 -6.247125E-04  3.597203E-05  3.299077E-01  0.000000E+00
  4.221327E-02  3.018653E-03  1.000000E-01  4.220298E-02 -5.726245E-03  5.609704E-17  3.035115E-02 -8.277898E-05  3.810489E-05  3.198242E-01  0.000000E+00
  5.211509E-02  3.065761E-03  1.000000E-01  5.220931E-02 -5.678640E-03 -5.609704E-17  3.045131E-02  3.028711E-04  3.973446E-05  3.067728E-01  0.000000E+00
  6.316987E-02  3.231743E-03  1.000000E-01  6.338077E-02 -5.510906E-03  2.804852E-17  3.036479E-02  5.313146E-04  4.116454E-05  2.978581E-01  0.000000E+00
  7.547353E-02  3.475063E-03  1.000000E-01  7.581428E-02 -5.265019E-03  1.262183E-16  3.022672E-02  6.604282E-04  4.251286E-05  2.904804E-01  0.000000E+00
  8.912494E-02  3.798096E-03  1.000000E-01  8.960977E-02 -4.938576E-03  0.000000E+00  3.003574E-02  7.610979E-04  4.381336E-05  2.813840E-01  0.000000E+00
  1.042203E-01  4.202966E-03  1.000000E-01  1.048645E-01 -4.529433E-03  5.609704E-17  2.976939E-02  8.504888E-04  4.509735E-05  2.722704E-01  0.000000E+00
  1.208505E-01  4.704327E-03  1.000000E-01  1.216702E-01 -4.022780E-03  9.816982E-17  2.942558E-02  9.207434E-04  4.637670E-05  2.648528E-01  0.000000E+00
  1.390959E-01  5.293148E-03  1.000000E-01  1.401082E-01 -3.427744E-03  5.188976E-16  2.902651E-02  9.599844E-04  4.765342E-05  2.595431E-01  0.000000E+00
  1.590234E-01  5.964226E-03  1.000000E-01  1.602459E-01 -2.749583E-03  4.908491E-16  2.859912E-02  9.770375E-04  4.892246E-05  2.548926E-01  0.000000E+00
  1.806810E-01  6.710850E-03  1.000000E-01  1.821322E-01 -1.995080E-03  8.414556E-17  2.820687E-02  9.636565E-04  5.021279E-05  2.511405E-01  0.000000E+00
  2.040935E-01  7.499191E-03  1.000000E-01  2.057917E-01 -1.198419E-03  2.804852E-17  2.793151E-02  9.148479E-04  5.156050E-05  2.478421E-01  0.000000E+00
  2.292572E-01  8.295290E-03  1.000000E-01  2.312210E-01 -3.939171E-04  1.262183E-16  2.784155E-02  8.338782E-04  5.299936E-05  2.435032E-01  0.000000E+00
  2.561364E-01  9.050188E-03  1.000000E-01  2.583839E-01  3.689486E-04  5.469461E-16  2.796169E-02  7.258191E-04  5.454922E-05  2.370084E-01  0.000000E+00
  2.846592E-01  9.724838E-03  1.000000E-01  2.872078E-01  1.050719E-03  5.609704E-17  2.821674E-02  6.266077E-04  5.614996E-05  2.267167E-01  0.000000E+00
  3.147147E-01  1.034304E-02  1.000000E-01  3.175805E-01  1.675447E-03  9.816982E-17  2.842356E-02  6.037446E-04  5.763267E-05  2.120839E-01  0.000000E+00
  3.461514E-01  1.102507E-02  1.000000E-01  3.493490E-01  2.364673E-03  5.609704E-17  2.835751E-02  7.206286E-04  5.874937E-05  1.952448E-01  0.000000E+00
  3.787768E-01  1.196980E-02  1.000000E-01  3.823188E-01  3.319379E-03  5.609704E-17  2.788722E-02  9.681779E-04  5.928972E-05  1.819150E-01  0.000000E+00
  4.123613E-01  1.333014E-02  1.000000E-01  4.162577E-01  4.694076E-03  4.207278E-17  2.708520E-02  1.242809E-03  5.922608E-05  1.799685E-01  0.000000E+00
  4.466470E-01  1.508912E-02  1.000000E-01  4.509052E-01  6.471614E-03  8.414556E-17  2.612604E-02  1.459954E-03  5.866002E-05  1.887590E-01  0.000000E+00
  4.813557E-01  1.718387E-02  1.000000E-01  4.859803E-01  8.588478E-03  5.609704E-17  2.518281E-02  1.542676E-03  5.784149E-05  2.029828E-01  0.000000E+00
  5.162084E-01  1.935700E-02  1.000000E-01  5.212009E-01  1.078454E-02  5.609704E-17  2.442231E-02  1.389038E-03  5.724543E-05  2.280807E-01  0.000000E+00
  5.509355E-01  2.111962E-02  1.000000E-01  5.562945E-01  1.256577E-02  8.414556E-17  2.346218E-02  1.386390E-03  5.673281E-05  2.355231E-01  0.000000E+00
  5.851877E-01  2.343105E-02  1.000000E-01  5.909081E-01  1.490159E-02  5.609704E-17  2.205685E-02  1.581087E-03  5.656562E-05  2.342334E-01  0.000000E+00
  6.187009E-01  2.600429E-02  1.000000E-01  6.247751E-01  1.750199E-02  8.414556E-17  2.053596E-02  1.559920E-03  5.747384E-05  2.631508E-01  0.000000E+00
  6.512484E-01  2.844230E-02  1.000000E-01  6.576661E-01  1.996573E-02  0.000000E+00  1.898171E-02  1.397993E-03  5.929758E-05  2.989920E-01  0.000000E+00
  6.826050E-01  3.069823E-02  1.000000E-01  6.893536E-01  2.224548E-02  5.609704E-17  1.737385E-02  1.211621E-03  6.175618E-05  3.261817E-01  0.000000E+00
  7.125788E-01  3.271448E-02  1.000000E-01  7.196439E-01  2.428300E-02  9.816982E-17  1.578397E-02  1.015541E-03  6.462856E-05  3.505848E-01  0.000000E+00
  7.410206E-01  3.445261E-02  1.000000E-01  7.483858E-01  2.603947E-02  4.768248E-16  1.439124E-02  7.872286E-04  6.773023E-05  3.772679E-01  0.000000E+00
  7.678340E-01  3.573125E-02  1.000000E-01  7.754822E-01  2.733161E-02  1.402426E-16  1.342418E-02  4.900191E-04  7.105406E-05  4.053838E-01  0.000000E+00
  7.929606E-01  3.634664E-02  1.000000E-01  8.008740E-01  2.795350E-02  5.609704E-17  1.302443E-02  1.199956E-04  7.467061E-05  4.279834E-01  0.000000E+00
  8.163626E-01  3.619587E-02  1.000000E-01  8.245229E-01  2.780114E-02  8.414556E-17  1.321535E-02 -3.181326E-04  7.868461E-05  4.405969E-01  0.000000E+00
  8.380221E-01  3.529976E-02  1.000000E-01  8.464111E-01  2.689557E-02  5.469461E-16  1.392566E-02 -8.024999E-04  8.316106E-05  4.417017E-01  0.000000E+00
  8.579484E-01  3.384280E-02  1.000000E-01  8.665477E-01  2.542323E-02  5.188976E-16  1.502815E-02 -1.311172E-03  8.805548E-05  4.332332E-01  0.000000E+00
  8.761825E-01  3.201078E-02  1.000000E-01  8.849743E-01  2.357187E-02  5.609704E-17  1.637386E-02 -1.837298E-03  9.313895E-05  4.195868E-01  0.000000E+00
  8.927902E-01  2.996419E-02  1.000000E-01  9.017573E-01  2.150369E-02  8.414556E-17  1.780381E-02 -2.361351E-03  9.802026E-05  4.029934E-01  0.000000E+00
  9.078551E-01  2.783070E-02  1.000000E-01  9.169812E-01  1.934767E-02  2.804852E-17  1.916932E-02 -2.843043E-03  1.023202E-04  3.841351E-01  0.000000E+00
  9.214730E-01  2.572126E-02  1.000000E-01  9.307428E-01  1.721597E-02  9.816982E-17  2.036833E-02 -3.251451E-03  1.057854E-04  3.641456E-01  0.000000E+00
  9.337443E-01  2.370355E-02  1.000000E-01  9.431436E-01  1.517697E-02  5.609704E-17  2.140231E-02 -3.617265E-03  1.083609E-04  3.452617E-01  0.000000E+00
  9.447684E-01  2.178861E-02  1.000000E-01  9.542840E-01  1.324182E-02  5.609704E-17  2.243502E-02 -4.042005E-03  1.103663E-04  3.282505E-01  0.000000E+00
  9.546409E-01  1.994607E-02  1.000000E-01  9.642608E-01  1.137983E-02  1.262183E-16  2.388640E-02 -4.672302E-03  1.130778E-04  3.111559E-01  0.000000E+00
  9.634551E-01  1.814561E-02  1.000000E-01  9.731679E-01  9.560367E-03  5.609704E-17  2.663235E-02 -5.679792E-03  1.198100E-04  2.890081E-01  0.000000E+00
  9.713058E-01  1.640609E-02  1.000000E-01  9.811016E-01  7.802490E-03  5.609704E-17  3.222035E-02 -7.329753E-03  1.364790E-04  2.553158E-01  0.000000E+00
  9.782892E-01  1.478047E-02  1.000000E-01  9.881587E-01  6.159708E-03  4.207278E-17  4.228839E-02 -1.009516E-02  1.670896E-04  2.112692E-01  0.000000E+00
  9.844933E-01  1.329218E-02  1.000000E-01  9.944282E-01  4.655708E-03  5.609704E-17  5.561927E-02 -1.326761E-02  1.973328E-04  1.830815E-01  0.000000E+00
  9.900000E-01  1.195944E-02  1.000000E-01  9.999930E-01  3.308905E-03  8.414556E-17  6.490364E-02  6.843965E-03  1.743589E-04  3.212741E-02  0.000000E+00
  7.008801E-03  1.767706E-02  1.000000E-01  6.626950E-03  9.086875E-03  9.816982E-17  2.206039E-02  1.782044E-02 -2.234359E-06 -5.481453E-02  0.000000E+00
  5.701244E-03  1.647699E-02  1.000000E-01  5.305592E-03  7.874131E-03  5.609704E-17  1.539514E-02  1.382309E-02 -4.803743E-08 -6.005501E-02  0.000000E+00
  3.721537E-03  1.465774E-02  1.000000E-01  3.304991E-03  6.035687E-03  8.414556E-17  1.370888E-02  1.305798E-02  3.368525E-06 -1.940608E-01  0.000000E+00
  1.120163E-03  1.224894E-02  1.000000E-01  6.761613E-04  3.601463E-03  9.816982E-17  9.117322E-03  1.607035E-02  8.805670E-06  3.897212E-01  0.000000E+00
  4.510637E-04  8.685093E-03  1.000000E-01  0.000000E+00  0.000000E+00  0.000000E+00  5.848716E-03  6.510389E-03  1.419837E-05  1.118380E+00  0.000000E+00
  3.160124E-03  7.059497E-03  1.000000E-01  2.737653E-03 -1.642753E-03  4.207278E-17  1.442499E-02 -6.925786E-03  1.741255E-05  9.099098E-01  0.000000E+00
  5.423594E-03  6.090379E-03  1.000000E-01  5.025012E-03 -2.622099E-03 -1.402426E-17  2.166964E-02 -7.548034E-03  2.027384E-05  5.249385E-01  0.000000E+00
  7.008801E-03  5.708294E-03  1.000000E-01  6.626950E-03 -3.008217E-03  1.121941E-16  2.304020E-02 -5.332328E-03  2.423010E-05  5.117537E-01  0.000000E+00
    1    2
    2    3
    3    4
    4    5
    5    6
    6    7
    7    8
    8    9
    9   10
   10   11
   11   12
   12   13
   13   14
   14   15
   15   16
   16   17
   17   18
   18   19
   19   20
   20   21
   21   22
   22   23
   23   24
   24   25
   25   26
   26   27
   27   28
   28   29
   29   30
   30   31
   31   32
   32   33
   33   34
   34   35
   35   36
   36   37
   37   38
   38   39
   39   40
   40   41
   41   42
   42   43
   43   44
   44   45
   45   46
   46   47
   47   48
   48   49
   49   50
   51   52
   52   53
   53   54
   54   55
   55   56
   56   57
   57   58
   59   60
   60   61
   61   62
   62   63
   63   64
   64   65
   65   66
   66   67
   67   68
   68   69
   69   70
   70   71
   71   72
   72   73
   73   74
   74   75
   75   76
   76   77
   77   78
   78   79
   79   80
   80   81
   81   82
   82   83
   83   84
   84   85
   85   86
   86   87
   87   88
   88   89
   89   90
   90   91
   91   92
   92   93
   93   94
   94   95
   95   96
   96   97
   97   98
   98   99
   99  100
  100  101
  101  102
  102  103
  103  104
  104  105
  105  106
  106  107
  107  108
  109  110
  110  111
  111  112
  112  113
  113  114
  114  115
  115  116
Zone T= "Slice_0002 None Relative Regular z = 0.36666667"
 Nodes =          116  Elements=          112  ZONETYPE=FELINESEG
 DATAPACKING=POINT
  9.900000E-01  1.214204E-02  3.666667E-01  9.999939E-01  3.493443E-03  1.121942E-16  3.313858E-02 -2.597160E-02 -8.750575E-04 -6.174382E-03  0.000000E+00
  9.844789E-01  1.377988E-02  3.666667E-01  9.944145E-01  5.148571E-03  5.609709E-17  2.235902E-02 -6.735359E-03 -7.765853E-04  3.854443E-02  0.000000E+00
  9.782622E-01  1.562977E-02  3.666667E-01  9.881322E-01  7.017987E-03  1.682913E-16  1.226283E-02 -3.605572E-03 -6.196031E-04  7.675881E-03  0.000000E+00
  9.712761E-01  1.772901E-02  3.666667E-01  9.810723E-01  9.139388E-03  1.121942E-16  8.232524E-03 -2.458447E-03 -5.021819E-04 -1.016313E-02  0.000000E+00
  9.634271E-01  2.004573E-02  3.666667E-01  9.731405E-01  1.148056E-02  1.121942E-16  7.801294E-03 -2.264561E-03 -4.471502E-04 -3.532097E-02  0.000000E+00
  9.546204E-01  2.256650E-02  3.666667E-01  9.642408E-01  1.402794E-02  1.121942E-16  9.053976E-03 -2.531206E-03 -4.352173E-04 -6.451020E-02  0.000000E+00
  9.447561E-01  2.527309E-02  3.666667E-01  9.542725E-01  1.676310E-02  5.609709E-17  1.094532E-02 -2.933844E-03 -4.438908E-04 -9.526327E-02  0.000000E+00
  9.337360E-01  2.816939E-02  3.666667E-01  9.431360E-01  1.968997E-02  0.000000E+00  1.302265E-02 -3.338818E-03 -4.599015E-04 -1.280103E-01  0.000000E+00
  9.214586E-01  3.125009E-02  3.666667E-01  9.307290E-01  2.280319E-02  0.000000E+00  1.513958E-02 -3.703067E-03 -4.771090E-04 -1.622143E-01  0.000000E+00
  9.078232E-01  3.450893E-02  3.666667E-01  9.169497E-01  2.609642E-02  2.804854E-16  1.721805E-02 -4.007121E-03 -4.916473E-04 -1.977502E-01  0.000000E+00
  8.927319E-01  3.793620E-02  3.666667E-01  9.016991E-01  2.955987E-02  5.609709E-17  1.917140E-02 -4.220914E-03 -5.006209E-04 -2.322665E-01  0.000000E+00
  8.760894E-01  4.149463E-02  3.666667E-01  8.848809E-01  3.315586E-02  0.000000E+00  2.090239E-02 -4.335102E-03 -5.024147E-04 -2.638943E-01  0.000000E+00
  8.578153E-01  4.517457E-02  3.666667E-01  8.664139E-01  3.687464E-02  3.057291E-14  2.235251E-02 -4.371025E-03 -4.967980E-04 -2.917928E-01  0.000000E+00
  8.378441E-01  4.896910E-02  3.666667E-01  8.462320E-01  4.070923E-02  3.074120E-14  2.353966E-02 -4.365652E-03 -4.844941E-04 -3.166439E-01  0.000000E+00
  8.161333E-01  5.289764E-02  3.666667E-01  8.242920E-01  4.467923E-02  1.121942E-16  2.456485E-02 -4.371324E-03 -4.662658E-04 -3.440750E-01  0.000000E+00
  7.926668E-01  5.699905E-02  3.666667E-01  8.005778E-01  4.882394E-02  1.121942E-16  2.561934E-02 -4.405456E-03 -4.429196E-04 -3.790398E-01  0.000000E+00
  7.674503E-01  6.125936E-02  3.666667E-01  7.750951E-01  5.312921E-02  1.682913E-16  2.688464E-02 -4.424516E-03 -4.153544E-04 -4.200341E-01  0.000000E+00
  7.405094E-01  6.557295E-02  3.666667E-01  7.478698E-01  5.748834E-02  3.062901E-14  2.838470E-02 -4.375440E-03 -3.844691E-04 -4.617356E-01  0.000000E+00
  7.119026E-01  6.981189E-02  3.666667E-01  7.189611E-01  6.177202E-02  1.682913E-16  2.997694E-02 -4.240588E-03 -3.517398E-04 -4.997620E-01  0.000000E+00
  6.817298E-01  7.387712E-02  3.666667E-01  6.884698E-01  6.588016E-02  5.609709E-17  3.148039E-02 -4.038340E-03 -3.198645E-04 -5.335035E-01  0.000000E+00
  6.501347E-01  7.772127E-02  3.666667E-01  6.565412E-01  6.976488E-02  5.609709E-17  3.280151E-02 -3.813089E-03 -2.921836E-04 -5.675694E-01  0.000000E+00
  6.173024E-01  8.135044E-02  3.666667E-01  6.233624E-01  7.343236E-02  1.121942E-16  3.401242E-02 -3.579347E-03 -2.715059E-04 -6.057151E-01  0.000000E+00
  5.834550E-01  8.472485E-02  3.666667E-01  5.891577E-01  7.684238E-02  5.609709E-17  3.527955E-02 -3.302266E-03 -2.591141E-04 -6.467811E-01  0.000000E+00
  5.488457E-01  8.774760E-02  3.666667E-01  5.541831E-01  7.989704E-02  2.804854E-16  3.669832E-02 -2.965122E-03 -2.542629E-04 -6.900761E-01  0.000000E+00
  5.137559E-01  9.034864E-02  3.666667E-01  5.187229E-01  8.252554E-02  1.121942E-16  3.828418E-02 -2.565909E-03 -2.548387E-04 -7.356503E-01  0.000000E+00
  4.784836E-01  9.246013E-02  3.666667E-01  4.830783E-01  8.465932E-02  2.243883E-16  4.002828E-02 -2.087095E-03 -2.583139E-04 -7.821373E-01  0.000000E+00
  4.433339E-01  9.402142E-02  3.666667E-01  4.475575E-01  8.623709E-02  5.609709E-17  4.190715E-02 -1.512246E-03 -2.622248E-04 -8.286724E-01  0.000000E+00
  4.086096E-01  9.498555E-02  3.666667E-01  4.124668E-01  8.721139E-02  1.121942E-16  4.390056E-02 -8.391606E-04 -2.644611E-04 -8.767341E-01  0.000000E+00
  3.746012E-01  9.534074E-02  3.666667E-01  3.780994E-01  8.757033E-02  5.609709E-17  4.603240E-02 -5.796460E-05 -2.636571E-04 -9.284294E-01  0.000000E+00
  3.415766E-01  9.507872E-02  3.666667E-01  3.447262E-01  8.730554E-02  1.682913E-16  4.838218E-02  8.853065E-04 -2.595152E-04 -9.823645E-01  0.000000E+00
  3.097730E-01  9.416877E-02  3.666667E-01  3.125869E-01  8.638599E-02  2.243883E-16  5.098547E-02  2.053967E-03 -2.523689E-04 -1.034851E+00  0.000000E+00
  2.793901E-01  9.259273E-02  3.666667E-01  2.818834E-01  8.479331E-02  5.609709E-17  5.376269E-02  3.478796E-03 -2.425968E-04 -1.082800E+00  0.000000E+00
  2.505887E-01  9.036092E-02  3.666667E-01  2.527779E-01  8.253795E-02  3.057291E-14  5.654836E-02  5.151929E-03 -2.304603E-04 -1.123999E+00  0.000000E+00
  2.234888E-01  8.752286E-02  3.666667E-01  2.253920E-01  7.966993E-02  2.243883E-16  5.920176E-02  7.090814E-03 -2.164894E-04 -1.153022E+00  0.000000E+00
  1.981749E-01  8.410877E-02  3.666667E-01  1.998109E-01  7.621980E-02  1.121942E-16  6.154113E-02  9.267264E-03 -2.012334E-04 -1.164535E+00  0.000000E+00
  1.746916E-01  8.019874E-02  3.666667E-01  1.760797E-01  7.226850E-02  3.068511E-14  6.335710E-02  1.158910E-02 -1.851645E-04 -1.156125E+00  0.000000E+00
  1.530489E-01  7.587631E-02  3.666667E-01  1.542085E-01  6.790044E-02  3.074120E-14  6.449812E-02  1.392383E-02 -1.687450E-04 -1.129327E+00  0.000000E+00
  1.332206E-01  7.126314E-02  3.666667E-01  1.341709E-01  6.323858E-02  5.609709E-17  6.494260E-02  1.617072E-02 -1.524044E-04 -1.088388E+00  0.000000E+00
  1.151568E-01  6.645581E-02  3.666667E-01  1.159165E-01  5.838051E-02  2.243883E-16  6.478478E-02  1.828716E-02 -1.364695E-04 -1.038563E+00  0.000000E+00
  9.878428E-02  6.155380E-02  3.666667E-01  9.937116E-02  5.342675E-02  1.682913E-16  6.413056E-02  2.025110E-02 -1.209729E-04 -9.849413E-01  0.000000E+00
  8.401632E-02  5.663364E-02  3.666667E-01  8.444731E-02  4.845467E-02 -1.121942E-16  6.310937E-02  2.219461E-02 -1.061484E-04 -9.227569E-01  0.000000E+00
  7.076936E-02  5.171470E-02  3.666667E-01  7.106052E-02  4.348380E-02  5.609709E-17  6.161409E-02  2.404751E-02 -9.200705E-05 -8.482277E-01  0.000000E+00
  5.893902E-02  4.685795E-02  3.666667E-01  5.910531E-02  3.857579E-02  5.609709E-17  5.944032E-02  2.562217E-02 -7.856170E-05 -7.579476E-01  0.000000E+00
  4.842597E-02  4.209476E-02  3.666667E-01  4.848129E-02  3.376233E-02  1.121942E-16  5.644893E-02  2.668602E-02 -6.595735E-05 -6.527669E-01  0.000000E+00
  3.911374E-02  3.749217E-02  3.666667E-01  3.907077E-02  2.911115E-02  1.121942E-16  5.259963E-02  2.698699E-02 -5.412774E-05 -5.461306E-01  0.000000E+00
  3.088812E-02  3.309740E-02  3.666667E-01  3.075833E-02  2.467000E-02  2.243883E-16  4.801890E-02  2.646838E-02 -4.283017E-05 -4.572246E-01  0.000000E+00
  2.363417E-02  2.895512E-02  3.666667E-01  2.342781E-02  2.048400E-02  1.682913E-16  4.290048E-02  2.538817E-02 -3.207929E-05 -3.809386E-01  0.000000E+00
  1.726952E-02  2.504507E-02  3.666667E-01  1.699598E-02  1.653267E-02  3.365825E-16  3.718432E-02  2.426115E-02 -2.291525E-05 -2.584954E-01  0.000000E+00
  1.179184E-02  2.122096E-02  3.666667E-01  1.146048E-02  1.266819E-02  2.804854E-16  3.031750E-02  2.173066E-02 -1.555572E-05 -1.364756E-01  0.000000E+00
  7.008801E-03  1.767705E-02  3.666667E-01  6.626956E-03  9.086881E-03  1.121942E-16  2.225171E-02  1.797797E-02 -9.353919E-06 -4.539246E-02  0.000000E+00
  9.900000E-01  1.171966E-02  3.666667E-01  9.999939E-01  3.066601E-03  1.682913E-16  6.369883E-02  6.453126E-03  5.683754E-04  3.109965E-02  0.000000E+00
  9.900000E-01  1.175731E-02  3.666667E-01  9.999939E-01  3.104649E-03  1.121942E-16  4.370226E-02 -4.211176E-03  1.191919E-04 -1.392490E-01  0.000000E+00
  9.900000E-01  1.181430E-02  3.666667E-01  9.999939E-01  3.162244E-03  1.121942E-16  5.979702E-03 -5.310466E-02 -4.888894E-04 -9.028569E-02  0.000000E+00
  9.900000E-01  1.188943E-02  3.666667E-01  9.999939E-01  3.238167E-03  1.121942E-16 -1.048988E-02 -4.510065E-02 -8.393691E-04 -3.814490E-02  0.000000E+00
  9.900000E-01  1.197226E-02  3.666667E-01  9.999939E-01  3.321877E-03 -5.609709E-17 -7.232697E-03 -4.036000E-03 -8.180891E-04 -5.107102E-02  0.000000E+00
  9.900000E-01  1.204739E-02  3.666667E-01  9.999939E-01  3.397800E-03  0.000000E+00  6.196474E-03 -9.999764E-04 -6.754522E-04 -8.253782E-02  0.000000E+00
  9.900000E-01  1.210439E-02  3.666667E-01  9.999939E-01  3.455396E-03  2.243883E-16  2.630480E-02 -2.827980E-02 -7.619359E-04 -9.820154E-02  0.000000E+00
  9.900000E-01  1.214204E-02  3.666667E-01  9.999939E-01  3.493443E-03  1.682913E-16  3.313858E-02 -2.597160E-02 -8.750575E-04 -6.174382E-03  0.000000E+00
  7.008801E-03  5.708284E-03  3.666667E-01  6.626956E-03 -3.008221E-03  2.243883E-16  2.332002E-02 -5.395480E-03  7.867029E-05  5.055172E-01  0.000000E+00
  1.236474E-02  4.567920E-03  3.666667E-01  1.203943E-02 -4.160622E-03  1.121942E-16  2.527563E-02 -4.035005E-03  8.933221E-05  5.178519E-01  0.000000E+00
  1.851796E-02  3.854410E-03  3.666667E-01  1.825760E-02 -4.881664E-03  0.000000E+00  2.754358E-02 -2.581910E-03  9.758562E-05  3.947978E-01  0.000000E+00
  2.549652E-02  3.365221E-03  3.666667E-01  2.530982E-02 -5.376016E-03  1.121942E-16  2.916363E-02 -1.473101E-03  1.073918E-04  3.410973E-01  0.000000E+00
  3.337042E-02  3.113555E-03  3.666667E-01  3.326682E-02 -5.630339E-03  1.682913E-16  3.018840E-02 -6.325547E-04  1.162794E-04  3.251798E-01  0.000000E+00
  4.221327E-02  3.018628E-03  3.666667E-01  4.220302E-02 -5.726268E-03  1.121942E-16  3.069552E-02 -8.387603E-05  1.230635E-04  3.155511E-01  0.000000E+00
  5.211509E-02  3.065729E-03  3.666667E-01  5.220935E-02 -5.678669E-03  0.000000E+00  3.077770E-02  3.060220E-04  1.282104E-04  3.028600E-01  0.000000E+00
  6.316987E-02  3.231702E-03  3.666667E-01  6.338082E-02 -5.510944E-03  1.682913E-16  3.067726E-02  5.366974E-04  1.327209E-04  2.942360E-01  0.000000E+00