 Title= "ADflow Lift Distribution Data"
Variables = "eta" "CoordinateX" "CoordinateY" "CoordinateZ" "Lift" "Drag" "Moment" "Normalized Lift" "Normalized Drag" "Normalized Moment" "CL" "CD" "CM" "CLp" "CDp" "CMp" "CLv" "CDv" "CMv" "Elliptical" "thickness" "twist" "chord" "fx" "fy" "fz" 
Zone T= "LiftDist_01 allWalls: : z normal"
 I=          150
 DATAPACKING=BLOCK
  0.000000E+00
  6.711405E-03
  1.342281E-02
  2.013422E-02
  2.684563E-02
  3.355704E-02
  4.026845E-02
  4.697986E-02
  5.369127E-02
  6.040268E-02
  6.711409E-02
  7.382550E-02
  8.053691E-02
  8.724832E-02
  9.395973E-02
  1.006711E-01
  1.073825E-01
  1.140940E-01
  1.208054E-01
  1.275168E-01
  1.342282E-01
  1.409396E-01
  1.476510E-01
  1.543624E-01
  1.610738E-01
  1.677852E-01
  1.744966E-01
  1.812081E-01
  1.879195E-01
  1.946309E-01
  2.013423E-01
  2.080537E-01
  2.147651E-01
  2.214765E-01
  2.281879E-01
  2.348993E-01
  2.416107E-01
  2.483221E-01
  2.550336E-01
  2.617450E-01
  2.684564E-01
  2.751678E-01
  2.818792E-01
  2.885906E-01
  2.953020E-01
  3.020134E-01
  3.087248E-01
  3.154362E-01
  3.221476E-01
  3.288591E-01
  3.355705E-01
  3.422819E-01
  3.489933E-01
  3.557047E-01
  3.624161E-01
  3.691275E-01
  3.758389E-01
  3.825503E-01
  3.892617E-01
  3.959732E-01
  4.026846E-01
  4.093960E-01
  4.161074E-01
  4.228188E-01
  4.295302E-01
  4.362416E-01
  4.429530E-01
  4.496644E-01
  4.563758E-01
  4.630872E-01
  4.697987E-01
  4.765101E-01
  4.832215E-01
  4.899329E-01
  4.966443E-01
  5.033557E-01
  5.100671E-01
  5.167785E-01
  5.234899E-01
  5.302013E-01
  5.369128E-01
  5.436242E-01
  5.503356E-01
  5.570470E-01
  5.637584E-01
  5.704698E-01
  5.771812E-01
  5.838926E-01
  5.906040E-01
  5.973154E-01
  6.040268E-01
  6.107383E-01
  6.174497E-01
  6.241611E-01
  6.308725E-01
  6.375839E-01
  6.442953E-01
  6.510067E-01
  6.577181E-01
  6.644295E-01
  6.711409E-01
  6.778524E-01
  6.845638E-01
  6.912752E-01
  6.979866E-01
  7.046980E-01
  7.114094E-01
  7.181208E-01
  7.248322E-01
  7.315436E-01
  7.382550E-01
  7.449664E-01
  7.516779E-01
  7.583893E-01
  7.651007E-01
  7.718121E-01
  7.785235E-01
  7.852349E-01
  7.919463E-01
  7.986577E-01
  8.053691E-01
  8.120805E-01
  8.187919E-01
  8.255034E-01
  8.322148E-01
  8.389262E-01
  8.456376E-01
  8.523490E-01
  8.590604E-01
  8.657718E-01
  8.724832E-01
  8.791946E-01
  8.859060E-01
  8.926175E-01
  8.993289E-01
  9.060403E-01
  9.127517E-01
  9.194631E-01
  9.261745E-01
  9.328859E-01
  9.395973E-01
  9.463087E-01
  9.530201E-01
  9.597315E-01
  9.664430E-01
  9.731544E-01
  9.798658E-01
  9.865772E-01
  9.932886E-01
  1.000000E+00
  0.000000E+00
  0.000000E+00
  0.000000E+00
  0.000000E+00
  0.000000E+00
  0.000000E+00
  0.000000E+00
  0.000000E+00
  0.000000E+00
  0.000000E+00
  0.000000E+00
  0.000000E+00
  0.000000E+00
  0.000000E+00
  0.000000E+00
  0.000000E+00
  0.000000E+00
  0.000000E+00
  0.000000E+00
  0.000000E+00
  0.000000E+00
  0.000000E+00
  0.000000E+00
  0.000000E+00
  0.000000E+00
  0.000000E+00
  0.000000E+00
  0.000000E+00
  0.000000E+00
  0.000000E+00
  0.000000E+00
  0.000000E+00
  0.000000E+00
  0.000000E+00
  0.000000E+00
  0.000000E+00
  0.000000E+00
  0.000000E+00
  0.000000E+00
  0.000000E+00
  0.000000E+00
  0.000000E+00
  0.000000E+00
  0.000000E+00
  0.000000E+00
  0.000000E+00
  0.000000E+00
  0.000000E+00
  0.000000E+00
  0.000000E+00
  0.000000E+00
  0.000000E+00
  0.000000E+00
  0.000000E+00
  0.000000E+00
  0.000000E+00
  0.000000E+00
  0.000000E+00
  0.000000E+00
  0.000000E+00
  0.000000E+00
  0.000000E+00
  0.000000E+00
  0.000000E+00
  0.000000E+00
  0.000000E+00
  0.000000E+00
  0.000000E+00
  0.000000E+00
  0.000000E+00
  0.000000E+00
  0.000000E+00
  0.000000E+00
  0.000000E+00
  0.000000E+00
  0.000000E+00
  0.000000E+00
  0.000000E+00
  0.000000E+00
  0.000000E+00
  0.000000E+00
  0.000000E+00
  0.000000E+00
  0.000000E+00
  0.000000E+00
  0.000000E+00
  0.000000E+00
  0.000000E+00
  0.000000E+00
  0.000000E+00
  0.000000E+00
  0.000000E+00
  0.000000E+00
  0.000000E+00
  0.000000E+00
  0.000000E+00
  0.000000E+00
  0.000000E+00
  0.000000E+00
  0.000000E+00
  0.000000E+00
  0.000000E+00
  0.000000E+00
  0.000000E+00
  0.000000E+00
  0.000000E+00
  0.000000E+00
  0.000000E+00
  0.000000E+00
  0.000000E+00
  0.000000E+00
  0.000000E+00
  0.000000E+00
  0.000000E+00
  0.000000E+00
  0.000000E+00
  0.000000E+00
  0.000000E+00
  0.000000E+00
  0.000000E+00
  0.000000E+00
  0.000000E+00
  0.000000E+00
  0.000000E+00
  0.000000E+00
  0.000000E+00
  0.000000E+00
  0.000000E+00
  0.000000E+00
  0.000000E+00
  0.000000E+00
  0.000000E+00
  0.000000E+00
  0.000000E+00
  0.000000E+00
  0.000000E+00
  0.000000E+00
  0.000000E+00
  0.000000E+00
  0.000000E+00
  0.000000E+00
  0.000000E+00
  0.000000E+00
  0.000000E+00
  0.000000E+00
  0.000000E+00
  0.000000E+00
  0.000000E+00
  0.000000E+00
  0.000000E+00
  0.000000E+00
  0.000000E+00
  0.000000E+00
  0.000000E+00
  0.000000E+00
  0.000000E+00
  0.000000E+00
  0.000000E+00
  0.000000E+00
  0.000000E+00
  0.000000E+00
  0.000000E+00
  0.000000E+00
  0.000000E+00
  0.000000E+00
  0.000000E+00
  0.000000E+00
  0.000000E+00
  0.000000E+00
  0.000000E+00
  0.000000E+00
  0.000000E+00
  0.000000E+00
  0.000000E+00
  0.000000E+00
  0.000000E+00
  0.000000E+00
  0.000000E+00
  0.000000E+00
  0.000000E+00
  0.000000E+00
  0.000000E+00
  0.000000E+00
  0.000000E+00
  0.000000E+00
  0.000000E+00
  0.000000E+00
  0.000000E+00
  0.000000E+00
  0.000000E+00
  0.000000E+00
  0.000000E+00
  0.000000E+00
  0.000000E+00
  0.000000E+00
  0.000000E+00
  0.000000E+00
  0.000000E+00
  0.000000E+00
  0.000000E+00
  0.000000E+00
  0.000000E+00
  0.000000E+00
  0.000000E+00
  0.000000E+00
  0.000000E+00
  0.000000E+00
  0.000000E+00
  0.000000E+00
  0.000000E+00
  0.000000E+00
  0.000000E+00
  0.000000E+00
  0.000000E+00
  0.000000E+00
  0.000000E+00
  0.000000E+00
  0.000000E+00
  0.000000E+00
  0.000000E+00
  0.000000E+00
  0.000000E+00
  0.000000E+00
  0.000000E+00
  0.000000E+00
  0.000000E+00
  0.000000E+00
  0.000000E+00
  0.000000E+00
  0.000000E+00
  0.000000E+00
  0.000000E+00
  0.000000E+00
  0.000000E+00
  0.000000E+00
  0.000000E+00
  0.000000E+00
  0.000000E+00
  0.000000E+00
  0.000000E+00
  0.000000E+00
  0.000000E+00
  0.000000E+00
  0.000000E+00
  0.000000E+00
  0.000000E+00
  0.000000E+00
  0.000000E+00
  0.000000E+00
  0.000000E+00
  0.000000E+00
  0.000000E+00
  0.000000E+00
  0.000000E+00
  0.000000E+00
  0.000000E+00
  0.000000E+00
  0.000000E+00
  0.000000E+00
  0.000000E+00
  0.000000E+00
  0.000000E+00
  0.000000E+00
  0.000000E+00
  0.000000E+00
  0.000000E+00
  0.000000E+00
  0.000000E+00
  0.000000E+00
  0.000000E+00
  0.000000E+00
  0.000000E+00
  0.000000E+00
  0.000000E+00
  0.000000E+00
  0.000000E+00
  0.000000E+00
  0.000000E+00
  0.000000E+00
  0.000000E+00
  0.000000E+00
  0.000000E+00
  0.000000E+00
  0.000000E+00
  0.000000E+00
  0.000000E+00
  0.000000E+00
  0.000000E+00
  0.000000E+00
  0.000000E+00
  0.000000E+00
  0.000000E+00
  0.000000E+00
  0.000000E+00
  0.000000E+00
  0.000000E+00
  0.000000E+00
  0.000000E+00
  0.000000E+00
  0.000000E+00
  1.000000E-08
  1.691809E-02
  3.383618E-02
  5.075427E-02
  6.767237E-02
  8.459046E-02
  1.015085E-01
  1.184266E-01
  1.353447E-01
  1.522628E-01
  1.691809E-01
  1.860990E-01
  2.030171E-01
  2.199352E-01
  2.368533E-01
  2.537714E-01
  2.706895E-01
  2.876076E-01
  3.045256E-01
  3.214437E-01
  3.383618E-01
  3.552799E-01
  3.721980E-01
  3.891161E-01
  4.060342E-01
  4.229523E-01
  4.398704E-01
  4.567885E-01
  4.737066E-01
  4.906247E-01
  5.075427E-01
  5.244608E-01
  5.413789E-01
  5.582970E-01
  5.752151E-01
  5.921332E-01
  6.090513E-01
  6.259694E-01
  6.428875E-01
  6.598056E-01
  6.767237E-01
  6.936418E-01
  7.105598E-01
  7.274779E-01
  7.443960E-01
  7.613141E-01
  7.782322E-01
  7.951503E-01
  8.120684E-01
  8.289865E-01
  8.459046E-01
  8.628227E-01
  8.797408E-01
  8.966589E-01
  9.135769E-01
  9.304950E-01
  9.474131E-01
  9.643312E-01
  9.812493E-01
  9.981674E-01
  1.015085E+00
  1.032004E+00
  1.048922E+00
  1.065840E+00
  1.082758E+00
  1.099676E+00
  1.116594E+00
  1.133512E+00
  1.150430E+00
  1.167348E+00
  1.184266E+00
  1.201185E+00
  1.218103E+00
  1.235021E+00
  1.251939E+00
  1.268857E+00
  1.285775E+00
  1.302693E+00
  1.319611E+00
  1.336529E+00
  1.353447E+00
  1.370365E+00
  1.387284E+00
  1.404202E+00
  1.421120E+00
  1.438038E+00
  1.454956E+00
  1.471874E+00
  1.488792E+00
  1.505710E+00
  1.522628E+00
  1.539546E+00
  1.556464E+00
  1.573383E+00
  1.590301E+00
  1.607219E+00
  1.624137E+00
  1.641055E+00
  1.657973E+00
  1.674891E+00
  1.691809E+00
  1.708727E+00
  1.725645E+00
  1.742563E+00
  1.759482E+00
  1.776400E+00
  1.793318E+00
  1.810236E+00
  1.827154E+00
  1.844072E+00
  1.860990E+00
  1.877908E+00
  1.894826E+00
  1.911744E+00
  1.928662E+00
  1.945581E+00
  1.962499E+00
  1.979417E+00
  1.996335E+00
  2.013253E+00
  2.030171E+00
  2.047089E+00
  2.064007E+00
  2.080925E+00
  2.097843E+00
  2.114761E+00
  2.131680E+00
  2.148598E+00
  2.165516E+00
  2.182434E+00
  2.199352E+00
  2.216270E+00
  2.233188E+00
  2.250106E+00
  2.267024E+00
  2.283942E+00
  2.300860E+00
  2.317779E+00
  2.334697E+00
  2.351615E+00
  2.368533E+00
  2.385451E+00
  2.402369E+00
  2.419287E+00
  2.436205E+00
  2.453123E+00
  2.470041E+00
  2.486959E+00
  2.503878E+00
  2.520796E+00
  1.098183E+04
  1.098030E+04
  1.097877E+04
  1.097725E+04
  1.097572E+04
  1.097419E+04
  1.097266E+04
  1.097114E+04
  1.096961E+04
  1.096519E+04
  1.096065E+04
  1.095610E+04
  1.095156E+04
  1.094702E+04
  1.094248E+04
  1.093794E+04
  1.093252E+04
  1.092526E+04
  1.091800E+04
  1.091073E+04
  1.090347E+04
  1.089621E+04
  1.088895E+04
  1.088150E+04
  1.087148E+04
  1.086145E+04
  1.085143E+04
  1.084140E+04
  1.083138E+04
  1.082135E+04
  1.081081E+04
  1.079779E+04
  1.078477E+04
  1.077175E+04
  1.075874E+04
  1.074572E+04
  1.073270E+04
  1.071773E+04
  1.070160E+04
  1.068546E+04
  1.066933E+04
  1.065320E+04
  1.063706E+04
  1.061967E+04
  1.060043E+04
  1.058118E+04
  1.056194E+04
  1.054269E+04
  1.052345E+04
  1.050263E+04
  1.048019E+04
  1.045776E+04
  1.043532E+04
  1.041289E+04
  1.039046E+04
  1.036507E+04
  1.033929E+04
  1.031351E+04
  1.028772E+04
  1.026194E+04
  1.023430E+04
  1.020511E+04
  1.017592E+04
  1.014673E+04
  1.011754E+04
  1.008662E+04
  1.005384E+04
  1.002105E+04
  9.988269E+03
  9.955485E+03
  9.920054E+03
  9.883292E+03
  9.846530E+03
  9.809769E+03
  9.772620E+03
  9.731654E+03
  9.690690E+03
  9.649726E+03
  9.608762E+03
  9.564617E+03
  9.519403E+03
  9.474190E+03
  9.428978E+03
  9.381128E+03
  9.331670E+03
  9.282214E+03
  9.232760E+03
  9.180582E+03
  9.127241E+03
  9.073903E+03
  9.020568E+03
  8.964041E+03
  8.907440E+03
  8.850845E+03
  8.792935E+03
  8.733333E+03
  8.673745E+03
  8.613945E+03
  8.551394E+03
  8.488871E+03
  8.426378E+03
  8.361597E+03
  8.296551E+03
  8.231550E+03
  8.164233E+03
  8.096549E+03
  8.028921E+03
  7.957753E+03
  7.886518E+03
  7.814301E+03
  7.738619E+03
  7.662993E+03
  7.584279E+03
  7.503744E+03
  7.422444E+03
  7.336786E+03
  7.251167E+03
  7.161409E+03
  7.070693E+03
  6.977172E+03
  6.881608E+03
  6.783922E+03
  6.683732E+03
  6.581595E+03
  6.477040E+03
  6.370390E+03
  6.261919E+03
  6.150947E+03
  6.039001E+03
  5.923955E+03
  5.807899E+03
  5.690028E+03
  5.570116E+03
  5.448906E+03
  5.326020E+03
  5.200848E+03
  5.073926E+03
  4.945093E+03
  4.814360E+03
  4.682495E+03
  4.554199E+03
  4.439530E+03
  4.354567E+03
  4.326345E+03
  4.416204E+03
  4.547806E+03
  4.293233E+03
  4.578808E+03
  1.332236E+03
  7.356274E-03
  5.975656E+02
  5.975301E+02
  5.974945E+02
  5.974590E+02
  5.974235E+02
  5.973879E+02
  5.973524E+02
  5.973169E+02
  5.972813E+02
  5.972322E+02
  5.971825E+02
  5.971328E+02
  5.970832E+02
  5.970335E+02
  5.969838E+02
  5.969342E+02
  5.969081E+02
  5.969314E+02
  5.969548E+02
  5.969782E+02
  5.970016E+02
  5.970250E+02
  5.970484E+02
  5.970760E+02
  5.971613E+02
  5.972467E+02
  5.973321E+02
  5.974176E+02
  5.975031E+02
  5.975886E+02
  5.976759E+02
  5.977714E+02
  5.978669E+02
  5.979626E+02
  5.980583E+02
  5.981541E+02
  5.982500E+02
  5.983440E+02
  5.984371E+02
  5.985303E+02
  5.986237E+02
  5.987171E+02
  5.988107E+02
  5.989003E+02
  5.989838E+02
  5.990675E+02
  5.991514E+02
  5.992355E+02
  5.993198E+02
  5.993626E+02
  5.993628E+02
  5.993633E+02
  5.993640E+02
  5.993649E+02
  5.993661E+02
  5.991981E+02
  5.990073E+02
  5.988167E+02
  5.986262E+02
  5.984359E+02
  5.981256E+02
  5.977156E+02
  5.973058E+02
  5.968961E+02
  5.964866E+02
  5.959820E+02
  5.953740E+02
  5.947662E+02
  5.941585E+02
  5.935510E+02
  5.928308E+02
  5.920541E+02
  5.912775E+02
  5.905011E+02
  5.897160E+02
  5.888453E+02
  5.879749E+02
  5.871046E+02
  5.862347E+02
  5.852605E+02
  5.842515E+02
  5.832428E+02
  5.822344E+02
  5.809655E+02
  5.795376E+02
  5.781097E+02
  5.766818E+02
  5.747758E+02
  5.726651E+02
  5.705541E+02
  5.684429E+02
  5.655307E+02
  5.625987E+02
  5.596672E+02
  5.562724E+02
  5.522827E+02
  5.482960E+02
  5.442232E+02
  5.390655E+02
  5.339160E+02
  5.287746E+02
  5.229855E+02
  5.171214E+02
  5.112700E+02
  5.053463E+02
  4.994215E+02
  4.935105E+02
  4.879155E+02
  4.823431E+02
  4.769109E+02
  4.719230E+02
  4.669435E+02
  4.624278E+02
  4.581888E+02
  4.540780E+02
  4.506402E+02
  4.472043E+02
  4.443957E+02
  4.417362E+02
  4.394756E+02
  4.375065E+02
  4.357534E+02
  4.342548E+02
  4.328417E+02
  4.315351E+02
  4.302469E+02
  4.289768E+02
  4.276978E+02
  4.264204E+02
  4.251548E+02
  4.239299E+02
  4.227729E+02
  4.217985E+02
  4.209995E+02
  4.204707E+02
  4.204722E+02
  4.210005E+02
  4.222370E+02
  4.244678E+02
  4.283271E+02
  4.352689E+02
  4.475216E+02
  4.689254E+02
  5.058165E+02
  5.708723E+02
  6.561809E+02
  6.984908E+02
  8.228172E+02
  3.675729E+02
  2.361651E-03
  2.005311E+03
  2.004950E+03
  2.004589E+03
  2.004228E+03
  2.003867E+03
  2.003506E+03
  2.003144E+03
  2.002783E+03
  2.002422E+03
  2.001405E+03
  2.000361E+03
  1.999317E+03
  1.998272E+03
  1.997228E+03
  1.996184E+03
  1.995140E+03
  1.993904E+03
  1.992265E+03
  1.990625E+03
  1.988986E+03
  1.987347E+03
  1.985708E+03
  1.984068E+03
  1.982384E+03
  1.980076E+03
  1.977768E+03
  1.975460E+03
  1.973152E+03
  1.970844E+03
  1.968537E+03
  1.966089E+03
  1.962976E+03
  1.959864E+03
  1.956751E+03
  1.953639E+03
  1.950527E+03
  1.947414E+03
  1.943765E+03
  1.939795E+03
  1.935824E+03
  1.931854E+03
  1.927883E+03
  1.923913E+03
  1.919620E+03
  1.914852E+03
  1.910083E+03
  1.905315E+03
  1.900547E+03
  1.895779E+03
  1.890669E+03
  1.885210E+03
  1.879751E+03
  1.874292E+03
  1.868833E+03
  1.863375E+03
  1.857397E+03
  1.851349E+03
  1.845301E+03
  1.839253E+03
  1.833205E+03
  1.826868E+03
  1.820291E+03
  1.813714E+03
  1.807138E+03
  1.800561E+03
  1.793680E+03
  1.786468E+03
  1.779255E+03
  1.772043E+03
  1.764847E+03
  1.757097E+03
  1.749077E+03
  1.741058E+03
  1.733038E+03
  1.724949E+03
  1.716182E+03
  1.707416E+03
  1.698650E+03
  1.689883E+03
  1.680668E+03
  1.671303E+03
  1.661937E+03
  1.652572E+03
  1.642859E+03
  1.632935E+03
  1.623011E+03
  1.613087E+03
  1.602982E+03
  1.592798E+03
  1.582616E+03
  1.572434E+03
  1.562504E+03
  1.552583E+03
  1.542663E+03
  1.532875E+03
  1.523259E+03
  1.513647E+03
  1.504029E+03
  1.494277E+03
  1.484537E+03
  1.474797E+03
  1.464720E+03
  1.454614E+03
  1.444527E+03
  1.433842E+03
  1.423071E+03
  1.412323E+03
  1.400187E+03
  1.388026E+03
  1.375406E+03
  1.361174E+03
  1.346964E+03
  1.331269E+03
  1.314694E+03
  1.297757E+03
  1.278772E+03
  1.259799E+03
  1.238966E+03
  1.217698E+03
  1.195303E+03
  1.172086E+03
  1.148221E+03
  1.123592E+03
  1.098590E+03
  1.073124E+03
  1.047509E+03
  1.021766E+03
  9.962122E+02
  9.707357E+02
  9.460462E+02
  9.218268E+02
  8.984527E+02
  8.764818E+02
  8.555512E+02
  8.360881E+02
  8.188418E+02
  8.033663E+02
  7.900084E+02
  7.793022E+02
  7.726201E+02
  7.736483E+02
  7.887003E+02
  8.289894E+02
  9.113049E+02
  1.062351E+03
  1.249782E+03
  1.300614E+03
  1.402917E+03
 -3.678374E+00
  2.288876E-08
  1.233029E+00
  1.232858E+00
  1.232686E+00
  1.232515E+00
  1.232343E+00
  1.232172E+00
  1.232000E+00
  1.231829E+00
  1.231657E+00
  1.231161E+00
  1.230651E+00
  1.230141E+00
  1.229631E+00
  1.229121E+00
  1.228611E+00
  1.228101E+00
  1.227493E+00
  1.226678E+00
  1.225862E+00
  1.225047E+00
  1.224231E+00
  1.223416E+00
  1.222601E+00
  1.221765E+00
  1.220639E+00
  1.219513E+00
  1.218388E+00
  1.217262E+00
  1.216137E+00
  1.215011E+00
  1.213827E+00
  1.212365E+00
  1.210904E+00
  1.209442E+00
  1.207981E+00
  1.206519E+00
  1.205057E+00
  1.203377E+00
  1.201565E+00
  1.199754E+00
  1.197942E+00
  1.196131E+00
  1.194320E+00
  1.192367E+00
  1.190206E+00
  1.188045E+00
  1.185884E+00
  1.183724E+00
  1.181563E+00
  1.179225E+00
  1.176706E+00
  1.174187E+00
  1.171668E+00
  1.169149E+00
  1.166630E+00
  1.163781E+00
  1.160886E+00
  1.157991E+00
  1.155096E+00
  1.152201E+00
  1.149097E+00
  1.145820E+00
  1.142542E+00
  1.139265E+00
  1.135987E+00
  1.132517E+00
  1.128835E+00
  1.125154E+00
  1.121473E+00
  1.117792E+00
  1.113814E+00
  1.109687E+00
  1.105559E+00
  1.101432E+00
  1.097260E+00
  1.092661E+00
  1.088061E+00
  1.083462E+00
  1.078863E+00
  1.073906E+00
  1.068830E+00
  1.063753E+00
  1.058677E+00
  1.053304E+00
  1.047751E+00
  1.042198E+00
  1.036645E+00
  1.030787E+00
  1.024798E+00
  1.018809E+00
  1.012821E+00
  1.006474E+00
  1.000119E+00
  9.937645E-01
  9.872624E-01
  9.805703E-01
  9.738799E-01
  9.671656E-01
  9.601423E-01
  9.531224E-01
  9.461057E-01
  9.388322E-01
  9.315288E-01
  9.242306E-01
  9.166724E-01
  9.090729E-01
  9.014796E-01
  8.934889E-01
  8.854907E-01
  8.773823E-01
  8.688848E-01
  8.603936E-01
  8.515556E-01
  8.425132E-01
  8.333850E-01
  8.237673E-01
  8.141542E-01
  8.040762E-01
  7.938907E-01
  7.833902E-01
  7.726604E-01
  7.616923E-01
  7.504431E-01
  7.389752E-01
  7.272359E-01
  7.152613E-01
  7.030823E-01
  6.906225E-01
  6.780533E-01
  6.651361E-01
  6.521054E-01
  6.388710E-01
  6.254074E-01
  6.117980E-01
  5.980005E-01
  5.839463E-01
  5.696956E-01
  5.552304E-01
  5.405518E-01
  5.257461E-01
  5.113411E-01
  4.984662E-01
  4.889266E-01
  4.857579E-01
  4.958471E-01
  5.106233E-01
  4.820401E-01
  5.141042E-01
  1.495822E-01
  8.259554E-07
  1.088232E+00
  1.088167E+00
  1.088103E+00
  1.088038E+00
  1.087973E+00
  1.087908E+00
  1.087844E+00
  1.087779E+00
  1.087714E+00
  1.087625E+00
  1.087534E+00
  1.087444E+00
  1.087353E+00
  1.087263E+00
  1.087173E+00
  1.087082E+00
  1.087035E+00
  1.087077E+00
  1.087120E+00
  1.087162E+00
  1.087205E+00
  1.087247E+00
  1.087290E+00
  1.087340E+00
  1.087496E+00
  1.087651E+00
  1.087807E+00
  1.087962E+00
  1.088118E+00
  1.088274E+00
  1.088433E+00
  1.088607E+00
  1.088781E+00
  1.088955E+00
  1.089129E+00
  1.089304E+00
  1.089478E+00
  1.089650E+00
  1.089819E+00
  1.089989E+00
  1.090159E+00
  1.090329E+00
  1.090500E+00
  1.090663E+00
  1.090815E+00
  1.090967E+00
  1.091120E+00
  1.091273E+00
  1.091427E+00
  1.091504E+00
  1.091505E+00
  1.091506E+00
  1.091507E+00
  1.091509E+00
  1.091511E+00
  1.091205E+00
  1.090858E+00
  1.090510E+00
  1.090163E+00
  1.089817E+00
  1.089252E+00
  1.088505E+00
  1.087759E+00
  1.087013E+00
  1.086267E+00
  1.085348E+00
  1.084241E+00
  1.083134E+00
  1.082027E+00
  1.080921E+00
  1.079609E+00
  1.078195E+00
  1.076781E+00
  1.075367E+00
  1.073937E+00
  1.072351E+00
  1.070766E+00
  1.069181E+00
  1.067597E+00
  1.065823E+00
  1.063986E+00
  1.062149E+00
  1.060312E+00
  1.058001E+00
  1.055401E+00
  1.052801E+00
  1.050200E+00
  1.046729E+00
  1.042885E+00
  1.039041E+00
  1.035196E+00
  1.029893E+00
  1.024554E+00
  1.019215E+00
  1.013033E+00
  1.005767E+00
  9.985067E-01
  9.910897E-01
  9.816970E-01
  9.723193E-01
  9.629561E-01
  9.524135E-01
  9.417344E-01
  9.310784E-01
  9.202907E-01
  9.095010E-01
  8.987364E-01
  8.885472E-01
  8.783994E-01
  8.685066E-01
  8.594232E-01
  8.503549E-01
  8.421314E-01
  8.344116E-01
  8.269254E-01
  8.206649E-01
  8.144078E-01
  8.092930E-01
  8.044496E-01
  8.003330E-01
  7.967470E-01
  7.935543E-01
  7.908253E-01
  7.882519E-01
  7.858723E-01
  7.835265E-01
  7.812134E-01
  7.788843E-01
  7.765580E-01
  7.742532E-01
  7.720225E-01
  7.699154E-01
  7.681410E-01
  7.666859E-01
  7.657230E-01
  7.657257E-01
  7.666878E-01
  7.689395E-01
  7.730021E-01
  7.800303E-01
  7.926720E-01
  8.149856E-01
  8.539642E-01
  9.211469E-01
  1.039621E+00
  1.194977E+00
  1.272028E+00
  1.498440E+00
  6.693903E-01
  4.300824E-06
  1.260155E+00
  1.259928E+00
  1.259701E+00
  1.259474E+00
  1.259247E+00
  1.259020E+00
  1.258793E+00
  1.258566E+00
  1.258339E+00
  1.257700E+00
  1.257044E+00
  1.256388E+00
  1.255731E+00
  1.255075E+00
  1.254419E+00
  1.253763E+00
  1.252986E+00
  1.251956E+00
  1.250926E+00
  1.249896E+00
  1.248866E+00
  1.247835E+00
  1.246805E+00
  1.245747E+00
  1.244297E+00
  1.242846E+00
  1.241396E+00
  1.239946E+00
  1.238495E+00
  1.237045E+00
  1.235507E+00
  1.233551E+00
  1.231595E+00
  1.229639E+00
  1.227683E+00
  1.225728E+00
  1.223772E+00
  1.221479E+00
  1.218984E+00
  1.216488E+00
  1.213993E+00
  1.211498E+00
  1.209003E+00
  1.206306E+00
  1.203309E+00
  1.200312E+00
  1.197316E+00
  1.194320E+00
  1.191323E+00
  1.188112E+00
  1.184682E+00
  1.181251E+00
  1.177821E+00
  1.174391E+00
  1.170960E+00
  1.167204E+00
  1.163403E+00
  1.159603E+00
  1.155802E+00
  1.152001E+00
  1.148019E+00
  1.143886E+00
  1.139754E+00
  1.135621E+00
  1.131488E+00
  1.127164E+00
  1.122631E+00
  1.118099E+00
  1.113567E+00
  1.109045E+00
  1.104175E+00
  1.099135E+00
  1.094095E+00
  1.089056E+00
  1.083972E+00
  1.078464E+00
  1.072955E+00
  1.067446E+00
  1.061937E+00
  1.056146E+00
  1.050261E+00
  1.044375E+00
  1.038490E+00
  1.032387E+00
  1.026150E+00
  1.019914E+00
  1.013678E+00
  1.007327E+00
  1.000928E+00
  9.945292E-01
  9.881309E-01
  9.818909E-01
  9.756562E-01
  9.694228E-01
  9.632720E-01
  9.572288E-01
  9.511888E-01
  9.451447E-01
  9.390163E-01
  9.328954E-01
  9.267750E-01
  9.204427E-01
  9.140919E-01
  9.077530E-01
  9.010387E-01
  8.942698E-01
  8.875157E-01
  8.798892E-01
  8.722471E-01
  8.643167E-01
  8.553733E-01
  8.464437E-01
  8.365805E-01
  8.261652E-01
  8.155214E-01
  8.035912E-01
  7.916686E-01
  7.785769E-01
  7.652116E-01
  7.511384E-01
  7.365489E-01
  7.215520E-01
  7.060749E-01
  6.903631E-01
  6.743601E-01
  6.582637E-01
  6.420867E-01
  6.260282E-01
  6.100186E-01
  5.945034E-01
  5.792838E-01
  5.645953E-01
  5.507886E-01
  5.376356E-01
  5.254049E-01
  5.145672E-01
  5.048422E-01
  4.964480E-01
  4.897201E-01
  4.855211E-01
  4.861672E-01
  4.956260E-01
  5.209440E-01
  5.726718E-01
  6.675904E-01
  7.853738E-01
  8.173172E-01
  8.816048E-01
 -2.311521E-03
  1.438349E-11
  9.724475E-01
  9.723123E-01
  9.721771E-01
  9.720419E-01
  9.719066E-01
  9.717714E-01
  9.716362E-01
  9.715010E-01
  9.713657E-01
  9.709742E-01
  9.705722E-01
  9.701701E-01
  9.697680E-01
  9.693659E-01
  9.689638E-01
  9.685617E-01
  9.680819E-01
  9.674389E-01
  9.667959E-01
  9.661530E-01
  9.655100E-01
  9.648670E-01
  9.642240E-01
  9.635648E-01
  9.626772E-01
  9.617896E-01
  9.609020E-01
  9.600144E-01
  9.591268E-01
  9.582393E-01
  9.573057E-01
  9.561531E-01
  9.550005E-01
  9.538479E-01
  9.526953E-01
  9.515427E-01
  9.503902E-01
  9.490651E-01
  9.476365E-01
  9.462080E-01
  9.447795E-01
  9.433511E-01
  9.419226E-01
  9.403828E-01
  9.386787E-01
  9.369747E-01
  9.352708E-01
  9.335669E-01
  9.318630E-01
  9.300194E-01
  9.280328E-01
  9.260463E-01
  9.240598E-01
  9.220733E-01
  9.200870E-01
  9.178394E-01
  9.155563E-01
  9.132733E-01
  9.109902E-01
  9.087073E-01
  9.062594E-01
  9.036746E-01
  9.010897E-01
  8.985050E-01
  8.959203E-01
  8.931829E-01
  8.902798E-01
  8.873767E-01
  8.844736E-01
  8.815705E-01
  8.784330E-01
  8.751777E-01
  8.719224E-01
  8.686671E-01
  8.653774E-01
  8.617498E-01
  8.581223E-01
  8.544948E-01
  8.508673E-01
  8.469581E-01
  8.429541E-01
  8.389503E-01
  8.349465E-01
  8.307092E-01
  8.263294E-01
  8.219498E-01
  8.175704E-01
  8.129498E-01
  8.082263E-01
  8.035031E-01
  7.987802E-01
  7.937747E-01
  7.887628E-01
  7.837514E-01
  7.786236E-01
  7.733462E-01
  7.680699E-01
  7.627748E-01
  7.572362E-01
  7.517000E-01
  7.461662E-01
  7.404294E-01
  7.346690E-01
  7.289123E-01
  7.229503E-01
  7.169555E-01
  7.109653E-01
  7.046616E-01
  6.983518E-01
  6.919549E-01
  6.852514E-01
  6.785527E-01
  6.715809E-01
  6.644481E-01
  6.572477E-01
  6.496620E-01
  6.420800E-01
  6.341320E-01
  6.260995E-01
  6.178190E-01
  6.093581E-01
  6.007094E-01
  5.918393E-01
  5.827968E-01
  5.735402E-01
  5.640981E-01
  5.544946E-01
  5.446696E-01
  5.347580E-01
  5.245718E-01
  5.142958E-01
  5.038587E-01
  4.932407E-01
  4.825072E-01
  4.716251E-01
  4.605401E-01
  4.493000E-01
  4.378905E-01
  4.263124E-01
  4.146338E-01
  4.032711E-01
  3.931149E-01
  3.855890E-01
  3.830872E-01
  3.910408E-01
  4.026902E-01
  3.801452E-01
  4.054274E-01
  1.443821E-01
  5.346018E-02
  5.291480E-02
  5.291165E-02
  5.290851E-02
  5.290536E-02
  5.290222E-02
  5.289907E-02
  5.289593E-02
  5.289278E-02
  5.288964E-02
  5.288529E-02
  5.288089E-02
  5.287650E-02
  5.287210E-02
  5.286771E-02
  5.286331E-02
  5.285892E-02
  5.285661E-02
  5.285868E-02
  5.286075E-02
  5.286283E-02
  5.286491E-02
  5.286698E-02
  5.286906E-02
  5.287151E-02
  5.287907E-02
  5.288664E-02
  5.289421E-02
  5.290179E-02
  5.290936E-02
  5.291694E-02
  5.292468E-02
  5.293314E-02
  5.294162E-02
  5.295010E-02
  5.295858E-02
  5.296707E-02
  5.297557E-02
  5.298391E-02
  5.299216E-02
  5.300043E-02
  5.300870E-02
  5.301699E-02
  5.302529E-02
  5.303322E-02
  5.304063E-02
  5.304805E-02
  5.305549E-02
  5.306295E-02
  5.307042E-02
  5.307422E-02
  5.307425E-02
  5.307430E-02
  5.307437E-02
  5.307446E-02
  5.307457E-02
  5.305970E-02
  5.304281E-02
  5.302593E-02
  5.300907E-02
  5.299222E-02
  5.296475E-02
  5.292844E-02
  5.289216E-02
  5.285588E-02
  5.281962E-02
  5.277494E-02
  5.272110E-02
  5.266728E-02
  5.261347E-02
  5.255968E-02
  5.249590E-02
  5.242712E-02
  5.235835E-02
  5.228959E-02
  5.222008E-02
  5.214297E-02
  5.206588E-02
  5.198882E-02
  5.191177E-02
  5.182550E-02
  5.173614E-02
  5.164681E-02
  5.155751E-02
  5.144513E-02
  5.131867E-02
  5.119222E-02
  5.106576E-02
  5.089698E-02
  5.071007E-02
  5.052313E-02
  5.033618E-02
  5.007830E-02
  4.981868E-02
  4.955910E-02
  4.925850E-02
  4.890524E-02
  4.855223E-02
  4.819160E-02
  4.773490E-02
  4.727892E-02
  4.682364E-02
  4.631099E-02
  4.579169E-02
  4.527349E-02
  4.474888E-02
  4.422415E-02
  4.370062E-02
  4.320507E-02
  4.271152E-02
  4.223037E-02
  4.178858E-02
  4.134752E-02
  4.094756E-02
  4.057210E-02
  4.020801E-02
  3.990356E-02
  3.959927E-02
  3.935057E-02
  3.911509E-02
  3.891497E-02
  3.874067E-02
  3.858552E-02
  3.845293E-02
  3.832791E-02
  3.821232E-02
  3.809837E-02
  3.798602E-02
  3.787287E-02
  3.775985E-02
  3.764786E-02
  3.753945E-02
  3.743704E-02
  3.735078E-02
  3.728001E-02
  3.723316E-02
  3.723322E-02
  3.727992E-02
  3.738929E-02
  3.758669E-02
  3.792826E-02
  3.854275E-02
  3.962749E-02
  4.152249E-02
  4.478880E-02
  5.054892E-02
  5.810222E-02
  6.184801E-02
  7.285578E-02
  3.983600E-02
  1.716280E-02
  1.775716E-01
  1.775396E-01
  1.775076E-01
  1.774756E-01
  1.774436E-01
  1.774117E-01
  1.773797E-01
  1.773477E-01
  1.773157E-01
  1.772257E-01
  1.771332E-01
  1.770408E-01
  1.769483E-01
  1.768559E-01
  1.767634E-01
  1.766710E-01
  1.765615E-01
  1.764164E-01
  1.762712E-01
  1.761261E-01
  1.759809E-01
  1.758358E-01
  1.756907E-01
  1.755416E-01
  1.753372E-01
  1.751329E-01
  1.749285E-01
  1.747242E-01
  1.745198E-01
  1.743155E-01
  1.740988E-01
  1.738232E-01
  1.735476E-01
  1.732720E-01
  1.729964E-01
  1.727209E-01
  1.724453E-01
  1.721222E-01
  1.717706E-01
  1.714191E-01
  1.710675E-01
  1.707160E-01
  1.703644E-01
  1.699843E-01
  1.695621E-01
  1.691399E-01
  1.687177E-01
  1.682955E-01
  1.678733E-01
  1.674208E-01
  1.669374E-01
  1.664541E-01
  1.659707E-01
  1.654874E-01
  1.650040E-01
  1.644747E-01
  1.639391E-01
  1.634036E-01
  1.628680E-01
  1.623325E-01
  1.617714E-01
  1.611890E-01
  1.606066E-01
  1.600243E-01
  1.594419E-01
  1.588326E-01
  1.581939E-01
  1.575553E-01
  1.569166E-01
  1.562794E-01
  1.555931E-01
  1.548830E-01
  1.541728E-01
  1.534626E-01
  1.527463E-01
  1.519700E-01
  1.511937E-01
  1.504175E-01
  1.496412E-01
  1.488251E-01
  1.479958E-01
  1.471664E-01
  1.463371E-01
  1.454770E-01
  1.445981E-01
  1.437193E-01
  1.428405E-01
  1.419456E-01
  1.410439E-01
  1.401422E-01
  1.392406E-01
  1.383613E-01
  1.374828E-01
  1.366044E-01
  1.357377E-01
  1.348862E-01
  1.340352E-01
  1.331835E-01
  1.323200E-01
  1.314575E-01
  1.305951E-01
  1.297027E-01
  1.288077E-01
  1.279144E-01
  1.269680E-01
  1.260140E-01
  1.250620E-01
  1.239870E-01
  1.229098E-01
  1.217919E-01
  1.205314E-01
  1.192727E-01
  1.178826E-01
  1.164147E-01
  1.149147E-01
  1.132335E-01
  1.115533E-01
  1.097086E-01
  1.078253E-01
  1.058424E-01
  1.037868E-01
  1.016738E-01
  9.949322E-02
  9.727954E-02
  9.502484E-02
  9.275696E-02
  9.047770E-02
  8.821512E-02
  8.595937E-02
  8.377327E-02
  8.162876E-02
  7.955905E-02
  7.761354E-02
  7.576009E-02
  7.403654E-02
  7.250924E-02
  7.113870E-02
  6.995564E-02
  6.900734E-02
  6.841533E-02
  6.850602E-02
  6.983845E-02
  7.340551E-02
  8.069380E-02
  9.406780E-02
  1.106633E-01
  1.151632E-01
  1.242203E-01
 -3.986466E-04
  1.663393E-07
  9.726383E-01
  9.725031E-01
  9.723679E-01
  9.722326E-01
  9.720974E-01
  9.719622E-01
  9.718270E-01
  9.716918E-01
  9.715566E-01
  9.711651E-01
  9.707631E-01
  9.703610E-01
  9.699590E-01
  9.695570E-01
  9.691549E-01
  9.687529E-01
  9.682732E-01
  9.676303E-01
  9.669874E-01
  9.663446E-01
  9.657017E-01
  9.650589E-01
  9.644161E-01
  9.637569E-01
  9.628695E-01