 Title= "ADflow Lift Distribution Data"
Variables = "eta" "CoordinateX" "CoordinateY" "CoordinateZ" "Lift" "Drag" "Moment" "Normalized Lift" "Normalized Drag" "Normalized Moment" "CL" "CD" "CM" "CLp" "CDp" "CMp" "CLv" "CDv" "CMv" "Elliptical" "thickness" "twist" "chord" "fx" "fy" "fz" 
Zone T= "LiftDist_01 allWalls: : z normal"
 I=          150
 DATAPACKING=BLOCK
  0.000000E+00
  6.711405E-03
  1.342281E-02
  2.013422E-02
  2.684563E-02
  3.355704E-02
  4.026845E-02
  4.697986E-02
  5.369127E-02
  6.040268E-02
  6.711409E-02
  7.382550E-02
  8.053691E-02
  8.724832E-02
  9.395973E-02
  1.006711E-01
  1.073825E-01
  1.140940E-01
  1.208054E-01
  1.275168E-01
  1.342282E-01
  1.409396E-01
  1.476510E-01
  1.543624E-01
  1.610738E-01
  1.677852E-01
  1.744966E-01
  1.812081E-01
  1.879195E-01
  1.946309E-01
  2.013423E-01
  2.080537E-01
  2.147651E-01
  2.214765E-01
  2.281879E-01
  2.348993E-01
  2.416107E-01
  2.483221E-01
  2.550336E-01
  2.617450E-01
  2.684564E-01
  2.751678E-01
  2.818792E-01
  2.885906E-01
  2.953020E-01
  3.020134E-01
  3.087248E-01
  3.154362E-01
  3.221476E-01
  3.288591E-01
  3.355705E-01
  3.422819E-01
  3.489933E-01
  3.557047E-01
  3.624161E-01
  3.691275E-01
  3.758389E-01
  3.825503E-01
  3.892617E-01
  3.959732E-01
  4.026846E-01
  4.093960E-01
  4.161074E-01
  4.228188E-01
  4.295302E-01
  4.362416E-01
  4.429530E-01
  4.496644E-01
  4.563758E-01
  4.630872E-01
  4.697987E-01
  4.765101E-01
  4.832215E-01
  4.899329E-01
  4.966443E-01
  5.033557E-01
  5.100671E-01
  5.167785E-01
  5.234899E-01
  5.302013E-01
  5.369128E-01
  5.436242E-01
  5.503356E-01
  5.570470E-01
  5.637584E-01
  5.704698E-01
  5.771812E-01
  5.838926E-01
  5.906040E-01
  5.973154E-01
  6.040268E-01
  6.107383E-01
  6.174497E-01
  6.241611E-01
  6.308725E-01
  6.375839E-01
  6.442953E-01
  6.510067E-01
  6.577181E-01
  6.644295E-01
  6.711409E-01
  6.778524E-01
  6.845638E-01
  6.912752E-01
  6.979866E-01
  7.046980E-01
  7.114094E-01
  7.181208E-01
  7.248322E-01
  7.315436E-01
  7.382550E-01
  7.449664E-01
  7.516779E-01
  7.583893E-01
  7.651007E-01
  7.718121E-01
  7.785235E-01
  7.852349E-01
  7.919463E-01
  7.986577E-01
  8.053691E-01
  8.120805E-01
  8.187919E-01
  8.255034E-01
  8.322148E-01
  8.389262E-01
  8.456376E-01
  8.523490E-01
  8.590604E-01
  8.657718E-01
  8.724832E-01
  8.791946E-01
  8.859060E-01
  8.926175E-01
  8.993289E-01
  9.060403E-01
  9.127517E-01
  9.194631E-01
  9.261745E-01
  9.328859E-01
  9.395973E-01
  9.463087E-01
  9.530201E-01
  9.597315E-01
  9.664430E-01
  9.731544E-01
  9.798658E-01
  9.865772E-01
  9.932886E-01
  1.000000E+00
  0.000000E+00
  0.000000E+00
  0.000000E+00
  0.000000E+00
  0.000000E+00
  0.000000E+00
  0.000000E+00
  0.000000E+00
  0.000000E+00
  0.000000E+00
  0.000000E+00
  0.000000E+00
  0.000000E+00
  0.000000E+00
  0.000000E+00
  0.000000E+00
  0.000000E+00
  0.000000E+00
  0.000000E+00
  0.000000E+00
  0.000000E+00
  0.000000E+00
  0.000000E+00
  0.000000E+00
  0.000000E+00
  0.000000E+00
  0.000000E+00
  0.000000E+00
  0.000000E+00
  0.000000E+00
  0.000000E+00
  0.000000E+00
  0.000000E+00
  0.000000E+00
  0.000000E+00
  0.000000E+00
  0.000000E+00
  0.000000E+00
  0.000000E+00
  0.000000E+00
  0.000000E+00
  0.000000E+00
  0.000000E+00
  0.000000E+00
  0.000000E+00
  0.000000E+00
  0.000000E+00
  0.000000E+00
  0.000000E+00
  0.000000E+00
  0.000000E+00
  0.000000E+00
  0.000000E+00
  0.000000E+00
  0.000000E+00
  0.000000E+00
  0.000000E+00
  0.000000E+00
  0.000000E+00
  0.000000E+00
  0.000000E+00
  0.000000E+00
  0.000000E+00
  0.000000E+00
  0.000000E+00
  0.000000E+00
  0.000000E+00
  0.000000E+00
  0.000000E+00
  0.000000E+00
  0.000000E+00
  0.000000E+00
  0.000000E+00
  0.000000E+00
  0.000000E+00
  0.000000E+00
  0.000000E+00
  0.000000E+00
  0.000000E+00
  0.000000E+00
  0.000000E+00
  0.000000E+00
  0.000000E+00
  0.000000E+00
  0.000000E+00
  0.000000E+00
  0.000000E+00
  0.000000E+00
  0.000000E+00
  0.000000E+00
  0.000000E+00
  0.000000E+00
  0.000000E+00
  0.000000E+00
  0.000000E+00
  0.000000E+00
  0.000000E+00
  0.000000E+00
  0.000000E+00
  0.000000E+00
  0.000000E+00
  0.000000E+00
  0.000000E+00
  0.000000E+00
  0.000000E+00
  0.000000E+00
  0.000000E+00
  0.000000E+00
  0.000000E+00
  0.000000E+00
  0.000000E+00
  0.000000E+00
  0.000000E+00
  0.000000E+00
  0.000000E+00
  0.000000E+00
  0.000000E+00
  0.000000E+00
  0.000000E+00
  0.000000E+00
  0.000000E+00
  0.000000E+00
  0.000000E+00
  0.000000E+00
  0.000000E+00
  0.000000E+00
  0.000000E+00
  0.000000E+00
  0.000000E+00
  0.000000E+00
  0.000000E+00
  0.000000E+00
  0.000000E+00
  0.000000E+00
  0.000000E+00
  0.000000E+00
  0.000000E+00
  0.000000E+00
  0.000000E+00
  0.000000E+00
  0.000000E+00
  0.000000E+00
  0.000000E+00
  0.000000E+00
  0.000000E+00
  0.000000E+00
  0.000000E+00
  0.000000E+00
  0.000000E+00
  0.000000E+00
  0.000000E+00
  0.000000E+00
  0.000000E+00
  0.000000E+00
  0.000000E+00
  0.000000E+00
  0.000000E+00
  0.000000E+00
  0.000000E+00
  0.000000E+00
  0.000000E+00
  0.000000E+00
  0.000000E+00
  0.000000E+00
  0.000000E+00
  0.000000E+00
  0.000000E+00
  0.000000E+00
  0.000000E+00
  0.000000E+00
  0.000000E+00
  0.000000E+00
  0.000000E+00
  0.000000E+00
  0.000000E+00
  0.000000E+00
  0.000000E+00
  0.000000E+00
  0.000000E+00
  0.000000E+00
  0.000000E+00
  0.000000E+00
  0.000000E+00
  0.000000E+00
  0.000000E+00
  0.000000E+00
  0.000000E+00
  0.000000E+00
  0.000000E+00
  0.000000E+00
  0.000000E+00
  0.000000E+00
  0.000000E+00
  0.000000E+00
  0.000000E+00
  0.000000E+00
  0.000000E+00
  0.000000E+00
  0.000000E+00
  0.000000E+00
  0.000000E+00
  0.000000E+00
  0.000000E+00
  0.000000E+00
  0.000000E+00
  0.000000E+00
  0.000000E+00
  0.000000E+00
  0.000000E+00
  0.000000E+00
  0.000000E+00
  0.000000E+00
  0.000000E+00
  0.000000E+00
  0.000000E+00
  0.000000E+00
  0.000000E+00
  0.000000E+00
  0.000000E+00
  0.000000E+00
  0.000000E+00
  0.000000E+00
  0.000000E+00
  0.000000E+00
  0.000000E+00
  0.000000E+00
  0.000000E+00
  0.000000E+00
  0.000000E+00
  0.000000E+00
  0.000000E+00
  0.000000E+00
  0.000000E+00
  0.000000E+00
  0.000000E+00
  0.000000E+00
  0.000000E+00
  0.000000E+00
  0.000000E+00
  0.000000E+00
  0.000000E+00
  0.000000E+00
  0.000000E+00
  0.000000E+00
  0.000000E+00
  0.000000E+00
  0.000000E+00
  0.000000E+00
  0.000000E+00
  0.000000E+00
  0.000000E+00
  0.000000E+00
  0.000000E+00
  0.000000E+00
  0.000000E+00
  0.000000E+00
  0.000000E+00
  0.000000E+00
  0.000000E+00
  0.000000E+00
  0.000000E+00
  0.000000E+00
  0.000000E+00
  0.000000E+00
  0.000000E+00
  0.000000E+00
  0.000000E+00
  0.000000E+00
  0.000000E+00
  0.000000E+00
  0.000000E+00
  0.000000E+00
  0.000000E+00
  0.000000E+00
  0.000000E+00
  0.000000E+00
  0.000000E+00
  0.000000E+00
  0.000000E+00
  0.000000E+00
  0.000000E+00
  0.000000E+00
  0.000000E+00
  0.000000E+00
  0.000000E+00
  0.000000E+00
  0.000000E+00
  0.000000E+00
  0.000000E+00
  0.000000E+00
  0.000000E+00
  0.000000E+00
  0.000000E+00
  0.000000E+00
  0.000000E+00
  0.000000E+00
  0.000000E+00
  0.000000E+00
  0.000000E+00
  0.000000E+00
  1.000000E-08
  1.691809E-02
  3.383618E-02
  5.075427E-02
  6.767237E-02
  8.459046E-02
  1.015085E-01
  1.184266E-01
  1.353447E-01
  1.522628E-01
  1.691809E-01
  1.860990E-01
  2.030171E-01
  2.199352E-01
  2.368533E-01
  2.537714E-01
  2.706895E-01
  2.876076E-01
  3.045256E-01
  3.214437E-01
  3.383618E-01
  3.552799E-01
  3.721980E-01
  3.891161E-01
  4.060342E-01
  4.229523E-01
  4.398704E-01
  4.567885E-01
  4.737066E-01
  4.906247E-01
  5.075427E-01
  5.244608E-01
  5.413789E-01
  5.582970E-01
  5.752151E-01
  5.921332E-01
  6.090513E-01
  6.259694E-01
  6.428875E-01
  6.598056E-01
  6.767237E-01
  6.936418E-01
  7.105598E-01
  7.274779E-01
  7.443960E-01
  7.613141E-01
  7.782322E-01
  7.951503E-01
  8.120684E-01
  8.289865E-01
  8.459046E-01
  8.628227E-01
  8.797408E-01
  8.966589E-01
  9.135769E-01
  9.304950E-01
  9.474131E-01
  9.643312E-01
  9.812493E-01
  9.981674E-01
  1.015085E+00
  1.032004E+00
  1.048922E+00
  1.065840E+00
  1.082758E+00
  1.099676E+00
  1.116594E+00
  1.133512E+00
  1.150430E+00
  1.167348E+00
  1.184266E+00
  1.201185E+00
  1.218103E+00
  1.235021E+00
  1.251939E+00
  1.268857E+00
  1.285775E+00
  1.302693E+00
  1.319611E+00
  1.336529E+00
  1.353447E+00
  1.370365E+00
  1.387284E+00
  1.404202E+00
  1.421120E+00
  1.438038E+00
  1.454956E+00
  1.471874E+00
  1.488792E+00
  1.505710E+00
  1.522628E+00
  1.539546E+00
  1.556464E+00
  1.573383E+00
  1.590301E+00
  1.607219E+00
  1.624137E+00
  1.641055E+00
  1.657973E+00
  1.674891E+00
  1.691809E+00
  1.708727E+00
  1.725645E+00
  1.742563E+00
  1.759482E+00
  1.776400E+00
  1.793318E+00
  1.810236E+00
  1.827154E+00
  1.844072E+00
  1.860990E+00
  1.877908E+00
  1.894826E+00
  1.911744E+00
  1.928662E+00
  1.945581E+00
  1.962499E+00
  1.979417E+00
  1.996335E+00
  2.013253E+00
  2.030171E+00
  2.047089E+00
  2.064007E+00
  2.080925E+00
  2.097843E+00
  2.114761E+00
  2.131680E+00
  2.148598E+00
  2.165516E+00
  2.182434E+00
  2.199352E+00
  2.216270E+00
  2.233188E+00
  2.250106E+00
  2.267024E+00
  2.283942E+00
  2.300860E+00
  2.317779E+00
  2.334697E+00
  2.351615E+00
  2.368533E+00
  2.385451E+00
  2.402369E+00
  2.419287E+00
  2.436205E+00
  2.453123E+00
  2.470041E+00
  2.486959E+00
  2.503878E+00
  2.520796E+00
  1.100091E+04
  1.099990E+04
  1.099888E+04
  1.099787E+04
  1.099686E+04
  1.099585E+04
  1.099485E+04
  1.099384E+04
  1.099284E+04
  1.098795E+04
  1.098290E+04
  1.097786E+04
  1.097281E+04
  1.096777E+04
  1.096273E+04
  1.095769E+04
  1.095126E+04
  1.094193E+04
  1.093260E+04
  1.092326E+04
  1.091393E+04
  1.090460E+04
  1.089527E+04
  1.088581E+04
  1.087456E+04
  1.086332E+04
  1.085207E+04
  1.084083E+04
  1.082958E+04
  1.081834E+04
  1.080679E+04
  1.079378E+04
  1.078077E+04
  1.076777E+04
  1.075476E+04
  1.074175E+04
  1.072874E+04
  1.071431E+04
  1.069901E+04
  1.068371E+04
  1.066842E+04
  1.065312E+04
  1.063783E+04
  1.062147E+04
  1.060355E+04
  1.058564E+04
  1.056772E+04
  1.054981E+04
  1.053189E+04
  1.051256E+04
  1.049177E+04
  1.047098E+04
  1.045020E+04
  1.042941E+04
  1.040863E+04
  1.038500E+04
  1.036099E+04
  1.033698E+04
  1.031297E+04
  1.028896E+04
  1.026286E+04
  1.023501E+04
  1.020716E+04
  1.017931E+04
  1.015147E+04
  1.012145E+04
  1.008906E+04
  1.005668E+04
  1.002430E+04
  9.991917E+03
  9.956189E+03
  9.918780E+03
  9.881373E+03
  9.843967E+03
  9.806084E+03
  9.763519E+03
  9.720956E+03
  9.678395E+03
  9.635836E+03
  9.589493E+03
  9.541880E+03
  9.494270E+03
  9.446663E+03
  9.396052E+03
  9.343609E+03
  9.291172E+03
  9.238739E+03
  9.183383E+03
  9.126780E+03
  9.070183E+03
  9.013592E+03
  8.953882E+03
  8.894102E+03
  8.834330E+03
  8.773412E+03
  8.711020E+03
  8.648640E+03
  8.586080E+03
  8.521202E+03
  8.456344E+03
  8.391506E+03
  8.324673E+03
  8.257598E+03
  8.190552E+03
  8.121478E+03
  8.052070E+03
  7.982695E+03
  7.910224E+03
  7.837677E+03
  7.764251E+03
  7.687764E+03
  7.611309E+03
  7.532114E+03
  7.451298E+03
  7.369794E+03
  7.284418E+03
  7.199071E+03
  7.110037E+03
  7.020150E+03
  6.927765E+03
  6.833564E+03
  6.737441E+03
  6.639052E+03
  6.538806E+03
  6.436254E+03
  6.331607E+03
  6.225138E+03
  6.116092E+03
  6.006045E+03
  5.892751E+03
  5.778390E+03
  5.662107E+03
  5.543640E+03
  5.423777E+03
  5.302104E+03
  5.177971E+03
  5.051990E+03
  4.924030E+03
  4.794167E+03
  4.663313E+03
  4.536405E+03
  4.423679E+03
  4.341344E+03
  4.316574E+03
  4.411260E+03
  4.548626E+03
  4.298597E+03
  4.591152E+03
  1.322780E+03
  7.131603E-03
  5.959222E+02
  5.962982E+02
  5.966745E+02
  5.970511E+02
  5.974281E+02
  5.978055E+02
  5.981832E+02
  5.985612E+02
  5.989396E+02
  5.994550E+02
  5.999765E+02
  6.004983E+02
  6.010205E+02
  6.015430E+02
  6.020660E+02
  6.025893E+02
  6.030131E+02
  6.032272E+02
  6.034415E+02
  6.036560E+02
  6.038707E+02
  6.040856E+02
  6.043007E+02
  6.045144E+02
  6.047048E+02
  6.048953E+02
  6.050859E+02
  6.052766E+02
  6.054674E+02
  6.056584E+02
  6.058361E+02
  6.059505E+02
  6.060650E+02
  6.061795E+02
  6.062940E+02
  6.064086E+02
  6.065232E+02
  6.065189E+02
  6.064432E+02
  6.063675E+02
  6.062918E+02
  6.062162E+02
  6.061405E+02
  6.059670E+02
  6.056491E+02
  6.053314E+02
  6.050136E+02
  6.046959E+02
  6.043783E+02
  6.039514E+02
  6.034128E+02
  6.028744E+02
  6.023360E+02
  6.017979E+02
  6.012598E+02
  6.005892E+02
  5.999006E+02
  5.992122E+02
  5.985240E+02
  5.978360E+02
  5.970886E+02
  5.962921E+02
  5.954957E+02
  5.946995E+02
  5.939035E+02
  5.930640E+02
  5.921773E+02
  5.912907E+02
  5.904043E+02
  5.895181E+02
  5.886076E+02
  5.876851E+02
  5.867628E+02
  5.858407E+02
  5.849228E+02
  5.840437E+02
  5.831651E+02
  5.822868E+02
  5.814090E+02
  5.805135E+02
  5.796126E+02
  5.787123E+02
  5.778128E+02
  5.767023E+02
  5.754634E+02
  5.742252E+02
  5.729878E+02
  5.712830E+02
  5.693785E+02
  5.674745E+02
  5.655712E+02
  5.628302E+02
  5.600691E+02
  5.573087E+02
  5.540877E+02
  5.502740E+02
  5.464623E+02
  5.425668E+02
  5.376241E+02
  5.326863E+02
  5.277532E+02
  5.221241E+02
  5.164087E+02
  5.107010E+02
  5.048026E+02
  4.988774E+02
  4.929608E+02
  4.872132E+02
  4.814792E+02
  4.758469E+02
  4.705395E+02
  4.652381E+02
  4.603117E+02
  4.556092E+02
  4.510172E+02
  4.470073E+02
  4.429989E+02
  4.395543E+02
  4.362430E+02
  4.333242E+02
  4.306908E+02
  4.283153E+02
  4.262429E+02
  4.243232E+02
  4.225928E+02
  4.209697E+02
  4.194402E+02
  4.180241E+02
  4.166534E+02
  4.154632E+02
  4.143668E+02
  4.134393E+02
  4.128087E+02
  4.124210E+02
  4.123899E+02
  4.129873E+02
  4.141746E+02
  4.161383E+02
  4.191702E+02
  4.239212E+02
  4.318704E+02
  4.452668E+02
  4.679960E+02
  5.064716E+02
  5.734910E+02
  6.610902E+02
  7.056889E+02
  8.321391E+02
  3.768845E+02
  2.289272E-03
  1.963630E+03
  1.962809E+03
  1.961989E+03
  1.961170E+03
  1.960352E+03
  1.959534E+03
  1.958716E+03
  1.957900E+03
  1.957084E+03
  1.954528E+03
  1.951901E+03
  1.949275E+03
  1.946649E+03
  1.944023E+03
  1.941398E+03
  1.938774E+03
  1.935878E+03
  1.932413E+03
  1.928948E+03
  1.925484E+03
  1.922019E+03
  1.918555E+03
  1.915091E+03
  1.911652E+03
  1.908564E+03
  1.905477E+03
  1.902390E+03
  1.899303E+03
  1.896215E+03
  1.893128E+03
  1.890124E+03
  1.887511E+03
  1.884898E+03
  1.882286E+03
  1.879673E+03
  1.877061E+03
  1.874448E+03
  1.872016E+03
  1.869693E+03
  1.867370E+03
  1.865047E+03
  1.862724E+03
  1.860401E+03
  1.858132E+03
  1.855942E+03
  1.853753E+03
  1.851563E+03
  1.849374E+03
  1.847184E+03
  1.844920E+03
  1.842579E+03
  1.840239E+03
  1.837899E+03
  1.835559E+03
  1.833219E+03
  1.830351E+03
  1.827410E+03
  1.824471E+03
  1.821531E+03
  1.818592E+03
  1.815026E+03
  1.810938E+03
  1.806851E+03
  1.802765E+03
  1.798679E+03
  1.793787E+03
  1.788020E+03
  1.782253E+03
  1.776487E+03
  1.770720E+03
  1.763588E+03
  1.755770E+03
  1.747951E+03
  1.740133E+03
  1.732122E+03
  1.722223E+03
  1.712324E+03
  1.702425E+03
  1.692526E+03
  1.681287E+03
  1.669597E+03
  1.657908E+03
  1.646219E+03
  1.633728E+03
  1.620724E+03
  1.607720E+03
  1.594718E+03
  1.581332E+03
  1.567782E+03
  1.554233E+03
  1.540686E+03
  1.527474E+03
  1.514272E+03
  1.501073E+03
  1.488226E+03
  1.475833E+03
  1.463445E+03
  1.451114E+03
  1.439448E+03
  1.427779E+03
  1.416129E+03
  1.404906E+03
  1.393751E+03
  1.382608E+03
  1.371479E+03
  1.360365E+03
  1.349266E+03
  1.337403E+03
  1.325527E+03
  1.313321E+03
  1.299958E+03
  1.286608E+03
  1.272080E+03
  1.256853E+03
  1.241317E+03
  1.224046E+03
  1.206784E+03
  1.187829E+03
  1.168479E+03
  1.148051E+03
  1.126837E+03
  1.105005E+03
  1.082447E+03
  1.059536E+03
  1.036187E+03
  1.012680E+03
  9.890353E+02
  9.655258E+02
  9.420715E+02
  9.192970E+02
  8.969421E+02
  8.753432E+02
  8.550159E+02
  8.356354E+02
  8.175926E+02
  8.015885E+02
  7.872418E+02
  7.749133E+02
  7.651752E+02
  7.594894E+02
  7.616998E+02
  7.782559E+02
  8.205010E+02
  9.054070E+02
  1.060249E+03
  1.252998E+03
  1.308808E+03
  1.416743E+03
  4.394267E+00
  2.216824E-08
  1.235609E+00
  1.235495E+00
  1.235381E+00
  1.235268E+00
  1.235154E+00
  1.235041E+00
  1.234928E+00
  1.234815E+00
  1.234702E+00
  1.234153E+00
  1.233587E+00
  1.233020E+00
  1.232453E+00
  1.231887E+00
  1.231321E+00
  1.230754E+00
  1.230033E+00
  1.228984E+00
  1.227936E+00
  1.226888E+00
  1.225839E+00
  1.224791E+00
  1.223743E+00
  1.222681E+00
  1.221418E+00
  1.220155E+00
  1.218892E+00
  1.217629E+00
  1.216366E+00
  1.215103E+00
  1.213805E+00
  1.212344E+00
  1.210883E+00
  1.209422E+00
  1.207961E+00
  1.206501E+00
  1.205040E+00
  1.203418E+00
  1.201700E+00
  1.199982E+00
  1.198264E+00
  1.196546E+00
  1.194828E+00
  1.192991E+00
  1.190978E+00
  1.188966E+00
  1.186954E+00
  1.184942E+00
  1.182930E+00
  1.180758E+00
  1.178423E+00
  1.176088E+00
  1.173754E+00
  1.171419E+00
  1.169084E+00
  1.166431E+00
  1.163734E+00
  1.161037E+00
  1.158340E+00
  1.155644E+00
  1.152712E+00
  1.149584E+00
  1.146456E+00
  1.143328E+00
  1.140201E+00
  1.136829E+00
  1.133192E+00
  1.129554E+00
  1.125917E+00
  1.122280E+00
  1.118267E+00
  1.114065E+00
  1.109864E+00
  1.105662E+00
  1.101408E+00
  1.096627E+00
  1.091846E+00
  1.087066E+00
  1.082285E+00
  1.077080E+00
  1.071732E+00
  1.066385E+00
  1.061038E+00
  1.055353E+00
  1.049463E+00
  1.043573E+00
  1.037684E+00
  1.031467E+00
  1.025109E+00
  1.018752E+00
  1.012396E+00
  1.005689E+00
  9.989748E-01
  9.922613E-01
  9.854191E-01
  9.784113E-01
  9.714048E-01
  9.643782E-01
  9.570912E-01
  9.498064E-01
  9.425239E-01
  9.350172E-01
  9.274835E-01
  9.199529E-01
  9.121946E-01
  9.043988E-01
  8.966067E-01
  8.884668E-01
  8.803185E-01
  8.720714E-01
  8.634803E-01
  8.548931E-01
  8.459979E-01
  8.369209E-01
  8.277663E-01
  8.181771E-01
  8.085910E-01
  7.985908E-01
  7.884948E-01
  7.781182E-01
  7.675377E-01
  7.567413E-01
  7.456903E-01
  7.344308E-01
  7.229123E-01
  7.111585E-01
  6.992000E-01
  6.869521E-01
  6.745918E-01
  6.618667E-01
  6.490218E-01
  6.359610E-01
  6.226549E-01
  6.091921E-01
  5.955260E-01
  5.815835E-01
  5.674334E-01
  5.530611E-01
  5.384750E-01
  5.237777E-01
  5.095235E-01
  4.968623E-01
  4.876146E-01
  4.848324E-01
  4.954674E-01
  5.108962E-01
  4.828133E-01
  5.156726E-01
  1.485730E-01
  8.010130E-07
  1.085496E+00
  1.086181E+00
  1.086867E+00
  1.087553E+00
  1.088239E+00
  1.088927E+00
  1.089615E+00
  1.090303E+00
  1.090993E+00
  1.091931E+00
  1.092881E+00
  1.093832E+00
  1.094783E+00
  1.095735E+00
  1.096687E+00
  1.097641E+00
  1.098413E+00
  1.098802E+00
  1.099193E+00
  1.099584E+00
  1.099975E+00
  1.100366E+00
  1.100758E+00
  1.101147E+00
  1.101494E+00
  1.101841E+00
  1.102188E+00
  1.102536E+00
  1.102883E+00
  1.103231E+00
  1.103555E+00
  1.103763E+00
  1.103972E+00
  1.104180E+00
  1.104389E+00
  1.104598E+00
  1.104806E+00
  1.104798E+00
  1.104661E+00
  1.104523E+00
  1.104385E+00
  1.104247E+00
  1.104109E+00
  1.103793E+00
  1.103214E+00
  1.102635E+00
  1.102057E+00
  1.101478E+00
  1.100899E+00
  1.100122E+00
  1.099141E+00
  1.098160E+00
  1.097179E+00
  1.096199E+00
  1.095219E+00
  1.093997E+00
  1.092743E+00
  1.091489E+00
  1.090235E+00
  1.088982E+00
  1.087621E+00
  1.086170E+00
  1.084719E+00
  1.083269E+00
  1.081819E+00
  1.080290E+00
  1.078675E+00
  1.077060E+00
  1.075445E+00
  1.073831E+00
  1.072172E+00
  1.070492E+00
  1.068812E+00
  1.067132E+00
  1.065460E+00
  1.063859E+00
  1.062259E+00
  1.060659E+00
  1.059060E+00
  1.057429E+00
  1.055788E+00
  1.054148E+00
  1.052509E+00
  1.050486E+00
  1.048230E+00
  1.045974E+00
  1.043720E+00
  1.040615E+00
  1.037146E+00
  1.033678E+00
  1.030211E+00
  1.025218E+00
  1.020188E+00
  1.015160E+00
  1.009293E+00
  1.002346E+00
  9.954030E-01
  9.883072E-01
  9.793039E-01
  9.703094E-01
  9.613236E-01
  9.510700E-01
  9.406592E-01
  9.302623E-01
  9.195182E-01
  9.087253E-01
  8.979479E-01
  8.874785E-01
  8.770337E-01
  8.667742E-01
  8.571066E-01
  8.474498E-01
  8.384763E-01
  8.299103E-01
  8.215460E-01
  8.142418E-01
  8.069403E-01
  8.006658E-01
  7.946342E-01
  7.893175E-01
  7.845205E-01
  7.801935E-01
  7.764186E-01
  7.729216E-01
  7.697698E-01
  7.668131E-01
  7.640271E-01
  7.614478E-01
  7.589509E-01
  7.567829E-01
  7.547858E-01
  7.530963E-01
  7.519476E-01
  7.512414E-01
  7.511848E-01
  7.522729E-01
  7.544357E-01
  7.580126E-01
  7.635353E-01
  7.721895E-01
  7.866692E-01
  8.110713E-01
  8.524736E-01
  9.225583E-01
  1.044637E+00
  1.204202E+00
  1.285441E+00
  1.515775E+00
  6.865102E-01
  4.170000E-06
  1.263567E+00
  1.263039E+00
  1.262512E+00
  1.261985E+00
  1.261458E+00
  1.260932E+00
  1.260406E+00
  1.259880E+00
  1.259355E+00
  1.257711E+00
  1.256020E+00
  1.254330E+00
  1.252640E+00
  1.250951E+00
  1.249262E+00
  1.247573E+00
  1.245710E+00
  1.243480E+00
  1.241250E+00
  1.239021E+00
  1.236792E+00
  1.234562E+00
  1.232333E+00
  1.230120E+00
  1.228134E+00
  1.226147E+00
  1.224160E+00
  1.222174E+00
  1.220187E+00
  1.218201E+00
  1.216267E+00
  1.214586E+00
  1.212905E+00
  1.211224E+00
  1.209543E+00
  1.207861E+00
  1.206180E+00
  1.204616E+00
  1.203121E+00
  1.201626E+00
  1.200131E+00
  1.198636E+00
  1.197141E+00
  1.195681E+00
  1.194272E+00
  1.192863E+00
  1.191454E+00
  1.190045E+00
  1.188636E+00
  1.187179E+00
  1.185673E+00
  1.184167E+00
  1.182661E+00
  1.181155E+00
  1.179650E+00
  1.177804E+00
  1.175912E+00
  1.174020E+00
  1.172129E+00
  1.170238E+00
  1.167943E+00
  1.165313E+00
  1.162683E+00
  1.160053E+00
  1.157424E+00
  1.154276E+00
  1.150565E+00
  1.146854E+00
  1.143143E+00
  1.139433E+00
  1.134843E+00
  1.129812E+00
  1.124781E+00
  1.119750E+00
  1.114596E+00
  1.108226E+00
  1.101856E+00
  1.095486E+00
  1.089116E+00
  1.081884E+00
  1.074362E+00
  1.066840E+00
  1.059318E+00
  1.051280E+00
  1.042912E+00
  1.034545E+00
  1.026178E+00
  1.017564E+00
  1.008845E+00
  1.000127E+00
  9.914094E-01
  9.829075E-01
  9.744124E-01
  9.659188E-01
  9.576518E-01
  9.496773E-01
  9.417055E-01
  9.337709E-01
  9.262641E-01
  9.187550E-01
  9.112586E-01
  9.040366E-01
  8.968586E-01
  8.896886E-01
  8.825270E-01
  8.753753E-01
  8.682332E-01
  8.605992E-01
  8.529578E-01
  8.451034E-01
  8.365039E-01
  8.279137E-01
  8.185648E-01
  8.087670E-01
  7.987694E-01
  7.876557E-01
  7.765478E-01
  7.643510E-01
  7.518993E-01
  7.387539E-01
  7.251031E-01
  7.110551E-01
  6.965389E-01
  6.817960E-01
  6.667715E-01
  6.516450E-01
  6.364299E-01
  6.213019E-01
  6.062094E-01
  5.915543E-01
  5.771693E-01
  5.632707E-01
  5.501904E-01
  5.377193E-01
  5.261091E-01
  5.158106E-01
  5.065787E-01
  4.986455E-01
  4.923792E-01
  4.887205E-01
  4.901428E-01
  5.007965E-01
  5.279806E-01
  5.826164E-01
  6.822547E-01
  8.062861E-01
  8.421989E-01
  9.116539E-01
  2.827647E-03
  1.426494E-11
  9.741376E-01
  9.740482E-01
  9.739589E-01
  9.738698E-01
  9.737808E-01
  9.736919E-01
  9.736031E-01
  9.735144E-01
  9.734258E-01
  9.729933E-01
  9.725467E-01
  9.721002E-01
  9.716538E-01
  9.712074E-01
  9.707612E-01
  9.703151E-01
  9.697463E-01
  9.689199E-01
  9.680935E-01
  9.672672E-01
  9.664409E-01
  9.656147E-01
  9.647885E-01
  9.639511E-01
  9.629553E-01
  9.619596E-01
  9.609639E-01
  9.599682E-01
  9.589725E-01
  9.579769E-01
  9.569541E-01
  9.558023E-01
  9.546505E-01
  9.534988E-01
  9.523470E-01
  9.511953E-01
  9.500435E-01
  9.487650E-01
  9.474105E-01
  9.460560E-01
  9.447016E-01
  9.433471E-01
  9.419926E-01
  9.405443E-01
  9.389578E-01
  9.373714E-01
  9.357849E-01
  9.341985E-01
  9.326121E-01
  9.308999E-01
  9.290591E-01
  9.272184E-01
  9.253777E-01
  9.235371E-01
  9.216965E-01
  9.196044E-01
  9.174782E-01
  9.153519E-01
  9.132258E-01
  9.110997E-01
  9.087880E-01
  9.063219E-01
  9.038560E-01
  9.013901E-01
  8.989244E-01
  8.962660E-01
  8.933983E-01
  8.905307E-01
  8.876632E-01
  8.847957E-01
  8.816320E-01
  8.783195E-01
  8.750070E-01
  8.716947E-01
  8.683402E-01
  8.645711E-01
  8.608022E-01
  8.570334E-01
  8.532649E-01
  8.491613E-01
  8.449451E-01
  8.407293E-01
  8.365137E-01
  8.320320E-01
  8.273881E-01
  8.227446E-01
  8.181015E-01
  8.131996E-01
  8.081872E-01
  8.031754E-01
  7.981641E-01
  7.928767E-01
  7.875832E-01
  7.822903E-01
  7.768960E-01
  7.713712E-01
  7.658475E-01
  7.603079E-01
  7.545630E-01
  7.488197E-01
  7.430780E-01
  7.371594E-01
  7.312193E-01
  7.252816E-01
  7.191640E-01
  7.130166E-01
  7.068719E-01
  7.004529E-01
  6.940272E-01
  6.875234E-01
  6.807487E-01
  6.739768E-01
  6.669624E-01
  6.598047E-01
  6.525861E-01
  6.450253E-01
  6.374670E-01
  6.295830E-01
  6.216234E-01
  6.134432E-01
  6.051025E-01
  5.965919E-01
  5.878808E-01
  5.790055E-01
  5.699262E-01
  5.606613E-01
  5.512351E-01
  5.415807E-01
  5.318375E-01
  5.218066E-01
  5.116810E-01
  5.013850E-01
  4.908954E-01
  4.802819E-01
  4.695079E-01
  4.585155E-01
  4.473593E-01
  4.360275E-01
  4.245269E-01
  4.129383E-01
  4.016989E-01
  3.917151E-01
  3.844221E-01
  3.822262E-01
  3.906075E-01
  4.027676E-01
  3.806247E-01
  4.065251E-01
  1.433582E-01
  5.183826E-02
  5.276929E-02
  5.280261E-02
  5.283595E-02
  5.286933E-02
  5.290273E-02
  5.293617E-02
  5.296963E-02
  5.300313E-02
  5.303665E-02
  5.308231E-02
  5.312850E-02
  5.317472E-02
  5.322097E-02
  5.326726E-02
  5.331358E-02
  5.335993E-02
  5.339746E-02
  5.341643E-02
  5.343541E-02
  5.345442E-02
  5.347344E-02
  5.349248E-02
  5.351153E-02
  5.353046E-02
  5.354732E-02
  5.356419E-02
  5.358108E-02
  5.359797E-02
  5.361487E-02
  5.363178E-02
  5.364752E-02
  5.365766E-02
  5.366779E-02
  5.367793E-02
  5.368808E-02
  5.369822E-02
  5.370838E-02
  5.370799E-02
  5.370129E-02
  5.369459E-02
  5.368789E-02
  5.368119E-02
  5.367449E-02
  5.365912E-02
  5.363098E-02
  5.360284E-02
  5.357470E-02
  5.354657E-02
  5.351844E-02
  5.348063E-02
  5.343294E-02
  5.338526E-02
  5.333759E-02
  5.328993E-02
  5.324229E-02
  5.318290E-02
  5.312192E-02
  5.306096E-02
  5.300001E-02
  5.293908E-02
  5.287290E-02
  5.280236E-02
  5.273184E-02
  5.266134E-02
  5.259085E-02
  5.251651E-02
  5.243798E-02
  5.235947E-02
  5.228098E-02
  5.220250E-02
  5.212188E-02
  5.204019E-02
  5.195852E-02
  5.187688E-02
  5.179560E-02
  5.171776E-02
  5.163996E-02
  5.156220E-02
  5.148447E-02
  5.140518E-02
  5.132540E-02
  5.124569E-02
  5.116604E-02
  5.106770E-02
  5.095799E-02
  5.084834E-02
  5.073876E-02
  5.058779E-02
  5.041914E-02
  5.025054E-02
  5.008199E-02
  4.983928E-02
  4.959477E-02
  4.935034E-02
  4.906512E-02
  4.872742E-02
  4.838990E-02
  4.804495E-02
  4.760728E-02
  4.717003E-02
  4.673319E-02
  4.623469E-02
  4.572856E-02
  4.522308E-02
  4.470071E-02
  4.417596E-02
  4.365194E-02
  4.314289E-02
  4.263503E-02
  4.213618E-02
  4.166610E-02
  4.119655E-02
  4.076022E-02
  4.034372E-02
  3.993702E-02
  3.958189E-02
  3.922689E-02
  3.892186E-02
  3.862865E-02
  3.837021E-02
  3.813706E-02
  3.792677E-02
  3.774335E-02
  3.757344E-02
  3.742032E-02
  3.727670E-02
  3.714137E-02
  3.701609E-02
  3.689481E-02
  3.678951E-02
  3.669251E-02
  3.661045E-02
  3.655466E-02
  3.652037E-02
  3.651764E-02
  3.657052E-02
  3.667562E-02
  3.684944E-02
  3.711782E-02
  3.753840E-02
  3.824214E-02
  3.942820E-02
  4.144063E-02
  4.484730E-02
  5.078139E-02
  5.853761E-02
  6.248610E-02
  7.368203E-02
  4.084541E-02
  1.664028E-02
  1.738807E-01
  1.738081E-01
  1.737356E-01
  1.736631E-01
  1.735907E-01
  1.735183E-01
  1.734460E-01
  1.733738E-01
  1.733016E-01
  1.730753E-01
  1.728427E-01
  1.726102E-01
  1.723777E-01
  1.721453E-01
  1.719128E-01
  1.716805E-01
  1.714241E-01
  1.711173E-01
  1.708105E-01
  1.705037E-01
  1.701970E-01
  1.698902E-01
  1.695835E-01
  1.692790E-01
  1.690056E-01
  1.687323E-01
  1.684589E-01
  1.681855E-01
  1.679122E-01
  1.676388E-01
  1.673727E-01
  1.671414E-01
  1.669101E-01
  1.666787E-01
  1.664474E-01
  1.662160E-01
  1.659847E-01
  1.657694E-01
  1.655637E-01
  1.653580E-01
  1.651522E-01
  1.649465E-01
  1.647408E-01
  1.645399E-01
  1.643460E-01
  1.641521E-01
  1.639582E-01
  1.637643E-01
  1.635704E-01
  1.633699E-01
  1.631627E-01
  1.629554E-01
  1.627482E-01
  1.625409E-01
  1.623338E-01
  1.620798E-01
  1.618194E-01
  1.615591E-01
  1.612987E-01
  1.610385E-01
  1.607227E-01
  1.603607E-01
  1.599988E-01
  1.596369E-01
  1.592751E-01
  1.588419E-01
  1.583312E-01
  1.578206E-01
  1.573099E-01
  1.567993E-01
  1.561678E-01
  1.554754E-01
  1.547831E-01
  1.540908E-01
  1.533815E-01
  1.525049E-01
  1.516283E-01
  1.507518E-01
  1.498752E-01
  1.488800E-01
  1.478449E-01
  1.468098E-01
  1.457748E-01
  1.446686E-01
  1.435171E-01
  1.423656E-01
  1.412142E-01
  1.400288E-01
  1.388289E-01
  1.376292E-01
  1.364296E-01
  1.352596E-01
  1.340906E-01
  1.329218E-01
  1.317842E-01
  1.306868E-01
  1.295898E-01
  1.284979E-01
  1.274649E-01
  1.264316E-01
  1.253999E-01
  1.244060E-01
  1.234182E-01
  1.224314E-01
  1.214457E-01
  1.204613E-01
  1.194782E-01
  1.184274E-01
  1.173756E-01
  1.162944E-01
  1.151108E-01
  1.139284E-01
  1.126416E-01
  1.112931E-01
  1.099171E-01
  1.083876E-01
  1.068589E-01
  1.051805E-01
  1.034670E-01
  1.016582E-01
  9.977980E-02
  9.784683E-02
  9.584949E-02
  9.382096E-02
  9.175371E-02
  8.967242E-02
  8.757893E-02
  8.549742E-02
  8.342077E-02
  8.140429E-02
  7.942494E-02
  7.751249E-02
  7.571260E-02
  7.399651E-02
  7.239884E-02
  7.098162E-02
  6.971113E-02
  6.861930E-02
  6.775681E-02
  6.725311E-02
  6.744856E-02
  6.891426E-02
  7.265462E-02
  8.017244E-02
  9.388272E-02
  1.109493E-01
  1.158900E-01
  1.254460E-01
  4.762352E-04
  1.611367E-07
  9.743338E-01
  9.742446E-01
  9.741555E-01
  9.740665E-01
  9.739777E-01
  9.738889E-01
  9.738003E-01
  9.737118E-01
  9.736234E-01
  9.731914E-01
  9.727451E-01
  9.722990E-01
  9.718530E-01
  9.714071E-01
  9.709612E-01
  9.705155E-01
  9.699471E-01
  9.691211E-01
  9.682951E-01
  9.674692E-01
  9.666433E-01
  9.658175E-01
  9.649917E-01
  9.641547E-01
  9.631592E-01