 Title= "ADflow Lift Distribution Data"
Variables = "eta" "CoordinateX" "CoordinateY" "CoordinateZ" "Lift" "Drag" "Moment" "Normalized Lift" "Normalized Drag" "Normalized Moment" "CL" "CD" "CM" "CLp" "CDp" "CMp" "CLv" "CDv" "CMv" "Elliptical" "thickness" "twist" "chord" "fx" "fy" "fz" 
Zone T= "LiftDist_01 allWalls: : z normal"
 I=          150
 DATAPACKING=BLOCK
  0.000000E+00
  6.711405E-03
  1.342281E-02
  2.013422E-02
  2.684563E-02
  3.355704E-02
  4.026845E-02
  4.697986E-02
  5.369127E-02
  6.040268E-02
  6.711409E-02
  7.382550E-02
  8.053691E-02
  8.724832E-02
  9.395973E-02
  1.006711E-01
  1.073825E-01
  1.140940E-01
  1.208054E-01
  1.275168E-01
  1.342282E-01
  1.409396E-01
  1.476510E-01
  1.543624E-01
  1.610738E-01
  1.677852E-01
  1.744966E-01
  1.812081E-01
  1.879195E-01
  1.946309E-01
  2.013423E-01
  2.080537E-01
  2.147651E-01
  2.214765E-01
  2.281879E-01
  2.348993E-01
  2.416107E-01
  2.483221E-01
  2.550336E-01
  2.617450E-01
  2.684564E-01
  2.751678E-01
  2.818792E-01
  2.885906E-01
  2.953020E-01
  3.020134E-01
  3.087248E-01
  3.154362E-01
  3.221476E-01
  3.288591E-01
  3.355705E-01
  3.422819E-01
  3.489933E-01
  3.557047E-01
  3.624161E-01
  3.691275E-01
  3.758389E-01
  3.825503E-01
  3.892617E-01
  3.959732E-01
  4.026846E-01
  4.093960E-01
  4.161074E-01
  4.228188E-01
  4.295302E-01
  4.362416E-01
  4.429530E-01
  4.496644E-01
  4.563758E-01
  4.630872E-01
  4.697987E-01
  4.765101E-01
  4.832215E-01
  4.899329E-01
  4.966443E-01
  5.033557E-01
  5.100671E-01
  5.167785E-01
  5.234899E-01
  5.302013E-01
  5.369128E-01
  5.436242E-01
  5.503356E-01
  5.570470E-01
  5.637584E-01
  5.704698E-01
  5.771812E-01
  5.838926E-01
  5.906040E-01
  5.973154E-01
  6.040268E-01
  6.107383E-01
  6.174497E-01
  6.241611E-01
  6.308725E-01
  6.375839E-01
  6.442953E-01
  6.510067E-01
  6.577181E-01
  6.644295E-01
  6.711409E-01
  6.778524E-01
  6.845638E-01
  6.912752E-01
  6.979866E-01
  7.046980E-01
  7.114094E-01
  7.181208E-01
  7.248322E-01
  7.315436E-01
  7.382550E-01
  7.449664E-01
  7.516779E-01
  7.583893E-01
  7.651007E-01
  7.718121E-01
  7.785235E-01
  7.852349E-01
  7.919463E-01
  7.986577E-01
  8.053691E-01
  8.120805E-01
  8.187919E-01
  8.255034E-01
  8.322148E-01
  8.389262E-01
  8.456376E-01
  8.523490E-01
  8.590604E-01
  8.657718E-01
  8.724832E-01
  8.791946E-01
  8.859060E-01
  8.926175E-01
  8.993289E-01
  9.060403E-01
  9.127517E-01
  9.194631E-01
  9.261745E-01
  9.328859E-01
  9.395973E-01
  9.463087E-01
  9.530201E-01
  9.597315E-01
  9.664430E-01
  9.731544E-01
  9.798658E-01
  9.865772E-01
  9.932886E-01
  1.000000E+00
  0.000000E+00
  0.000000E+00
  0.000000E+00
  0.000000E+00
  0.000000E+00
  0.000000E+00
  0.000000E+00
  0.000000E+00
  0.000000E+00
  0.000000E+00
  0.000000E+00
  0.000000E+00
  0.000000E+00
  0.000000E+00
  0.000000E+00
  0.000000E+00
  0.000000E+00
  0.000000E+00
  0.000000E+00
  0.000000E+00
  0.000000E+00
  0.000000E+00
  0.000000E+00
  0.000000E+00
  0.000000E+00
  0.000000E+00
  0.000000E+00
  0.000000E+00
  0.000000E+00
  0.000000E+00
  0.000000E+00
  0.000000E+00
  0.000000E+00
  0.000000E+00
  0.000000E+00
  0.000000E+00
  0.000000E+00
  0.000000E+00
  0.000000E+00
  0.000000E+00
  0.000000E+00
  0.000000E+00
  0.000000E+00
  0.000000E+00
  0.000000E+00
  0.000000E+00
  0.000000E+00
  0.000000E+00
  0.000000E+00
  0.000000E+00
  0.000000E+00
  0.000000E+00
  0.000000E+00
  0.000000E+00
  0.000000E+00
  0.000000E+00
  0.000000E+00
  0.000000E+00
  0.000000E+00
  0.000000E+00
  0.000000E+00
  0.000000E+00
  0.000000E+00
  0.000000E+00
  0.000000E+00
  0.000000E+00
  0.000000E+00
  0.000000E+00
  0.000000E+00
  0.000000E+00
  0.000000E+00
  0.000000E+00
  0.000000E+00
  0.000000E+00
  0.000000E+00
  0.000000E+00
  0.000000E+00
  0.000000E+00
  0.000000E+00
  0.000000E+00
  0.000000E+00
  0.000000E+00
  0.000000E+00
  0.000000E+00
  0.000000E+00
  0.000000E+00
  0.000000E+00
  0.000000E+00
  0.000000E+00
  0.000000E+00
  0.000000E+00
  0.000000E+00
  0.000000E+00
  0.000000E+00
  0.000000E+00
  0.000000E+00
  0.000000E+00
  0.000000E+00
  0.000000E+00
  0.000000E+00
  0.000000E+00
  0.000000E+00
  0.000000E+00
  0.000000E+00
  0.000000E+00
  0.000000E+00
  0.000000E+00
  0.000000E+00
  0.000000E+00
  0.000000E+00
  0.000000E+00
  0.000000E+00
  0.000000E+00
  0.000000E+00
  0.000000E+00
  0.000000E+00
  0.000000E+00
  0.000000E+00
  0.000000E+00
  0.000000E+00
  0.000000E+00
  0.000000E+00
  0.000000E+00
  0.000000E+00
  0.000000E+00
  0.000000E+00
  0.000000E+00
  0.000000E+00
  0.000000E+00
  0.000000E+00
  0.000000E+00
  0.000000E+00
  0.000000E+00
  0.000000E+00
  0.000000E+00
  0.000000E+00
  0.000000E+00
  0.000000E+00
  0.000000E+00
  0.000000E+00
  0.000000E+00
  0.000000E+00
  0.000000E+00
  0.000000E+00
  0.000000E+00
  0.000000E+00
  0.000000E+00
  0.000000E+00
  0.000000E+00
  0.000000E+00
  0.000000E+00
  0.000000E+00
  0.000000E+00
  0.000000E+00
  0.000000E+00
  0.000000E+00
  0.000000E+00
  0.000000E+00
  0.000000E+00
  0.000000E+00
  0.000000E+00
  0.000000E+00
  0.000000E+00
  0.000000E+00
  0.000000E+00
  0.000000E+00
  0.000000E+00
  0.000000E+00
  0.000000E+00
  0.000000E+00
  0.000000E+00
  0.000000E+00
  0.000000E+00
  0.000000E+00
  0.000000E+00
  0.000000E+00
  0.000000E+00
  0.000000E+00
  0.000000E+00
  0.000000E+00
  0.000000E+00
  0.000000E+00
  0.000000E+00
  0.000000E+00
  0.000000E+00
  0.000000E+00
  0.000000E+00
  0.000000E+00
  0.000000E+00
  0.000000E+00
  0.000000E+00
  0.000000E+00
  0.000000E+00
  0.000000E+00
  0.000000E+00
  0.000000E+00
  0.000000E+00
  0.000000E+00
  0.000000E+00
  0.000000E+00
  0.000000E+00
  0.000000E+00
  0.000000E+00
  0.000000E+00
  0.000000E+00
  0.000000E+00
  0.000000E+00
  0.000000E+00
  0.000000E+00
  0.000000E+00
  0.000000E+00
  0.000000E+00
  0.000000E+00
  0.000000E+00
  0.000000E+00
  0.000000E+00
  0.000000E+00
  0.000000E+00
  0.000000E+00
  0.000000E+00
  0.000000E+00
  0.000000E+00
  0.000000E+00
  0.000000E+00
  0.000000E+00
  0.000000E+00
  0.000000E+00
  0.000000E+00
  0.000000E+00
  0.000000E+00
  0.000000E+00
  0.000000E+00
  0.000000E+00
  0.000000E+00
  0.000000E+00
  0.000000E+00
  0.000000E+00
  0.000000E+00
  0.000000E+00
  0.000000E+00
  0.000000E+00
  0.000000E+00
  0.000000E+00
  0.000000E+00
  0.000000E+00
  0.000000E+00
  0.000000E+00
  0.000000E+00
  0.000000E+00
  0.000000E+00
  0.000000E+00
  0.000000E+00
  0.000000E+00
  0.000000E+00
  0.000000E+00
  0.000000E+00
  0.000000E+00
  0.000000E+00
  0.000000E+00
  0.000000E+00
  0.000000E+00
  0.000000E+00
  0.000000E+00
  0.000000E+00
  0.000000E+00
  0.000000E+00
  0.000000E+00
  0.000000E+00
  0.000000E+00
  0.000000E+00
  0.000000E+00
  0.000000E+00
  0.000000E+00
  0.000000E+00
  0.000000E+00
  0.000000E+00
  0.000000E+00
  0.000000E+00
  0.000000E+00
  0.000000E+00
  0.000000E+00
  0.000000E+00
  0.000000E+00
  0.000000E+00
  0.000000E+00
  0.000000E+00
  0.000000E+00
  0.000000E+00
  0.000000E+00
  0.000000E+00
  0.000000E+00
  0.000000E+00
  0.000000E+00
  0.000000E+00
  0.000000E+00
  0.000000E+00
  0.000000E+00
  0.000000E+00
  0.000000E+00
  0.000000E+00
  1.000000E-08
  1.691809E-02
  3.383618E-02
  5.075427E-02
  6.767237E-02
  8.459046E-02
  1.015085E-01
  1.184266E-01
  1.353447E-01
  1.522628E-01
  1.691809E-01
  1.860990E-01
  2.030171E-01
  2.199352E-01
  2.368533E-01
  2.537714E-01
  2.706895E-01
  2.876076E-01
  3.045256E-01
  3.214437E-01
  3.383618E-01
  3.552799E-01
  3.721980E-01
  3.891161E-01
  4.060342E-01
  4.229523E-01
  4.398704E-01
  4.567885E-01
  4.737066E-01
  4.906247E-01
  5.075427E-01
  5.244608E-01
  5.413789E-01
  5.582970E-01
  5.752151E-01
  5.921332E-01
  6.090513E-01
  6.259694E-01
  6.428875E-01
  6.598056E-01
  6.767237E-01
  6.936418E-01
  7.105598E-01
  7.274779E-01
  7.443960E-01
  7.613141E-01
  7.782322E-01
  7.951503E-01
  8.120684E-01
  8.289865E-01
  8.459046E-01
  8.628227E-01
  8.797408E-01
  8.966589E-01
  9.135769E-01
  9.304950E-01
  9.474131E-01
  9.643312E-01
  9.812493E-01
  9.981674E-01
  1.015085E+00
  1.032004E+00
  1.048922E+00
  1.065840E+00
  1.082758E+00
  1.099676E+00
  1.116594E+00
  1.133512E+00
  1.150430E+00
  1.167348E+00
  1.184266E+00
  1.201185E+00
  1.218103E+00
  1.235021E+00
  1.251939E+00
  1.268857E+00
  1.285775E+00
  1.302693E+00
  1.319611E+00
  1.336529E+00
  1.353447E+00
  1.370365E+00
  1.387284E+00
  1.404202E+00
  1.421120E+00
  1.438038E+00
  1.454956E+00
  1.471874E+00
  1.488792E+00
  1.505710E+00
  1.522628E+00
  1.539546E+00
  1.556464E+00
  1.573383E+00
  1.590301E+00
  1.607219E+00
  1.624137E+00
  1.641055E+00
  1.657973E+00
  1.674891E+00
  1.691809E+00
  1.708727E+00
  1.725645E+00
  1.742563E+00
  1.759482E+00
  1.776400E+00
  1.793318E+00
  1.810236E+00
  1.827154E+00
  1.844072E+00
  1.860990E+00
  1.877908E+00
  1.894826E+00
  1.911744E+00
  1.928662E+00
  1.945581E+00
  1.962499E+00
  1.979417E+00
  1.996335E+00
  2.013253E+00
  2.030171E+00
  2.047089E+00
  2.064007E+00
  2.080925E+00
  2.097843E+00
  2.114761E+00
  2.131680E+00
  2.148598E+00
  2.165516E+00
  2.182434E+00
  2.199352E+00
  2.216270E+00
  2.233188E+00
  2.250106E+00
  2.267024E+00
  2.283942E+00
  2.300860E+00
  2.317779E+00
  2.334697E+00
  2.351615E+00
  2.368533E+00
  2.385451E+00
  2.402369E+00
  2.419287E+00
  2.436205E+00
  2.453123E+00
  2.470041E+00
  2.486959E+00
  2.503878E+00
  2.520796E+00
  1.086356E+04
  1.086219E+04
  1.086083E+04
  1.085946E+04
  1.085810E+04
  1.085673E+04
  1.085537E+04
  1.085400E+04
  1.085263E+04
  1.084873E+04
  1.084473E+04
  1.084072E+04
  1.083671E+04
  1.083271E+04
  1.082870E+04
  1.082470E+04
  1.081994E+04
  1.081362E+04
  1.080730E+04
  1.080098E+04
  1.079466E+04
  1.078834E+04
  1.078202E+04
  1.077554E+04
  1.076689E+04
  1.075824E+04
  1.074959E+04
  1.074093E+04
  1.073228E+04
  1.072363E+04
  1.071455E+04
  1.070340E+04
  1.069225E+04
  1.068110E+04
  1.066995E+04
  1.065880E+04
  1.064766E+04
  1.063487E+04
  1.062110E+04
  1.060733E+04
  1.059356E+04
  1.057980E+04
  1.056603E+04
  1.055116E+04
  1.053466E+04
  1.051817E+04
  1.050168E+04
  1.048518E+04
  1.046869E+04
  1.045078E+04
  1.043143E+04
  1.041208E+04
  1.039272E+04
  1.037337E+04
  1.035402E+04
  1.033201E+04
  1.030964E+04
  1.028727E+04
  1.026490E+04
  1.024253E+04
  1.021841E+04
  1.019285E+04
  1.016729E+04
  1.014172E+04
  1.011616E+04
  1.008896E+04
  1.005998E+04
  1.003101E+04
  1.000203E+04
  9.973054E+03
  9.941627E+03
  9.908970E+03
  9.876312E+03
  9.843654E+03
  9.810627E+03
  9.773973E+03
  9.737319E+03
  9.700666E+03
  9.664012E+03
  9.624164E+03
  9.583242E+03
  9.542320E+03
  9.501398E+03
  9.457714E+03
  9.412346E+03
  9.366980E+03
  9.321615E+03
  9.273061E+03
  9.223145E+03
  9.173234E+03
  9.123327E+03
  9.068886E+03
  9.014341E+03
  8.959807E+03
  8.903218E+03
  8.843989E+03
  8.784780E+03
  8.725239E+03
  8.661419E+03
  8.597633E+03
  8.533881E+03
  8.466231E+03
  8.398101E+03
  8.330019E+03
  8.258180E+03
  8.185715E+03
  8.113303E+03
  8.036505E+03
  7.959603E+03
  7.881712E+03
  7.800344E+03
  7.719023E+03
  7.634977E+03
  7.549323E+03
  7.463050E+03
  7.373254E+03
  7.283490E+03
  7.190483E+03
  7.096727E+03
  7.000721E+03
  6.903079E+03
  6.803700E+03
  6.702275E+03
  6.599186E+03
  6.494034E+03
  6.386924E+03
  6.278114E+03
  6.166803E+03
  6.054522E+03
  5.939051E+03
  5.822532E+03
  5.704125E+03
  5.583562E+03
  5.461617E+03
  5.337870E+03
  5.211577E+03
  5.083225E+03
  4.952480E+03
  4.819056E+03
  4.683078E+03
  4.548098E+03
  4.422936E+03
  4.321632E+03
  4.268839E+03
  4.324486E+03
  4.418188E+03
  4.162031E+03
  4.553159E+03
  1.125867E+03
  7.138936E-03
  5.877837E+02
  5.877675E+02
  5.877513E+02
  5.877352E+02
  5.877190E+02
  5.877029E+02
  5.876867E+02
  5.876706E+02
  5.876544E+02
  5.876643E+02
  5.876751E+02
  5.876860E+02
  5.876969E+02
  5.877078E+02
  5.877187E+02
  5.877296E+02
  5.877744E+02
  5.878902E+02
  5.880061E+02
  5.881219E+02
  5.882378E+02
  5.883536E+02
  5.884695E+02
  5.885906E+02
  5.887851E+02
  5.889796E+02
  5.891740E+02
  5.893685E+02
  5.895630E+02
  5.897574E+02
  5.899544E+02
  5.901634E+02
  5.903724E+02
  5.905814E+02
  5.907904E+02
  5.909994E+02
  5.912084E+02
  5.914069E+02
  5.915990E+02
  5.917912E+02
  5.919833E+02
  5.921755E+02
  5.923676E+02
  5.925467E+02
  5.927067E+02
  5.928667E+02
  5.930267E+02
  5.931866E+02
  5.933466E+02
  5.934792E+02
  5.935840E+02
  5.936888E+02
  5.937936E+02
  5.938983E+02
  5.940030E+02
  5.940299E+02
  5.940461E+02
  5.940623E+02
  5.940785E+02
  5.940946E+02
  5.940417E+02
  5.939315E+02
  5.938212E+02
  5.937109E+02
  5.936005E+02
  5.934056E+02
  5.931191E+02
  5.928324E+02
  5.925456E+02
  5.922588E+02
  5.918197E+02
  5.913040E+02
  5.907883E+02
  5.902724E+02
  5.897328E+02
  5.889605E+02
  5.881881E+02
  5.874157E+02
  5.866431E+02
  5.856447E+02
  5.845703E+02
  5.834958E+02
  5.824212E+02
  5.811076E+02
  5.796482E+02
  5.781887E+02
  5.767291E+02
  5.749730E+02
  5.730899E+02
  5.712068E+02
  5.693236E+02
  5.670349E+02
  5.647362E+02
  5.624378E+02
  5.599397E+02
  5.571849E+02
  5.544311E+02
  5.516445E+02
  5.484446E+02
  5.452471E+02
  5.420522E+02
  5.385932E+02
  5.351025E+02
  5.316158E+02
  5.279615E+02
  5.242815E+02
  5.206065E+02
  5.167586E+02
  5.129099E+02
  5.090310E+02
  5.050373E+02
  5.010488E+02
  4.969934E+02
  4.928998E+02
  4.887982E+02
  4.846334E+02
  4.804721E+02
  4.762717E+02
  4.720635E+02
  4.678512E+02
  4.636355E+02
  4.594553E+02
  4.553162E+02
  4.512572E+02
  4.472970E+02
  4.434723E+02
  4.397652E+02
  4.362851E+02
  4.328936E+02
  4.298932E+02
  4.270677E+02
  4.245579E+02
  4.225177E+02
  4.208186E+02
  4.195962E+02
  4.191077E+02
  4.192233E+02
  4.200706E+02
  4.218390E+02
  4.249747E+02
  4.306030E+02
  4.405636E+02
  4.580296E+02
  4.882397E+02
  5.418288E+02
  6.109599E+02
  6.456459E+02
  7.749734E+02
  3.055120E+02
  2.483762E-03
  2.014728E+03
  2.014568E+03
  2.014409E+03
  2.014250E+03
  2.014091E+03
  2.013932E+03
  2.013772E+03
  2.013613E+03
  2.013454E+03
  2.013060E+03
  2.012656E+03
  2.012252E+03
  2.011848E+03
  2.011444E+03
  2.011040E+03
  2.010636E+03
  2.010187E+03
  2.009643E+03
  2.009100E+03
  2.008556E+03
  2.008013E+03
  2.007469E+03
  2.006926E+03
  2.006370E+03
  2.005645E+03
  2.004919E+03
  2.004193E+03
  2.003468E+03
  2.002742E+03
  2.002016E+03
  2.001243E+03
  2.000246E+03
  1.999249E+03
  1.998253E+03
  1.997256E+03
  1.996259E+03
  1.995262E+03
  1.994061E+03
  1.992738E+03
  1.991415E+03
  1.990092E+03
  1.988769E+03
  1.987446E+03
  1.985975E+03
  1.984288E+03
  1.982601E+03
  1.980914E+03
  1.979226E+03
  1.977539E+03
  1.975651E+03
  1.973557E+03
  1.971463E+03
  1.969369E+03
  1.967275E+03
  1.965181E+03
  1.962686E+03
  1.960137E+03
  1.957588E+03
  1.955039E+03
  1.952489E+03
  1.949657E+03
  1.946591E+03
  1.943525E+03
  1.940458E+03
  1.937392E+03
  1.934032E+03
  1.930355E+03
  1.926678E+03
  1.923000E+03
  1.919323E+03
  1.915180E+03
  1.910803E+03
  1.906426E+03
  1.902049E+03
  1.897605E+03
  1.892499E+03
  1.887393E+03
  1.882286E+03
  1.877180E+03
  1.871419E+03
  1.865437E+03
  1.859456E+03
  1.853474E+03
  1.846717E+03
  1.839488E+03
  1.832258E+03
  1.825029E+03
  1.816714E+03
  1.807936E+03
  1.799158E+03
  1.790380E+03
  1.779958E+03
  1.769496E+03
  1.759037E+03
  1.747718E+03
  1.735294E+03
  1.722875E+03
  1.710291E+03
  1.695619E+03
  1.680958E+03
  1.666306E+03
  1.649837E+03
  1.633139E+03
  1.616454E+03
  1.598370E+03
  1.580050E+03
  1.561747E+03
  1.542030E+03
  1.522280E+03
  1.502239E+03
  1.481169E+03
  1.460115E+03
  1.438362E+03
  1.416196E+03
  1.393903E+03
  1.370860E+03
  1.347828E+03
  1.324231E+03
  1.300506E+03
  1.276473E+03
  1.252216E+03
  1.227792E+03
  1.203168E+03
  1.178451E+03
  1.153614E+03
  1.128758E+03
  1.103885E+03
  1.079176E+03
  1.054533E+03
  1.030460E+03
  1.006731E+03
  9.836198E+02
  9.615526E+02
  9.402633E+02
  9.200726E+02
  9.015164E+02
  8.842150E+02
  8.683846E+02
  8.543478E+02
  8.430572E+02
  8.375437E+02
  8.435125E+02
  8.711677E+02
  9.362135E+02
  1.065011E+03
  1.231067E+03
  1.287176E+03
  1.445642E+03
 -3.636455E+01
  2.249270E-08
  1.221547E+00
  1.221393E+00
  1.221240E+00
  1.221086E+00
  1.220932E+00
  1.220779E+00
  1.220625E+00
  1.220472E+00
  1.220318E+00
  1.219879E+00
  1.219429E+00
  1.218978E+00
  1.218528E+00
  1.218078E+00
  1.217627E+00
  1.217177E+00
  1.216642E+00
  1.215931E+00
  1.215221E+00
  1.214510E+00
  1.213799E+00
  1.213088E+00
  1.212378E+00
  1.211649E+00
  1.210677E+00
  1.209704E+00
  1.208731E+00
  1.207758E+00
  1.206785E+00
  1.205812E+00
  1.204791E+00
  1.203537E+00
  1.202284E+00
  1.201030E+00
  1.199777E+00
  1.198523E+00
  1.197270E+00
  1.195832E+00
  1.194284E+00
  1.192735E+00
  1.191187E+00
  1.189639E+00
  1.188091E+00
  1.186419E+00
  1.184564E+00
  1.182710E+00
  1.180855E+00
  1.179000E+00
  1.177146E+00
  1.175132E+00
  1.172956E+00
  1.170780E+00
  1.168604E+00
  1.166428E+00
  1.164251E+00
  1.161777E+00
  1.159261E+00
  1.156746E+00
  1.154231E+00
  1.151715E+00
  1.149004E+00
  1.146129E+00
  1.143254E+00
  1.140380E+00
  1.137505E+00
  1.134447E+00
  1.131189E+00
  1.127931E+00
  1.124672E+00
  1.121414E+00
  1.117881E+00
  1.114208E+00
  1.110536E+00
  1.106864E+00
  1.103150E+00
  1.099029E+00
  1.094907E+00
  1.090786E+00
  1.086664E+00
  1.082184E+00
  1.077582E+00
  1.072981E+00
  1.068379E+00
  1.063467E+00
  1.058366E+00
  1.053265E+00
  1.048164E+00
  1.042704E+00
  1.037091E+00
  1.031479E+00
  1.025867E+00
  1.019746E+00
  1.013612E+00
  1.007480E+00
  1.001117E+00
  9.944572E-01
  9.877995E-01
  9.811044E-01
  9.739282E-01
  9.667558E-01
  9.595873E-01
  9.519804E-01
  9.443196E-01
  9.366641E-01
  9.285863E-01
  9.204380E-01
  9.122956E-01
  9.036601E-01
  8.950129E-01
  8.862545E-01
  8.771052E-01
  8.679611E-01
  8.585105E-01
  8.488792E-01
  8.391783E-01
  8.290812E-01
  8.189878E-01
  8.085297E-01
  7.979873E-01
  7.871920E-01
  7.762127E-01
  7.650381E-01
  7.536334E-01
  7.420416E-01
  7.302179E-01
  7.181740E-01
  7.059389E-01
  6.934226E-01
  6.807972E-01
  6.678131E-01
  6.547112E-01
  6.413970E-01
  6.278404E-01
  6.141283E-01
  6.002136E-01
  5.860127E-01
  5.715802E-01
  5.568787E-01
  5.418760E-01
  5.265859E-01
  5.114082E-01
  4.973345E-01
  4.859433E-01
  4.800071E-01
  4.862643E-01
  4.968006E-01
  4.679971E-01
  5.119773E-01
  1.265975E-01
  8.027335E-07
  1.070440E+00
  1.070411E+00
  1.070381E+00
  1.070352E+00
  1.070323E+00
  1.070293E+00
  1.070264E+00
  1.070234E+00
  1.070205E+00
  1.070223E+00
  1.070243E+00
  1.070262E+00
  1.070282E+00
  1.070302E+00
  1.070322E+00
  1.070342E+00
  1.070423E+00
  1.070634E+00
  1.070845E+00
  1.071056E+00
  1.071267E+00
  1.071478E+00
  1.071689E+00
  1.071910E+00
  1.072264E+00
  1.072618E+00
  1.072972E+00
  1.073326E+00
  1.073681E+00
  1.074035E+00
  1.074393E+00
  1.074774E+00
  1.075155E+00
  1.075535E+00
  1.075916E+00
  1.076297E+00
  1.076677E+00
  1.077039E+00
  1.077389E+00
  1.077738E+00
  1.078088E+00
  1.078438E+00
  1.078788E+00
  1.079114E+00
  1.079406E+00
  1.079697E+00
  1.079988E+00
  1.080280E+00
  1.080571E+00
  1.080813E+00
  1.081004E+00
  1.081194E+00
  1.081385E+00
  1.081576E+00
  1.081766E+00
  1.081815E+00
  1.081845E+00
  1.081875E+00
  1.081904E+00
  1.081933E+00
  1.081837E+00
  1.081636E+00
  1.081436E+00
  1.081235E+00
  1.081033E+00
  1.080679E+00
  1.080157E+00
  1.079635E+00
  1.079112E+00
  1.078590E+00
  1.077790E+00
  1.076851E+00
  1.075912E+00
  1.074973E+00
  1.073990E+00
  1.072583E+00
  1.071177E+00
  1.069770E+00
  1.068363E+00
  1.066545E+00
  1.064588E+00
  1.062631E+00
  1.060674E+00
  1.058282E+00
  1.055624E+00
  1.052966E+00
  1.050308E+00
  1.047110E+00
  1.043681E+00
  1.040251E+00
  1.036822E+00
  1.032654E+00
  1.028467E+00
  1.024282E+00
  1.019732E+00
  1.014715E+00
  1.009700E+00
  1.004625E+00
  9.987980E-01
  9.929750E-01
  9.871564E-01
  9.808572E-01
  9.745001E-01
  9.681502E-01
  9.614953E-01
  9.547935E-01
  9.481007E-01
  9.410932E-01
  9.340841E-01
  9.270201E-01
  9.197470E-01
  9.124833E-01
  9.050978E-01
  8.976427E-01
  8.901732E-01
  8.825885E-01
  8.750102E-01
  8.673605E-01
  8.596968E-01
  8.520255E-01
  8.443481E-01
  8.367355E-01
  8.291975E-01
  8.218055E-01
  8.145934E-01
  8.076281E-01
  8.008768E-01
  7.945392E-01
  7.883627E-01
  7.828984E-01
  7.777528E-01
  7.731822E-01
  7.694667E-01
  7.663723E-01
  7.641461E-01
  7.632566E-01
  7.634671E-01
  7.650102E-01
  7.682307E-01
  7.739411E-01
  7.841913E-01
  8.023309E-01
  8.341390E-01
  8.891561E-01
  9.867497E-01
  1.112648E+00
  1.175816E+00
  1.411340E+00
  5.563821E-01
  4.523295E-06
  1.193641E+00
  1.193546E+00
  1.193452E+00
  1.193358E+00
  1.193263E+00
  1.193169E+00
  1.193075E+00
  1.192981E+00
  1.192886E+00
  1.192653E+00
  1.192413E+00
  1.192174E+00
  1.191935E+00
  1.191695E+00
  1.191456E+00
  1.191216E+00
  1.190950E+00
  1.190628E+00
  1.190307E+00
  1.189985E+00
  1.189663E+00
  1.189341E+00
  1.189019E+00
  1.188689E+00
  1.188260E+00
  1.187830E+00
  1.187400E+00
  1.186970E+00
  1.186540E+00
  1.186110E+00
  1.185652E+00
  1.185061E+00
  1.184471E+00
  1.183880E+00
  1.183289E+00
  1.182699E+00
  1.182108E+00
  1.181397E+00
  1.180613E+00
  1.179829E+00
  1.179045E+00
  1.178261E+00
  1.177477E+00
  1.176606E+00
  1.175607E+00
  1.174607E+00
  1.173607E+00
  1.172608E+00
  1.171608E+00
  1.170489E+00
  1.169249E+00
  1.168008E+00
  1.166768E+00
  1.165527E+00
  1.164287E+00
  1.162809E+00
  1.161298E+00
  1.159788E+00
  1.158278E+00
  1.156767E+00
  1.155089E+00
  1.153273E+00
  1.151456E+00
  1.149639E+00
  1.147822E+00
  1.145832E+00
  1.143654E+00
  1.141475E+00
  1.139296E+00
  1.137117E+00
  1.134663E+00
  1.132070E+00
  1.129477E+00
  1.126884E+00
  1.124250E+00
  1.121225E+00
  1.118200E+00
  1.115175E+00
  1.112150E+00
  1.108736E+00
  1.105193E+00
  1.101649E+00
  1.098105E+00
  1.094102E+00
  1.089819E+00
  1.085535E+00
  1.081252E+00
  1.076326E+00
  1.071125E+00
  1.065925E+00
  1.060725E+00
  1.054550E+00
  1.048352E+00
  1.042155E+00
  1.035449E+00
  1.028088E+00
  1.020731E+00
  1.013275E+00
  1.004582E+00
  9.958962E-01
  9.872157E-01
  9.774587E-01
  9.675655E-01
  9.576807E-01
  9.469667E-01
  9.361127E-01
  9.252687E-01
  9.135874E-01
  9.018867E-01
  8.900131E-01
  8.775301E-01
  8.650564E-01
  8.521683E-01
  8.390363E-01
  8.258286E-01
  8.121765E-01
  7.985307E-01
  7.845506E-01
  7.704948E-01
  7.562564E-01
  7.418851E-01
  7.274147E-01
  7.128263E-01
  6.981821E-01
  6.834676E-01
  6.687415E-01
  6.540053E-01
  6.393660E-01
  6.247662E-01
  6.105040E-01
  5.964455E-01
  5.827531E-01
  5.696792E-01
  5.570662E-01
  5.451040E-01
  5.341103E-01
  5.238599E-01
  5.144811E-01
  5.061649E-01
  4.994757E-01
  4.962092E-01
  4.997454E-01
  5.161299E-01
  5.546669E-01
  6.309737E-01
  7.293549E-01
  7.625975E-01
  8.564815E-01
 -2.154445E-02
  1.332597E-11
  9.619750E-01
  9.618540E-01
  9.617331E-01
  9.616121E-01
  9.614912E-01
  9.613702E-01
  9.612493E-01
  9.611283E-01
  9.610074E-01
  9.606619E-01
  9.603072E-01
  9.599525E-01
  9.595977E-01
  9.592430E-01
  9.588883E-01
  9.585335E-01
  9.581127E-01
  9.575529E-01
  9.569932E-01
  9.564335E-01
  9.558738E-01
  9.553140E-01
  9.547543E-01
  9.541808E-01
  9.534147E-01
  9.526486E-01
  9.518825E-01
  9.511164E-01
  9.503503E-01
  9.495842E-01
  9.487797E-01
  9.477925E-01
  9.468053E-01
  9.458181E-01
  9.448310E-01
  9.438438E-01
  9.428566E-01
  9.417243E-01
  9.405051E-01
  9.392859E-01
  9.380667E-01
  9.368475E-01
  9.356283E-01
  9.343116E-01
  9.328511E-01
  9.313906E-01
  9.299301E-01
  9.284696E-01
  9.270091E-01
  9.254234E-01
  9.237097E-01
  9.219960E-01
  9.202822E-01
  9.185685E-01
  9.168548E-01
  9.149060E-01
  9.129251E-01
  9.109442E-01
  9.089633E-01
  9.069824E-01
  9.048470E-01
  9.025833E-01
  9.003195E-01
  8.980558E-01
  8.957921E-01
  8.933836E-01
  8.908177E-01
  8.882519E-01
  8.856861E-01
  8.831203E-01
  8.803374E-01
  8.774456E-01
  8.745537E-01
  8.716619E-01
  8.687373E-01
  8.654916E-01
  8.622458E-01
  8.590001E-01
  8.557544E-01
  8.522259E-01
  8.486022E-01
  8.449785E-01
  8.413548E-01
  8.374866E-01
  8.334692E-01
  8.294520E-01
  8.254349E-01
  8.211353E-01
  8.167152E-01
  8.122954E-01
  8.078760E-01
  8.030551E-01
  7.982250E-01
  7.933958E-01
  7.883847E-01
  7.831398E-01
  7.778965E-01
  7.726239E-01
  7.669723E-01
  7.613237E-01
  7.556782E-01
  7.496873E-01
  7.436541E-01
  7.376250E-01
  7.312633E-01
  7.248461E-01
  7.184336E-01
  7.116328E-01
  7.048228E-01
  6.979252E-01
  6.907198E-01
  6.835186E-01
  6.760761E-01
  6.684913E-01
  6.608517E-01
  6.529003E-01
  6.449516E-01
  6.367160E-01
  6.284139E-01
  6.199128E-01
  6.112668E-01
  6.024671E-01
  5.934863E-01
  5.843583E-01
  5.750476E-01
  5.655636E-01
  5.559291E-01
  5.460732E-01
  5.361314E-01
  5.259071E-01
  5.155900E-01
  5.051056E-01
  4.944303E-01
  4.836323E-01
  4.726748E-01
  4.614915E-01
  4.501257E-01
  4.385478E-01
  4.267324E-01
  4.146906E-01
  4.027370E-01
  3.916526E-01
  3.826804E-01
  3.780038E-01
  3.829290E-01
  3.912235E-01
  3.685382E-01
  4.031680E-01
  1.220192E-01
  5.178051E-02
  5.204861E-02
  5.204718E-02
  5.204575E-02
  5.204432E-02
  5.204289E-02
  5.204146E-02
  5.204002E-02
  5.203859E-02
  5.203716E-02
  5.203803E-02
  5.203900E-02
  5.203996E-02
  5.204093E-02
  5.204189E-02
  5.204286E-02
  5.204382E-02
  5.204778E-02
  5.205804E-02
  5.206830E-02
  5.207856E-02
  5.208882E-02
  5.209908E-02
  5.210934E-02
  5.212006E-02
  5.213728E-02
  5.215450E-02
  5.217172E-02
  5.218895E-02
  5.220617E-02
  5.222339E-02
  5.224083E-02
  5.225934E-02
  5.227785E-02
  5.229635E-02
  5.231486E-02
  5.233337E-02
  5.235187E-02
  5.236945E-02
  5.238646E-02
  5.240348E-02
  5.242049E-02
  5.243750E-02
  5.245452E-02
  5.247038E-02
  5.248455E-02
  5.249872E-02
  5.251288E-02
  5.252705E-02
  5.254121E-02
  5.255296E-02
  5.256224E-02
  5.257152E-02
  5.258079E-02
  5.259006E-02
  5.259933E-02
  5.260172E-02
  5.260316E-02
  5.260459E-02
  5.260602E-02
  5.260745E-02
  5.260277E-02
  5.259301E-02
  5.258325E-02
  5.257348E-02
  5.256370E-02
  5.254645E-02
  5.252107E-02
  5.249568E-02
  5.247029E-02
  5.244489E-02
  5.240601E-02
  5.236035E-02
  5.231468E-02
  5.226900E-02
  5.222122E-02
  5.215283E-02
  5.208443E-02
  5.201603E-02
  5.194762E-02
  5.185921E-02
  5.176407E-02
  5.166892E-02
  5.157376E-02
  5.145745E-02
  5.132822E-02
  5.119898E-02
  5.106972E-02
  5.091421E-02
  5.074746E-02
  5.058071E-02
  5.041395E-02
  5.021127E-02
  5.000771E-02
  4.980417E-02
  4.958295E-02
  4.933900E-02
  4.909514E-02
  4.884837E-02
  4.856500E-02
  4.828185E-02
  4.799891E-02
  4.769260E-02
  4.738347E-02
  4.707469E-02
  4.675108E-02
  4.642520E-02
  4.609974E-02
  4.575899E-02
  4.541817E-02
  4.507467E-02
  4.472101E-02
  4.436781E-02
  4.400869E-02
  4.364619E-02
  4.328299E-02
  4.291420E-02
  4.254572E-02
  4.217377E-02
  4.180114E-02
  4.142815E-02
  4.105487E-02
  4.068474E-02
  4.031824E-02
  3.995885E-02
  3.960821E-02
  3.926958E-02
  3.894135E-02
  3.863325E-02
  3.833298E-02
  3.806734E-02
  3.781719E-02
  3.759500E-02
  3.741439E-02
  3.726396E-02
  3.715574E-02
  3.711251E-02
  3.712274E-02
  3.719774E-02
  3.735428E-02
  3.763188E-02
  3.813018E-02
  3.901206E-02
  4.055851E-02
  4.323340E-02
  4.797841E-02
  5.409952E-02
  5.717045E-02
  6.862147E-02
  3.311077E-02
  1.801536E-02
  1.784054E-01
  1.783913E-01
  1.783772E-01
  1.783631E-01
  1.783490E-01
  1.783349E-01
  1.783208E-01
  1.783067E-01
  1.782926E-01
  1.782577E-01
  1.782219E-01
  1.781861E-01
  1.781504E-01
  1.781146E-01
  1.780788E-01
  1.780430E-01
  1.780033E-01
  1.779552E-01
  1.779070E-01
  1.778589E-01
  1.778108E-01
  1.777627E-01
  1.777145E-01
  1.776653E-01
  1.776011E-01
  1.775368E-01
  1.774726E-01
  1.774083E-01
  1.773440E-01
  1.772798E-01
  1.772113E-01
  1.771230E-01
  1.770348E-01
  1.769465E-01
  1.768582E-01
  1.767699E-01
  1.766817E-01
  1.765753E-01
  1.764582E-01
  1.763410E-01
  1.762239E-01
  1.761067E-01
  1.759896E-01
  1.758594E-01
  1.757100E-01
  1.755605E-01
  1.754111E-01
  1.752617E-01
  1.751123E-01
  1.749451E-01
  1.747597E-01
  1.745743E-01
  1.743888E-01
  1.742034E-01
  1.740180E-01
  1.737971E-01
  1.735714E-01
  1.733456E-01
  1.731199E-01
  1.728942E-01
  1.726434E-01
  1.723719E-01
  1.721003E-01
  1.718288E-01
  1.715573E-01
  1.712598E-01
  1.709342E-01
  1.706085E-01
  1.702829E-01
  1.699572E-01
  1.695904E-01
  1.692028E-01
  1.688152E-01
  1.684277E-01
  1.680341E-01
  1.675820E-01
  1.671298E-01
  1.666777E-01
  1.662255E-01
  1.657153E-01
  1.651857E-01
  1.646560E-01
  1.641263E-01
  1.635280E-01
  1.628878E-01
  1.622476E-01
  1.616075E-01
  1.608712E-01
  1.600938E-01
  1.593165E-01
  1.585392E-01
  1.576163E-01
  1.566899E-01
  1.557637E-01
  1.547614E-01
  1.536612E-01
  1.525614E-01
  1.514470E-01
  1.501478E-01
  1.488494E-01
  1.475520E-01
  1.460936E-01
  1.446149E-01
  1.431374E-01
  1.415360E-01
  1.399136E-01
  1.382928E-01
  1.365468E-01
  1.347979E-01
  1.330232E-01
  1.311574E-01
  1.292930E-01
  1.273667E-01
  1.254039E-01
  1.234299E-01
  1.213894E-01
  1.193499E-01
  1.172604E-01
  1.151596E-01
  1.130315E-01
  1.108836E-01
  1.087209E-01
  1.065405E-01
  1.043519E-01
  1.021527E-01
  9.995180E-02
  9.774942E-02
  9.556151E-02
  9.337951E-02
  9.124797E-02
  8.914686E-02
  8.710046E-02
  8.514649E-02
  8.326138E-02
  8.147353E-02
  7.983039E-02
  7.829831E-02
  7.689646E-02
  7.565339E-02
  7.465345E-02
  7.416503E-02
  7.469333E-02
  7.714188E-02
  8.290128E-02
  9.430564E-02
  1.090090E-01
  1.139765E-01
  1.280071E-01
 -3.941116E-03
  1.631453E-07
  9.621548E-01
  9.620338E-01
  9.619129E-01
  9.617919E-01
  9.616710E-01
  9.615500E-01
  9.614291E-01
  9.613081E-01
  9.611872E-01
  9.608418E-01
  9.604871E-01
  9.601323E-01
  9.597776E-01
  9.594229E-01
  9.590682E-01
  9.587135E-01
  9.582927E-01
  9.577330E-01
  9.571734E-01
  9.566137E-01
  9.560541E-01
  9.554944E-01
  9.549348E-01
  9.543614E-01
  9.535954E-01