 Title= "ADflow Lift Distribution Data"
Variables = "eta" "CoordinateX" "CoordinateY" "CoordinateZ" "Lift" "Drag" "Moment" "Normalized Lift" "Normalized Drag" "Normalized Moment" "CL" "CD" "CM" "CLp" "CDp" "CMp" "CLv" "CDv" "CMv" "Elliptical" "thickness" "twist" "chord" "fx" "fy" "fz" 
Zone T= "LiftDist_01 allWalls: : z normal"
 I=          150
 DATAPACKING=BLOCK
  0.000000E+00
  6.711405E-03
  1.342281E-02
  2.013422E-02
  2.684563E-02
  3.355704E-02
  4.026845E-02
  4.697986E-02
  5.369127E-02
  6.040268E-02
  6.711409E-02
  7.382550E-02
  8.053691E-02
  8.724832E-02
  9.395973E-02
  1.006711E-01
  1.073825E-01
  1.140940E-01
  1.208054E-01
  1.275168E-01
  1.342282E-01
  1.409396E-01
  1.476510E-01
  1.543624E-01
  1.610738E-01
  1.677852E-01
  1.744966E-01
  1.812081E-01
  1.879195E-01
  1.946309E-01
  2.013423E-01
  2.080537E-01
  2.147651E-01
  2.214765E-01
  2.281879E-01
  2.348993E-01
  2.416107E-01
  2.483221E-01
  2.550336E-01
  2.617450E-01
  2.684564E-01
  2.751678E-01
  2.818792E-01
  2.885906E-01
  2.953020E-01
  3.020134E-01
  3.087248E-01
  3.154362E-01
  3.221476E-01
  3.288591E-01
  3.355705E-01
  3.422819E-01
  3.489933E-01
  3.557047E-01
  3.624161E-01
  3.691275E-01
  3.758389E-01
  3.825503E-01
  3.892617E-01
  3.959732E-01
  4.026846E-01
  4.093960E-01
  4.161074E-01
  4.228188E-01
  4.295302E-01
  4.362416E-01
  4.429530E-01
  4.496644E-01
  4.563758E-01
  4.630872E-01
  4.697987E-01
  4.765101E-01
  4.832215E-01
  4.899329E-01
  4.966443E-01
  5.033557E-01
  5.100671E-01
  5.167785E-01
  5.234899E-01
  5.302013E-01
  5.369128E-01
  5.436242E-01
  5.503356E-01
  5.570470E-01
  5.637584E-01
  5.704698E-01
  5.771812E-01
  5.838926E-01
  5.906040E-01
  5.973154E-01
  6.040268E-01
  6.107383E-01
  6.174497E-01
  6.241611E-01
  6.308725E-01
  6.375839E-01
  6.442953E-01
  6.510067E-01
  6.577181E-01
  6.644295E-01
  6.711409E-01
  6.778524E-01
  6.845638E-01
  6.912752E-01
  6.979866E-01
  7.046980E-01
  7.114094E-01
  7.181208E-01
  7.248322E-01
  7.315436E-01
  7.382550E-01
  7.449664E-01
  7.516779E-01
  7.583893E-01
  7.651007E-01
  7.718121E-01
  7.785235E-01
  7.852349E-01
  7.919463E-01
  7.986577E-01
  8.053691E-01
  8.120805E-01
  8.187919E-01
  8.255034E-01
  8.322148E-01
  8.389262E-01
  8.456376E-01
  8.523490E-01
  8.590604E-01
  8.657718E-01
  8.724832E-01
  8.791946E-01
  8.859060E-01
  8.926175E-01
  8.993289E-01
  9.060403E-01
  9.127517E-01
  9.194631E-01
  9.261745E-01
  9.328859E-01
  9.395973E-01
  9.463087E-01
  9.530201E-01
  9.597315E-01
  9.664430E-01
  9.731544E-01
  9.798658E-01
  9.865772E-01
  9.932886E-01
  1.000000E+00
  0.000000E+00
  0.000000E+00
  0.000000E+00
  0.000000E+00
  0.000000E+00
  0.000000E+00
  0.000000E+00
  0.000000E+00
  0.000000E+00
  0.000000E+00
  0.000000E+00
  0.000000E+00
  0.000000E+00
  0.000000E+00
  0.000000E+00
  0.000000E+00
  0.000000E+00
  0.000000E+00
  0.000000E+00
  0.000000E+00
  0.000000E+00
  0.000000E+00
  0.000000E+00
  0.000000E+00
  0.000000E+00
  0.000000E+00
  0.000000E+00
  0.000000E+00
  0.000000E+00
  0.000000E+00
  0.000000E+00
  0.000000E+00
  0.000000E+00
  0.000000E+00
  0.000000E+00
  0.000000E+00
  0.000000E+00
  0.000000E+00
  0.000000E+00
  0.000000E+00
  0.000000E+00
  0.000000E+00
  0.000000E+00
  0.000000E+00
  0.000000E+00
  0.000000E+00
  0.000000E+00
  0.000000E+00
  0.000000E+00
  0.000000E+00
  0.000000E+00
  0.000000E+00
  0.000000E+00
  0.000000E+00
  0.000000E+00
  0.000000E+00
  0.000000E+00
  0.000000E+00
  0.000000E+00
  0.000000E+00
  0.000000E+00
  0.000000E+00
  0.000000E+00
  0.000000E+00
  0.000000E+00
  0.000000E+00
  0.000000E+00
  0.000000E+00
  0.000000E+00
  0.000000E+00
  0.000000E+00
  0.000000E+00
  0.000000E+00
  0.000000E+00
  0.000000E+00
  0.000000E+00
  0.000000E+00
  0.000000E+00
  0.000000E+00
  0.000000E+00
  0.000000E+00
  0.000000E+00
  0.000000E+00
  0.000000E+00
  0.000000E+00
  0.000000E+00
  0.000000E+00
  0.000000E+00
  0.000000E+00
  0.000000E+00
  0.000000E+00
  0.000000E+00
  0.000000E+00
  0.000000E+00
  0.000000E+00
  0.000000E+00
  0.000000E+00
  0.000000E+00
  0.000000E+00
  0.000000E+00
  0.000000E+00
  0.000000E+00
  0.000000E+00
  0.000000E+00
  0.000000E+00
  0.000000E+00
  0.000000E+00
  0.000000E+00
  0.000000E+00
  0.000000E+00
  0.000000E+00
  0.000000E+00
  0.000000E+00
  0.000000E+00
  0.000000E+00
  0.000000E+00
  0.000000E+00
  0.000000E+00
  0.000000E+00
  0.000000E+00
  0.000000E+00
  0.000000E+00
  0.000000E+00
  0.000000E+00
  0.000000E+00
  0.000000E+00
  0.000000E+00
  0.000000E+00
  0.000000E+00
  0.000000E+00
  0.000000E+00
  0.000000E+00
  0.000000E+00
  0.000000E+00
  0.000000E+00
  0.000000E+00
  0.000000E+00
  0.000000E+00
  0.000000E+00
  0.000000E+00
  0.000000E+00
  0.000000E+00
  0.000000E+00
  0.000000E+00
  0.000000E+00
  0.000000E+00
  0.000000E+00
  0.000000E+00
  0.000000E+00
  0.000000E+00
  0.000000E+00
  0.000000E+00
  0.000000E+00
  0.000000E+00
  0.000000E+00
  0.000000E+00
  0.000000E+00
  0.000000E+00
  0.000000E+00
  0.000000E+00
  0.000000E+00
  0.000000E+00
  0.000000E+00
  0.000000E+00
  0.000000E+00
  0.000000E+00
  0.000000E+00
  0.000000E+00
  0.000000E+00
  0.000000E+00
  0.000000E+00
  0.000000E+00
  0.000000E+00
  0.000000E+00
  0.000000E+00
  0.000000E+00
  0.000000E+00
  0.000000E+00
  0.000000E+00
  0.000000E+00
  0.000000E+00
  0.000000E+00
  0.000000E+00
  0.000000E+00
  0.000000E+00
  0.000000E+00
  0.000000E+00
  0.000000E+00
  0.000000E+00
  0.000000E+00
  0.000000E+00
  0.000000E+00
  0.000000E+00
  0.000000E+00
  0.000000E+00
  0.000000E+00
  0.000000E+00
  0.000000E+00
  0.000000E+00
  0.000000E+00
  0.000000E+00
  0.000000E+00
  0.000000E+00
  0.000000E+00
  0.000000E+00
  0.000000E+00
  0.000000E+00
  0.000000E+00
  0.000000E+00
  0.000000E+00
  0.000000E+00
  0.000000E+00
  0.000000E+00
  0.000000E+00
  0.000000E+00
  0.000000E+00
  0.000000E+00
  0.000000E+00
  0.000000E+00
  0.000000E+00
  0.000000E+00
  0.000000E+00
  0.000000E+00
  0.000000E+00
  0.000000E+00
  0.000000E+00
  0.000000E+00
  0.000000E+00
  0.000000E+00
  0.000000E+00
  0.000000E+00
  0.000000E+00
  0.000000E+00
  0.000000E+00
  0.000000E+00
  0.000000E+00
  0.000000E+00
  0.000000E+00
  0.000000E+00
  0.000000E+00
  0.000000E+00
  0.000000E+00
  0.000000E+00
  0.000000E+00
  0.000000E+00
  0.000000E+00
  0.000000E+00
  0.000000E+00
  0.000000E+00
  0.000000E+00
  0.000000E+00
  0.000000E+00
  0.000000E+00
  0.000000E+00
  0.000000E+00
  0.000000E+00
  0.000000E+00
  0.000000E+00
  0.000000E+00
  0.000000E+00
  0.000000E+00
  0.000000E+00
  0.000000E+00
  0.000000E+00
  0.000000E+00
  0.000000E+00
  0.000000E+00
  0.000000E+00
  0.000000E+00
  0.000000E+00
  0.000000E+00
  0.000000E+00
  0.000000E+00
  0.000000E+00
  0.000000E+00
  0.000000E+00
  0.000000E+00
  0.000000E+00
  0.000000E+00
  0.000000E+00
  0.000000E+00
  0.000000E+00
  0.000000E+00
  0.000000E+00
  0.000000E+00
  0.000000E+00
  0.000000E+00
  0.000000E+00
  0.000000E+00
  0.000000E+00
  0.000000E+00
  0.000000E+00
  0.000000E+00
  0.000000E+00
  0.000000E+00
  0.000000E+00
  0.000000E+00
  0.000000E+00
  0.000000E+00
  0.000000E+00
  1.000000E-08
  1.691809E-02
  3.383618E-02
  5.075427E-02
  6.767237E-02
  8.459046E-02
  1.015085E-01
  1.184266E-01
  1.353447E-01
  1.522628E-01
  1.691809E-01
  1.860990E-01
  2.030171E-01
  2.199352E-01
  2.368533E-01
  2.537714E-01
  2.706895E-01
  2.876076E-01
  3.045256E-01
  3.214437E-01
  3.383618E-01
  3.552799E-01
  3.721980E-01
  3.891161E-01
  4.060342E-01
  4.229523E-01
  4.398704E-01
  4.567885E-01
  4.737066E-01
  4.906247E-01
  5.075427E-01
  5.244608E-01
  5.413789E-01
  5.582970E-01
  5.752151E-01
  5.921332E-01
  6.090513E-01
  6.259694E-01
  6.428875E-01
  6.598056E-01
  6.767237E-01
  6.936418E-01
  7.105598E-01
  7.274779E-01
  7.443960E-01
  7.613141E-01
  7.782322E-01
  7.951503E-01
  8.120684E-01
  8.289865E-01
  8.459046E-01
  8.628227E-01
  8.797408E-01
  8.966589E-01
  9.135769E-01
  9.304950E-01
  9.474131E-01
  9.643312E-01
  9.812493E-01
  9.981674E-01
  1.015085E+00
  1.032004E+00
  1.048922E+00
  1.065840E+00
  1.082758E+00
  1.099676E+00
  1.116594E+00
  1.133512E+00
  1.150430E+00
  1.167348E+00
  1.184266E+00
  1.201185E+00
  1.218103E+00
  1.235021E+00
  1.251939E+00
  1.268857E+00
  1.285775E+00
  1.302693E+00
  1.319611E+00
  1.336529E+00
  1.353447E+00
  1.370365E+00
  1.387284E+00
  1.404202E+00
  1.421120E+00
  1.438038E+00
  1.454956E+00
  1.471874E+00
  1.488792E+00
  1.505710E+00
  1.522628E+00
  1.539546E+00
  1.556464E+00
  1.573383E+00
  1.590301E+00
  1.607219E+00
  1.624137E+00
  1.641055E+00
  1.657973E+00
  1.674891E+00
  1.691809E+00
  1.708727E+00
  1.725645E+00
  1.742563E+00
  1.759482E+00
  1.776400E+00
  1.793318E+00
  1.810236E+00
  1.827154E+00
  1.844072E+00
  1.860990E+00
  1.877908E+00
  1.894826E+00
  1.911744E+00
  1.928662E+00
  1.945581E+00
  1.962499E+00
  1.979417E+00
  1.996335E+00
  2.013253E+00
  2.030171E+00
  2.047089E+00
  2.064007E+00
  2.080925E+00
  2.097843E+00
  2.114761E+00
  2.131680E+00
  2.148598E+00
  2.165516E+00
  2.182434E+00
  2.199352E+00
  2.216270E+00
  2.233188E+00
  2.250106E+00
  2.267024E+00
  2.283942E+00
  2.300860E+00
  2.317779E+00
  2.334697E+00
  2.351615E+00
  2.368533E+00
  2.385451E+00
  2.402369E+00
  2.419287E+00
  2.436205E+00
  2.453123E+00
  2.470041E+00
  2.486959E+00
  2.503878E+00
  2.520796E+00
  1.099212E+04
  1.099059E+04
  1.098905E+04
  1.098751E+04
  1.098598E+04
  1.098444E+04
  1.098291E+04
  1.098137E+04
  1.097984E+04
  1.097539E+04
  1.097082E+04
  1.096625E+04
  1.096168E+04
  1.095711E+04
  1.095255E+04
  1.094798E+04
  1.094252E+04
  1.093521E+04
  1.092790E+04
  1.092058E+04
  1.091327E+04
  1.090595E+04
  1.089864E+04
  1.089114E+04
  1.088102E+04
  1.087090E+04
  1.086078E+04
  1.085066E+04
  1.084053E+04
  1.083041E+04
  1.081976E+04
  1.080656E+04
  1.079336E+04
  1.078016E+04
  1.076696E+04
  1.075376E+04
  1.074056E+04
  1.072531E+04
  1.070882E+04
  1.069234E+04
  1.067585E+04
  1.065937E+04
  1.064289E+04
  1.062503E+04
  1.060517E+04
  1.058530E+04
  1.056543E+04
  1.054556E+04
  1.052570E+04
  1.050410E+04
  1.048075E+04
  1.045739E+04
  1.043403E+04
  1.041068E+04
  1.038732E+04
  1.036079E+04
  1.033383E+04
  1.030688E+04
  1.027992E+04
  1.025296E+04
  1.022405E+04
  1.019350E+04
  1.016296E+04
  1.013241E+04
  1.010187E+04
  1.006962E+04
  1.003551E+04
  1.000140E+04
  9.967289E+03
  9.933182E+03
  9.896647E+03
  9.858892E+03
  9.821138E+03
  9.783386E+03
  9.745294E+03
  9.703858E+03
  9.662422E+03
  9.620988E+03
  9.579556E+03
  9.535391E+03
  9.490308E+03
  9.445226E+03
  9.400145E+03
  9.352830E+03
  9.304152E+03
  9.255475E+03
  9.206800E+03
  9.155767E+03
  9.103728E+03
  9.051691E+03
  8.999658E+03
  8.944677E+03
  8.889630E+03
  8.834590E+03
  8.778257E+03
  8.720263E+03
  8.662285E+03
  8.604086E+03
  8.543048E+03
  8.482039E+03
  8.421058E+03
  8.357530E+03
  8.293702E+03
  8.229916E+03
  8.163507E+03
  8.096672E+03
  8.029889E+03
  7.959323E+03
  7.888677E+03
  7.817018E+03
  7.741802E+03
  7.666636E+03
  7.588367E+03
  7.508269E+03
  7.427410E+03
  7.342240E+03
  7.257108E+03
  7.167919E+03
  7.077791E+03
  6.984921E+03
  6.890055E+03
  6.793104E+03
  6.693692E+03
  6.592334E+03
  6.488560E+03
  6.382653E+03
  6.274890E+03
  6.164547E+03
  6.053199E+03
  5.938633E+03
  5.823015E+03
  5.705508E+03
  5.585873E+03
  5.464888E+03
  5.342158E+03
  5.217063E+03
  5.090173E+03
  4.961332E+03
  4.830567E+03
  4.698684E+03
  4.570468E+03
  4.456092E+03
  4.371812E+03
  4.344908E+03
  4.437021E+03
  4.571258E+03
  4.317196E+03
  4.601229E+03
  1.332079E+03
  7.381480E-03
  5.990354E+02
  5.989899E+02
  5.989444E+02
  5.988990E+02
  5.988535E+02
  5.988080E+02
  5.987625E+02
  5.987170E+02
  5.986716E+02
  5.985912E+02
  5.985094E+02
  5.984276E+02
  5.983458E+02
  5.982640E+02
  5.981822E+02
  5.981004E+02
  5.980336E+02
  5.979985E+02
  5.979635E+02
  5.979284E+02
  5.978934E+02
  5.978583E+02
  5.978233E+02
  5.977902E+02
  5.977848E+02
  5.977795E+02
  5.977741E+02
  5.977688E+02
  5.977635E+02
  5.977582E+02
  5.977483E+02
  5.977162E+02
  5.976841E+02
  5.976521E+02
  5.976201E+02
  5.975882E+02
  5.975563E+02
  5.975011E+02
  5.974319E+02
  5.973628E+02
  5.972939E+02
  5.972250E+02
  5.971563E+02
  5.970786E+02
  5.969878E+02
  5.968972E+02
  5.968067E+02
  5.967165E+02
  5.966265E+02
  5.965167E+02
  5.963867E+02
  5.962570E+02
  5.961276E+02
  5.959985E+02
  5.958697E+02
  5.956614E+02
  5.954426E+02
  5.952241E+02
  5.950060E+02
  5.947883E+02
  5.945088E+02
  5.941780E+02
  5.938477E+02
  5.935178E+02
  5.931883E+02
  5.927947E+02
  5.923315E+02
  5.918687E+02
  5.914064E+02
  5.909445E+02
  5.903662E+02
  5.897296E+02
  5.890935E+02
  5.884578E+02
  5.878046E+02
  5.869767E+02
  5.861491E+02
  5.853219E+02
  5.844950E+02
  5.834611E+02
  5.823577E+02
  5.812545E+02
  5.801515E+02
  5.787498E+02
  5.771656E+02
  5.755812E+02
  5.739967E+02
  5.719669E+02
  5.697463E+02
  5.675254E+02
  5.653041E+02
  5.623967E+02
  5.594723E+02
  5.565482E+02
  5.532439E+02
  5.494515E+02
  5.456615E+02
  5.418019E+02
  5.370641E+02
  5.323330E+02
  5.276084E+02
  5.223574E+02
  5.170453E+02
  5.117435E+02
  5.063707E+02
  5.009948E+02
  4.956300E+02
  4.904983E+02
  4.853843E+02
  4.803788E+02
  4.757164E+02
  4.710610E+02
  4.667753E+02
  4.627102E+02
  4.587500E+02
  4.553392E+02
  4.519301E+02
  4.490414E+02
  4.462760E+02
  4.438512E+02
  4.416746E+02
  4.396906E+02
  4.379334E+02
  4.362581E+02
  4.346849E+02
  4.331386E+02
  4.316170E+02
  4.301080E+02
  4.286068E+02
  4.271565E+02
  4.257603E+02
  4.244590E+02
  4.233749E+02
  4.224878E+02
  4.219001E+02
  4.218807E+02
  4.224151E+02
  4.236880E+02
  4.259899E+02
  4.299648E+02
  4.370849E+02
  4.496016E+02
  4.713989E+02
  5.088720E+02
  5.747568E+02
  6.610347E+02
  7.040253E+02
  8.286296E+02
  3.698933E+02
  2.366268E-03
  2.004015E+03
  2.003662E+03
  2.003308E+03
  2.002955E+03
  2.002601E+03
  2.002248E+03
  2.001894E+03
  2.001540E+03
  2.001187E+03
  2.000189E+03
  1.999165E+03
  1.998141E+03
  1.997117E+03
  1.996093E+03
  1.995069E+03
  1.994044E+03
  1.992828E+03
  1.991206E+03
  1.989584E+03
  1.987963E+03
  1.986341E+03
  1.984720E+03
  1.983098E+03
  1.981430E+03
  1.979108E+03
  1.976787E+03
  1.974465E+03
  1.972144E+03
  1.969823E+03
  1.967501E+03
  1.965026E+03
  1.961821E+03
  1.958615E+03
  1.955410E+03
  1.952205E+03
  1.948999E+03
  1.945794E+03
  1.941950E+03
  1.937724E+03
  1.933498E+03
  1.929272E+03
  1.925046E+03
  1.920820E+03
  1.916157E+03
  1.910849E+03
  1.905542E+03
  1.900235E+03
  1.894928E+03
  1.889621E+03
  1.883779E+03
  1.877389E+03
  1.871000E+03
  1.864611E+03
  1.858222E+03
  1.851833E+03
  1.844562E+03
  1.837170E+03
  1.829778E+03
  1.822386E+03
  1.814995E+03
  1.807149E+03
  1.798926E+03
  1.790702E+03
  1.782480E+03
  1.774257E+03
  1.765726E+03
  1.756825E+03
  1.747924E+03
  1.739023E+03
  1.730122E+03
  1.720880E+03
  1.711467E+03
  1.702054E+03
  1.692640E+03
  1.683210E+03
  1.673614E+03
  1.664017E+03
  1.654421E+03
  1.644824E+03
  1.635285E+03
  1.625765E+03
  1.616245E+03
  1.606725E+03
  1.597251E+03
  1.587804E+03
  1.578357E+03
  1.568910E+03
  1.559590E+03
  1.550325E+03
  1.541061E+03
  1.531797E+03
  1.522972E+03
  1.514159E+03
  1.505349E+03
  1.496679E+03
  1.488191E+03
  1.479707E+03
  1.471212E+03
  1.462528E+03
  1.453854E+03
  1.445191E+03
  1.436056E+03
  1.426886E+03
  1.417732E+03
  1.407857E+03
  1.397871E+03
  1.387904E+03
  1.376473E+03
  1.365010E+03
  1.353086E+03
  1.339545E+03
  1.326024E+03
  1.311042E+03
  1.295195E+03
  1.278993E+03
  1.260797E+03
  1.242612E+03
  1.222611E+03
  1.202185E+03
  1.180652E+03
  1.158313E+03
  1.135341E+03
  1.111625E+03
  1.087546E+03
  1.063018E+03
  1.038339E+03
  1.013529E+03
  9.888883E+02
  9.643159E+02
  9.404900E+02
  9.171157E+02
  8.945540E+02
  8.733505E+02
  8.531566E+02
  8.343893E+02
  8.177867E+02
  8.029216E+02
  7.901445E+02
  7.799988E+02
  7.738808E+02
  7.755304E+02
  7.913307E+02
  8.325964E+02
  9.162416E+02
  1.069079E+03
  1.258442E+03
  1.310167E+03
  1.411894E+03
 -4.650462E+00
  2.296495E-08
  1.234166E+00
  1.233993E+00
  1.233821E+00
  1.233648E+00
  1.233476E+00
  1.233304E+00
  1.233131E+00
  1.232959E+00
  1.232786E+00
  1.232287E+00
  1.231774E+00
  1.231261E+00
  1.230748E+00
  1.230235E+00
  1.229722E+00
  1.229209E+00
  1.228597E+00
  1.227776E+00
  1.226955E+00
  1.226133E+00
  1.225312E+00
  1.224491E+00
  1.223670E+00
  1.222828E+00
  1.221691E+00
  1.220555E+00
  1.219419E+00
  1.218282E+00
  1.217146E+00
  1.216010E+00
  1.214813E+00
  1.213331E+00
  1.211849E+00
  1.210367E+00
  1.208885E+00
  1.207403E+00
  1.205921E+00
  1.204209E+00
  1.202358E+00
  1.200507E+00
  1.198656E+00
  1.196805E+00
  1.194954E+00
  1.192950E+00
  1.190719E+00
  1.188488E+00
  1.186258E+00
  1.184027E+00
  1.181797E+00
  1.179372E+00
  1.176750E+00
  1.174127E+00
  1.171505E+00
  1.168883E+00
  1.166260E+00
  1.163282E+00
  1.160255E+00
  1.157228E+00
  1.154201E+00
  1.151175E+00
  1.147928E+00
  1.144499E+00
  1.141069E+00
  1.137640E+00
  1.134211E+00
  1.130590E+00
  1.126760E+00
  1.122930E+00
  1.119100E+00
  1.115271E+00
  1.111169E+00
  1.106930E+00
  1.102691E+00
  1.098452E+00
  1.094175E+00
  1.089523E+00
  1.084871E+00
  1.080219E+00
  1.075567E+00
  1.070608E+00
  1.065546E+00
  1.060484E+00
  1.055423E+00
  1.050110E+00
  1.044645E+00
  1.039180E+00
  1.033715E+00
  1.027985E+00
  1.022142E+00
  1.016299E+00
  1.010457E+00
  1.004284E+00
  9.981036E-01
  9.919238E-01
  9.855989E-01
  9.790875E-01
  9.725778E-01
  9.660435E-01
  9.591903E-01
  9.523403E-01
  9.454935E-01
  9.383609E-01
  9.311943E-01
  9.240326E-01
  9.165764E-01
  9.090724E-01
  9.015742E-01
  8.936512E-01
  8.857193E-01
  8.776735E-01
  8.692285E-01
  8.607891E-01
  8.520013E-01
  8.430080E-01
  8.339294E-01
  8.243668E-01
  8.148084E-01
  8.047945E-01
  7.946752E-01
  7.842479E-01
  7.735967E-01
  7.627113E-01
  7.515496E-01
  7.401694E-01
  7.285180E-01
  7.166269E-01
  7.045276E-01
  6.921386E-01
  6.796368E-01
  6.667736E-01
  6.537924E-01
  6.405990E-01
  6.271667E-01
  6.135828E-01
  5.998030E-01
  5.857577E-01
  5.715108E-01
  5.570449E-01
  5.423630E-01
  5.275556E-01
  5.131598E-01
  5.003180E-01
  4.908552E-01
  4.878345E-01
  4.981767E-01
  5.132484E-01
  4.847231E-01
  5.166135E-01
  1.495622E-01
  8.287725E-07
  1.090884E+00
  1.090801E+00
  1.090718E+00
  1.090635E+00
  1.090553E+00
  1.090470E+00
  1.090387E+00
  1.090304E+00
  1.090221E+00
  1.090075E+00
  1.089926E+00
  1.089777E+00
  1.089628E+00
  1.089479E+00
  1.089330E+00
  1.089181E+00
  1.089060E+00
  1.088996E+00
  1.088932E+00
  1.088868E+00
  1.088804E+00
  1.088740E+00
  1.088676E+00
  1.088616E+00
  1.088606E+00
  1.088597E+00
  1.088587E+00
  1.088577E+00
  1.088568E+00
  1.088558E+00
  1.088540E+00
  1.088481E+00
  1.088423E+00
  1.088365E+00
  1.088306E+00
  1.088248E+00
  1.088190E+00
  1.088090E+00
  1.087964E+00
  1.087838E+00
  1.087712E+00
  1.087587E+00
  1.087462E+00
  1.087320E+00
  1.087155E+00
  1.086990E+00
  1.086825E+00
  1.086661E+00
  1.086497E+00
  1.086297E+00
  1.086060E+00
  1.085824E+00
  1.085589E+00
  1.085353E+00
  1.085119E+00
  1.084740E+00
  1.084341E+00
  1.083943E+00
  1.083546E+00
  1.083150E+00
  1.082641E+00
  1.082038E+00
  1.081437E+00
  1.080836E+00
  1.080236E+00
  1.079519E+00
  1.078676E+00
  1.077833E+00
  1.076991E+00
  1.076150E+00
  1.075097E+00
  1.073937E+00
  1.072779E+00
  1.071621E+00
  1.070432E+00
  1.068924E+00
  1.067417E+00
  1.065911E+00
  1.064405E+00
  1.062522E+00
  1.060513E+00
  1.058504E+00
  1.056495E+00
  1.053942E+00
  1.051057E+00
  1.048172E+00
  1.045287E+00
  1.041590E+00
  1.037546E+00
  1.033502E+00
  1.029457E+00
  1.024162E+00
  1.018837E+00
  1.013512E+00
  1.007494E+00
  1.000588E+00
  9.936864E-01
  9.866577E-01
  9.780300E-01
  9.694143E-01
  9.608105E-01
  9.512480E-01
  9.415744E-01
  9.319193E-01
  9.221352E-01
  9.123453E-01
  9.025756E-01
  8.932305E-01
  8.839175E-01
  8.748021E-01
  8.663117E-01
  8.578339E-01
  8.500293E-01
  8.426265E-01
  8.354146E-01
  8.292034E-01
  8.229952E-01
  8.177346E-01
  8.126986E-01
  8.082829E-01
  8.043191E-01
  8.007061E-01
  7.975061E-01
  7.944554E-01
  7.915904E-01
  7.887746E-01
  7.860036E-01
  7.832556E-01
  7.805218E-01
  7.778808E-01
  7.753382E-01
  7.729684E-01
  7.709943E-01
  7.693787E-01
  7.683085E-01
  7.682733E-01
  7.692464E-01
  7.715644E-01
  7.757563E-01
  7.829949E-01
  7.959610E-01
  8.187549E-01
  8.584492E-01
  9.266902E-01
  1.046671E+00
  1.203789E+00
  1.282078E+00
  1.508990E+00
  6.736006E-01
  4.309134E-06
  1.271202E+00
  1.270978E+00
  1.270754E+00
  1.270529E+00
  1.270305E+00
  1.270081E+00
  1.269857E+00
  1.269632E+00
  1.269408E+00
  1.268775E+00
  1.268126E+00
  1.267476E+00
  1.266826E+00
  1.266177E+00
  1.265527E+00
  1.264877E+00
  1.264105E+00
  1.263077E+00
  1.262048E+00
  1.261020E+00
  1.259991E+00
  1.258962E+00
  1.257934E+00
  1.256876E+00
  1.255403E+00
  1.253930E+00
  1.252458E+00
  1.250985E+00
  1.249513E+00
  1.248040E+00
  1.246470E+00
  1.244437E+00
  1.242404E+00
  1.240371E+00
  1.238337E+00
  1.236304E+00
  1.234271E+00
  1.231833E+00
  1.229152E+00
  1.226471E+00
  1.223790E+00
  1.221110E+00
  1.218429E+00
  1.215471E+00
  1.212104E+00
  1.208738E+00
  1.205371E+00
  1.202005E+00
  1.198639E+00
  1.194933E+00
  1.190880E+00
  1.186827E+00
  1.182774E+00
  1.178722E+00
  1.174669E+00
  1.170056E+00
  1.165367E+00
  1.160679E+00
  1.155990E+00
  1.151301E+00
  1.146324E+00
  1.141108E+00
  1.135892E+00
  1.130676E+00
  1.125460E+00
  1.120049E+00
  1.114403E+00
  1.108756E+00
  1.103110E+00
  1.097464E+00
  1.091602E+00
  1.085631E+00
  1.079659E+00
  1.073688E+00
  1.067707E+00
  1.061619E+00
  1.055532E+00
  1.049445E+00
  1.043357E+00
  1.037306E+00
  1.031268E+00
  1.025229E+00
  1.019190E+00
  1.013180E+00
  1.007188E+00
  1.001195E+00
  9.952030E-01
  9.892912E-01
  9.834141E-01
  9.775373E-01
  9.716608E-01
  9.660629E-01
  9.604731E-01
  9.548844E-01
  9.493846E-01
  9.440004E-01
  9.386191E-01
  9.332304E-01
  9.277220E-01
  9.222199E-01
  9.167242E-01
  9.109300E-01
  9.051131E-01
  8.993065E-01
  8.930426E-01
  8.867079E-01
  8.803859E-01
  8.731346E-01
  8.658637E-01
  8.582996E-01
  8.497105E-01
  8.411336E-01
  8.316300E-01
  8.215780E-01
  8.113006E-01
  7.997584E-01
  7.882234E-01
  7.755362E-01
  7.625791E-01
  7.489204E-01
  7.347499E-01
  7.201784E-01
  7.051342E-01
  6.898603E-01
  6.743016E-01
  6.586470E-01
  6.429097E-01
  6.272791E-01
  6.116921E-01
  5.965788E-01
  5.817518E-01
  5.674403E-01
  5.539903E-01
  5.411808E-01
  5.292762E-01
  5.187447E-01
  5.093153E-01
  5.012104E-01
  4.947747E-01
  4.908940E-01
  4.919403E-01
  5.019629E-01
  5.281389E-01
  5.811973E-01
  6.781463E-01
  7.982646E-01
  8.310752E-01
  8.956034E-01
 -2.949916E-03
  1.456730E-11
  9.733592E-01
  9.732232E-01
  9.730872E-01
  9.729512E-01
  9.728152E-01
  9.726792E-01
  9.725433E-01
  9.724073E-01
  9.722713E-01
  9.718775E-01
  9.714730E-01
  9.710685E-01
  9.706640E-01
  9.702595E-01
  9.698550E-01
  9.694506E-01
  9.689677E-01
  9.683201E-01
  9.676725E-01
  9.670249E-01
  9.663774E-01
  9.657298E-01
  9.650822E-01
  9.644181E-01
  9.635219E-01
  9.626258E-01
  9.617297E-01
  9.608336E-01
  9.599375E-01
  9.590414E-01
  9.580980E-01
  9.569293E-01
  9.557606E-01
  9.545920E-01
  9.534233E-01
  9.522547E-01
  9.510861E-01
  9.497355E-01
  9.482759E-01
  9.468163E-01
  9.453567E-01
  9.438972E-01
  9.424377E-01
  9.408570E-01
  9.390978E-01
  9.373387E-01
  9.355796E-01
  9.338206E-01
  9.320616E-01
  9.301497E-01
  9.280815E-01
  9.260133E-01
  9.239452E-01
  9.218772E-01
  9.198093E-01
  9.174604E-01
  9.150732E-01
  9.126861E-01
  9.102991E-01
  9.079123E-01
  9.053517E-01
  9.026469E-01
  8.999423E-01
  8.972377E-01
  8.945333E-01
  8.916774E-01
  8.886567E-01
  8.856361E-01
  8.826157E-01
  8.795954E-01
  8.763600E-01
  8.730167E-01
  8.696734E-01
  8.663303E-01
  8.629571E-01
  8.592877E-01
  8.556183E-01
  8.519491E-01
  8.482800E-01
  8.443689E-01
  8.403765E-01
  8.363842E-01
  8.323920E-01
  8.282019E-01
  8.238912E-01
  8.195807E-01
  8.152702E-01
  8.107511E-01
  8.061430E-01
  8.015351E-01
  7.969274E-01
  7.920591E-01
  7.871849E-01
  7.823112E-01
  7.773232E-01
  7.721883E-01
  7.670546E-01
  7.619015E-01
  7.564970E-01
  7.510948E-01
  7.456951E-01
  7.400695E-01
  7.344171E-01
  7.287682E-01
  7.228867E-01
  7.169674E-01
  7.110523E-01
  7.048023E-01
  6.985449E-01
  6.921977E-01
  6.855357E-01
  6.788781E-01
  6.719460E-01
  6.648520E-01
  6.576908E-01
  6.501484E-01
  6.426094E-01
  6.347117E-01
  6.267311E-01
  6.185081E-01
  6.101087E-01
  6.015247E-01
  5.927232E-01
  5.837493E-01
  5.745617E-01
  5.651850E-01
  5.556440E-01
  5.458744E-01
  5.360156E-01
  5.258717E-01
  5.156344E-01
  5.052295E-01
  4.946360E-01
  4.839224E-01
  4.730541E-01
  4.619762E-01
  4.507389E-01
  4.393287E-01
  4.277479E-01
  4.160679E-01
  4.047123E-01
  3.945822E-01
  3.871168E-01
  3.847318E-01
  3.928851E-01
  4.047678E-01
  3.822681E-01
  4.074137E-01
  1.443654E-01
  5.364431E-02
  5.304495E-02
  5.304093E-02
  5.303690E-02
  5.303287E-02
  5.302885E-02
  5.302482E-02
  5.302079E-02
  5.301677E-02
  5.301274E-02
  5.300563E-02
  5.299838E-02
  5.299114E-02
  5.298390E-02
  5.297666E-02
  5.296942E-02
  5.296218E-02
  5.295627E-02
  5.295317E-02
  5.295007E-02
  5.294697E-02
  5.294387E-02
  5.294077E-02
  5.293767E-02
  5.293475E-02
  5.293427E-02
  5.293380E-02
  5.293334E-02
  5.293287E-02
  5.293241E-02
  5.293195E-02
  5.293107E-02
  5.292824E-02
  5.292540E-02
  5.292258E-02
  5.291975E-02
  5.291694E-02
  5.291412E-02
  5.290924E-02
  5.290313E-02
  5.289702E-02
  5.289092E-02
  5.288484E-02
  5.287876E-02
  5.287189E-02
  5.286386E-02
  5.285584E-02
  5.284785E-02
  5.283987E-02
  5.283190E-02
  5.282219E-02
  5.281069E-02
  5.279922E-02
  5.278777E-02
  5.277634E-02
  5.276495E-02
  5.274651E-02
  5.272714E-02
  5.270780E-02
  5.268850E-02
  5.266922E-02
  5.264447E-02
  5.261519E-02
  5.258594E-02
  5.255673E-02
  5.252755E-02
  5.249270E-02
  5.245168E-02
  5.241070E-02
  5.236976E-02
  5.232885E-02
  5.227764E-02
  5.222127E-02
  5.216493E-02
  5.210863E-02
  5.205078E-02
  5.197745E-02
  5.190416E-02
  5.183089E-02
  5.175766E-02
  5.166610E-02
  5.156838E-02
  5.147067E-02
  5.137298E-02
  5.124884E-02
  5.110855E-02
  5.096824E-02
  5.082791E-02
  5.064817E-02
  5.045153E-02
  5.025486E-02
  5.005817E-02
  4.980072E-02
  4.954178E-02
  4.928287E-02
  4.899029E-02
  4.865450E-02
  4.831892E-02
  4.797717E-02
  4.755766E-02
  4.713874E-02
  4.672038E-02
  4.625539E-02
  4.578498E-02
  4.531545E-02
  4.483963E-02
  4.436353E-02
  4.388838E-02
  4.343388E-02
  4.298093E-02
  4.253759E-02
  4.212464E-02
  4.171230E-02
  4.133271E-02
  4.097267E-02
  4.062192E-02
  4.031986E-02
  4.001794E-02
  3.976214E-02
  3.951728E-02
  3.930260E-02
  3.910992E-02
  3.893430E-02
  3.877878E-02
  3.863053E-02
  3.849132E-02
  3.835450E-02
  3.821986E-02
  3.808632E-02
  3.795347E-02
  3.782512E-02
  3.770154E-02
  3.758635E-02
  3.749037E-02
  3.741181E-02
  3.735973E-02
  3.735796E-02
  3.740520E-02
  3.751781E-02
  3.772151E-02
  3.807333E-02
  3.870362E-02
  3.981174E-02
  4.174160E-02
  4.505946E-02
  5.089301E-02
  5.853215E-02
  6.233823E-02
  7.337064E-02
  4.008757E-02
  1.719667E-02
  1.774568E-01
  1.774255E-01
  1.773942E-01
  1.773629E-01
  1.773316E-01
  1.773003E-01
  1.772690E-01
  1.772377E-01
  1.772064E-01
  1.771180E-01
  1.770273E-01
  1.769367E-01
  1.768460E-01
  1.767553E-01
  1.766646E-01
  1.765739E-01
  1.764662E-01
  1.763226E-01
  1.761790E-01
  1.760355E-01
  1.758919E-01
  1.757483E-01
  1.756047E-01
  1.754570E-01
  1.752515E-01
  1.750459E-01
  1.748404E-01
  1.746348E-01
  1.744293E-01
  1.742237E-01
  1.740046E-01
  1.737208E-01
  1.734370E-01
  1.731532E-01
  1.728693E-01
  1.725855E-01
  1.723017E-01
  1.719614E-01
  1.715872E-01
  1.712130E-01
  1.708388E-01
  1.704646E-01
  1.700904E-01
  1.696775E-01
  1.692076E-01
  1.687377E-01
  1.682677E-01
  1.677978E-01
  1.673279E-01
  1.668106E-01
  1.662449E-01
  1.656791E-01
  1.651134E-01
  1.645477E-01
  1.639820E-01
  1.633381E-01
  1.626835E-01
  1.620290E-01
  1.613745E-01
  1.607200E-01
  1.600252E-01
  1.592971E-01
  1.585689E-01
  1.578408E-01
  1.571127E-01
  1.563573E-01
  1.555690E-01
  1.547808E-01
  1.539926E-01
  1.532044E-01
  1.523860E-01
  1.515524E-01
  1.507189E-01
  1.498853E-01
  1.490502E-01
  1.482004E-01
  1.473506E-01
  1.465008E-01
  1.456509E-01
  1.448062E-01
  1.439632E-01
  1.431201E-01
  1.422771E-01
  1.414381E-01
  1.406015E-01
  1.397649E-01
  1.389284E-01
  1.381031E-01
  1.372826E-01
  1.364622E-01
  1.356419E-01
  1.348605E-01
  1.340802E-01
  1.333001E-01
  1.325324E-01
  1.317808E-01
  1.310297E-01
  1.302775E-01
  1.295086E-01
  1.287406E-01
  1.279734E-01
  1.271645E-01
  1.263524E-01
  1.255417E-01
  1.246672E-01
  1.237827E-01
  1.228999E-01
  1.218874E-01
  1.208721E-01
  1.198159E-01
  1.186166E-01
  1.174190E-01
  1.160921E-01
  1.146886E-01
  1.132537E-01
  1.116424E-01
  1.100320E-01
  1.082610E-01
  1.064523E-01
  1.045457E-01
  1.025677E-01
  1.005337E-01
  9.843383E-02
  9.630188E-02
  9.413017E-02
  9.194509E-02
  8.974843E-02
  8.756666E-02
  8.539094E-02
  8.328130E-02
  8.121160E-02
  7.921382E-02
  7.733626E-02
  7.554805E-02
  7.388612E-02
  7.241583E-02
  7.109936E-02
  6.996773E-02
  6.906908E-02
  6.852705E-02
  6.867278E-02
  7.007149E-02
  7.372505E-02
  8.113112E-02
  9.466377E-02
  1.114304E-01
  1.160093E-01
  1.250155E-01
 -5.039987E-04
  1.668960E-07
  9.735515E-01
  9.734155E-01
  9.732795E-01
  9.731435E-01
  9.730075E-01
  9.728715E-01
  9.727356E-01
  9.725996E-01
  9.724636E-01
  9.720698E-01
  9.716654E-01
  9.712609E-01
  9.708565E-01
  9.704520E-01
  9.700476E-01
  9.696431E-01
  9.691603E-01
  9.685128E-01
  9.678654E-01
  9.672179E-01
  9.665704E-01
  9.659230E-01
  9.652755E-01
  9.646115E-01
  9.637156E-01