 Title= "ADflow Lift Distribution Data"
Variables = "eta" "CoordinateX" "CoordinateY" "CoordinateZ" "Lift" "Drag" "Moment" "Normalized Lift" "Normalized Drag" "Normalized Moment" "CL" "CD" "CM" "CLp" "CDp" "CMp" "CLv" "CDv" "CMv" "Elliptical" "thickness" "twist" "chord" "fx" "fy" "fz" 
Zone T= "LiftDist_01 allWalls: : z normal"
 I=          150
 DATAPACKING=BLOCK
  0.000000E+00
  6.711405E-03
  1.342281E-02
  2.013422E-02
  2.684563E-02
  3.355704E-02
  4.026845E-02
  4.697986E-02
  5.369127E-02
  6.040268E-02
  6.711409E-02
  7.382550E-02
  8.053691E-02
  8.724832E-02
  9.395973E-02
  1.006711E-01
  1.073825E-01
  1.140940E-01
  1.208054E-01
  1.275168E-01
  1.342282E-01
  1.409396E-01
  1.476510E-01
  1.543624E-01
  1.610738E-01
  1.677852E-01
  1.744966E-01
  1.812081E-01
  1.879195E-01
  1.946309E-01
  2.013423E-01
  2.080537E-01
  2.147651E-01
  2.214765E-01
  2.281879E-01
  2.348993E-01
  2.416107E-01
  2.483221E-01
  2.550336E-01
  2.617450E-01
  2.684564E-01
  2.751678E-01
  2.818792E-01
  2.885906E-01
  2.953020E-01
  3.020134E-01
  3.087248E-01
  3.154362E-01
  3.221476E-01
  3.288591E-01
  3.355705E-01
  3.422819E-01
  3.489933E-01
  3.557047E-01
  3.624161E-01
  3.691275E-01
  3.758389E-01
  3.825503E-01
  3.892617E-01
  3.959732E-01
  4.026846E-01
  4.093960E-01
  4.161074E-01
  4.228188E-01
  4.295302E-01
  4.362416E-01
  4.429530E-01
  4.496644E-01
  4.563758E-01
  4.630872E-01
  4.697987E-01
  4.765101E-01
  4.832215E-01
  4.899329E-01
  4.966443E-01
  5.033557E-01
  5.100671E-01
  5.167785E-01
  5.234899E-01
  5.302013E-01
  5.369128E-01
  5.436242E-01
  5.503356E-01
  5.570470E-01
  5.637584E-01
  5.704698E-01
  5.771812E-01
  5.838926E-01
  5.906040E-01
  5.973154E-01
  6.040268E-01
  6.107383E-01
  6.174497E-01
  6.241611E-01
  6.308725E-01
  6.375839E-01
  6.442953E-01
  6.510067E-01
  6.577181E-01
  6.644295E-01
  6.711409E-01
  6.778524E-01
  6.845638E-01
  6.912752E-01
  6.979866E-01
  7.046980E-01
  7.114094E-01
  7.181208E-01
  7.248322E-01
  7.315436E-01
  7.382550E-01
  7.449664E-01
  7.516779E-01
  7.583893E-01
  7.651007E-01
  7.718121E-01
  7.785235E-01
  7.852349E-01
  7.919463E-01
  7.986577E-01
  8.053691E-01
  8.120805E-01
  8.187919E-01
  8.255034E-01
  8.322148E-01
  8.389262E-01
  8.456376E-01
  8.523490E-01
  8.590604E-01
  8.657718E-01
  8.724832E-01
  8.791946E-01
  8.859060E-01
  8.926175E-01
  8.993289E-01
  9.060403E-01
  9.127517E-01
  9.194631E-01
  9.261745E-01
  9.328859E-01
  9.395973E-01
  9.463087E-01
  9.530201E-01
  9.597315E-01
  9.664430E-01
  9.731544E-01
  9.798658E-01
  9.865772E-01
  9.932886E-01
  1.000000E+00
  0.000000E+00
  0.000000E+00
  0.000000E+00
  0.000000E+00
  0.000000E+00
  0.000000E+00
  0.000000E+00
  0.000000E+00
  0.000000E+00
  0.000000E+00
  0.000000E+00
  0.000000E+00
  0.000000E+00
  0.000000E+00
  0.000000E+00
  0.000000E+00
  0.000000E+00
  0.000000E+00
  0.000000E+00
  0.000000E+00
  0.000000E+00
  0.000000E+00
  0.000000E+00
  0.000000E+00
  0.000000E+00
  0.000000E+00
  0.000000E+00
  0.000000E+00
  0.000000E+00
  0.000000E+00
  0.000000E+00
  0.000000E+00
  0.000000E+00
  0.000000E+00
  0.000000E+00
  0.000000E+00
  0.000000E+00
  0.000000E+00
  0.000000E+00
  0.000000E+00
  0.000000E+00
  0.000000E+00
  0.000000E+00
  0.000000E+00
  0.000000E+00
  0.000000E+00
  0.000000E+00
  0.000000E+00
  0.000000E+00
  0.000000E+00
  0.000000E+00
  0.000000E+00
  0.000000E+00
  0.000000E+00
  0.000000E+00
  0.000000E+00
  0.000000E+00
  0.000000E+00
  0.000000E+00
  0.000000E+00
  0.000000E+00
  0.000000E+00
  0.000000E+00
  0.000000E+00
  0.000000E+00
  0.000000E+00
  0.000000E+00
  0.000000E+00
  0.000000E+00
  0.000000E+00
  0.000000E+00
  0.000000E+00
  0.000000E+00
  0.000000E+00
  0.000000E+00
  0.000000E+00
  0.000000E+00
  0.000000E+00
  0.000000E+00
  0.000000E+00
  0.000000E+00
  0.000000E+00
  0.000000E+00
  0.000000E+00
  0.000000E+00
  0.000000E+00
  0.000000E+00
  0.000000E+00
  0.000000E+00
  0.000000E+00
  0.000000E+00
  0.000000E+00
  0.000000E+00
  0.000000E+00
  0.000000E+00
  0.000000E+00
  0.000000E+00
  0.000000E+00
  0.000000E+00
  0.000000E+00
  0.000000E+00
  0.000000E+00
  0.000000E+00
  0.000000E+00
  0.000000E+00
  0.000000E+00
  0.000000E+00
  0.000000E+00
  0.000000E+00
  0.000000E+00
  0.000000E+00
  0.000000E+00
  0.000000E+00
  0.000000E+00
  0.000000E+00
  0.000000E+00
  0.000000E+00
  0.000000E+00
  0.000000E+00
  0.000000E+00
  0.000000E+00
  0.000000E+00
  0.000000E+00
  0.000000E+00
  0.000000E+00
  0.000000E+00
  0.000000E+00
  0.000000E+00
  0.000000E+00
  0.000000E+00
  0.000000E+00
  0.000000E+00
  0.000000E+00
  0.000000E+00
  0.000000E+00
  0.000000E+00
  0.000000E+00
  0.000000E+00
  0.000000E+00
  0.000000E+00
  0.000000E+00
  0.000000E+00
  0.000000E+00
  0.000000E+00
  0.000000E+00
  0.000000E+00
  0.000000E+00
  0.000000E+00
  0.000000E+00
  0.000000E+00
  0.000000E+00
  0.000000E+00
  0.000000E+00
  0.000000E+00
  0.000000E+00
  0.000000E+00
  0.000000E+00
  0.000000E+00
  0.000000E+00
  0.000000E+00
  0.000000E+00
  0.000000E+00
  0.000000E+00
  0.000000E+00
  0.000000E+00
  0.000000E+00
  0.000000E+00
  0.000000E+00
  0.000000E+00
  0.000000E+00
  0.000000E+00
  0.000000E+00
  0.000000E+00
  0.000000E+00
  0.000000E+00
  0.000000E+00
  0.000000E+00
  0.000000E+00
  0.000000E+00
  0.000000E+00
  0.000000E+00
  0.000000E+00
  0.000000E+00
  0.000000E+00
  0.000000E+00
  0.000000E+00
  0.000000E+00
  0.000000E+00
  0.000000E+00
  0.000000E+00
  0.000000E+00
  0.000000E+00
  0.000000E+00
  0.000000E+00
  0.000000E+00
  0.000000E+00
  0.000000E+00
  0.000000E+00
  0.000000E+00
  0.000000E+00
  0.000000E+00
  0.000000E+00
  0.000000E+00
  0.000000E+00
  0.000000E+00
  0.000000E+00
  0.000000E+00
  0.000000E+00
  0.000000E+00
  0.000000E+00
  0.000000E+00
  0.000000E+00
  0.000000E+00
  0.000000E+00
  0.000000E+00
  0.000000E+00
  0.000000E+00
  0.000000E+00
  0.000000E+00
  0.000000E+00
  0.000000E+00
  0.000000E+00
  0.000000E+00
  0.000000E+00
  0.000000E+00
  0.000000E+00
  0.000000E+00
  0.000000E+00
  0.000000E+00
  0.000000E+00
  0.000000E+00
  0.000000E+00
  0.000000E+00
  0.000000E+00
  0.000000E+00
  0.000000E+00
  0.000000E+00
  0.000000E+00
  0.000000E+00
  0.000000E+00
  0.000000E+00
  0.000000E+00
  0.000000E+00
  0.000000E+00
  0.000000E+00
  0.000000E+00
  0.000000E+00
  0.000000E+00
  0.000000E+00
  0.000000E+00
  0.000000E+00
  0.000000E+00
  0.000000E+00
  0.000000E+00
  0.000000E+00
  0.000000E+00
  0.000000E+00
  0.000000E+00
  0.000000E+00
  0.000000E+00
  0.000000E+00
  0.000000E+00
  0.000000E+00
  0.000000E+00
  0.000000E+00
  0.000000E+00
  0.000000E+00
  0.000000E+00
  0.000000E+00
  0.000000E+00
  0.000000E+00
  0.000000E+00
  0.000000E+00
  0.000000E+00
  0.000000E+00
  0.000000E+00
  0.000000E+00
  0.000000E+00
  0.000000E+00
  0.000000E+00
  0.000000E+00
  0.000000E+00
  0.000000E+00
  0.000000E+00
  0.000000E+00
  0.000000E+00
  0.000000E+00
  0.000000E+00
  0.000000E+00
  0.000000E+00
  0.000000E+00
  0.000000E+00
  0.000000E+00
  0.000000E+00
  0.000000E+00
  0.000000E+00
  0.000000E+00
  0.000000E+00
  0.000000E+00
  0.000000E+00
  1.000000E-08
  1.691809E-02
  3.383618E-02
  5.075427E-02
  6.767237E-02
  8.459046E-02
  1.015085E-01
  1.184266E-01
  1.353447E-01
  1.522628E-01
  1.691809E-01
  1.860990E-01
  2.030171E-01
  2.199352E-01
  2.368533E-01
  2.537714E-01
  2.706895E-01
  2.876076E-01
  3.045256E-01
  3.214437E-01
  3.383618E-01
  3.552799E-01
  3.721980E-01
  3.891161E-01
  4.060342E-01
  4.229523E-01
  4.398704E-01
  4.567885E-01
  4.737066E-01
  4.906247E-01
  5.075427E-01
  5.244608E-01
  5.413789E-01
  5.582970E-01
  5.752151E-01
  5.921332E-01
  6.090513E-01
  6.259694E-01
  6.428875E-01
  6.598056E-01
  6.767237E-01
  6.936418E-01
  7.105598E-01
  7.274779E-01
  7.443960E-01
  7.613141E-01
  7.782322E-01
  7.951503E-01
  8.120684E-01
  8.289865E-01
  8.459046E-01
  8.628227E-01
  8.797408E-01
  8.966589E-01
  9.135769E-01
  9.304950E-01
  9.474131E-01
  9.643312E-01
  9.812493E-01
  9.981674E-01
  1.015085E+00
  1.032004E+00
  1.048922E+00
  1.065840E+00
  1.082758E+00
  1.099676E+00
  1.116594E+00
  1.133512E+00
  1.150430E+00
  1.167348E+00
  1.184266E+00
  1.201185E+00
  1.218103E+00
  1.235021E+00
  1.251939E+00
  1.268857E+00
  1.285775E+00
  1.302693E+00
  1.319611E+00
  1.336529E+00
  1.353447E+00
  1.370365E+00
  1.387284E+00
  1.404202E+00
  1.421120E+00
  1.438038E+00
  1.454956E+00
  1.471874E+00
  1.488792E+00
  1.505710E+00
  1.522628E+00
  1.539546E+00
  1.556464E+00
  1.573383E+00
  1.590301E+00
  1.607219E+00
  1.624137E+00
  1.641055E+00
  1.657973E+00
  1.674891E+00
  1.691809E+00
  1.708727E+00
  1.725645E+00
  1.742563E+00
  1.759482E+00
  1.776400E+00
  1.793318E+00
  1.810236E+00
  1.827154E+00
  1.844072E+00
  1.860990E+00
  1.877908E+00
  1.894826E+00
  1.911744E+00
  1.928662E+00
  1.945581E+00
  1.962499E+00
  1.979417E+00
  1.996335E+00
  2.013253E+00
  2.030171E+00
  2.047089E+00
  2.064007E+00
  2.080925E+00
  2.097843E+00
  2.114761E+00
  2.131680E+00
  2.148598E+00
  2.165516E+00
  2.182434E+00
  2.199352E+00
  2.216270E+00
  2.233188E+00
  2.250106E+00
  2.267024E+00
  2.283942E+00
  2.300860E+00
  2.317779E+00
  2.334697E+00
  2.351615E+00
  2.368533E+00
  2.385451E+00
  2.402369E+00
  2.419287E+00
  2.436205E+00
  2.453123E+00
  2.470041E+00
  2.486959E+00
  2.503878E+00
  2.520796E+00
  1.097805E+04
  1.097657E+04
  1.097510E+04
  1.097363E+04
  1.097215E+04
  1.097068E+04
  1.096921E+04
  1.096773E+04
  1.096626E+04
  1.096191E+04
  1.095744E+04
  1.095297E+04
  1.094851E+04
  1.094404E+04
  1.093957E+04
  1.093510E+04
  1.092975E+04
  1.092256E+04
  1.091537E+04
  1.090818E+04
  1.090099E+04
  1.089380E+04
  1.088660E+04
  1.087923E+04
  1.086939E+04
  1.085954E+04
  1.084969E+04
  1.083984E+04
  1.082999E+04
  1.082014E+04
  1.080979E+04
  1.079707E+04
  1.078434E+04
  1.077161E+04
  1.075889E+04
  1.074616E+04
  1.073344E+04
  1.071880E+04
  1.070302E+04
  1.068724E+04
  1.067146E+04
  1.065569E+04
  1.063991E+04
  1.062287E+04
  1.060397E+04
  1.058507E+04
  1.056617E+04
  1.054727E+04
  1.052837E+04
  1.050787E+04
  1.048573E+04
  1.046360E+04
  1.044146E+04
  1.041932E+04
  1.039719E+04
  1.037204E+04
  1.034648E+04
  1.032092E+04
  1.029536E+04
  1.026981E+04
  1.024231E+04
  1.021321E+04
  1.018411E+04
  1.015500E+04
  1.012590E+04
  1.009501E+04
  1.006217E+04
  1.002932E+04
  9.996484E+03
  9.963644E+03
  9.928112E+03
  9.891228E+03
  9.854345E+03
  9.817462E+03
  9.780190E+03
  9.739097E+03
  9.698006E+03
  9.656915E+03
  9.615825E+03
  9.571574E+03
  9.526260E+03
  9.480947E+03
  9.435635E+03
  9.387723E+03
  9.338226E+03
  9.288730E+03
  9.239236E+03
  9.187041E+03
  9.133692E+03
  9.080347E+03
  9.027005E+03
  8.970428E+03
  8.913777E+03
  8.857133E+03
  8.799135E+03
  8.739398E+03
  8.679674E+03
  8.619728E+03
  8.556906E+03
  8.494113E+03
  8.431347E+03
  8.366110E+03
  8.300581E+03
  8.235094E+03
  8.167127E+03
  8.098761E+03
  8.030445E+03
  7.958488E+03
  7.886456E+03
  7.813432E+03
  7.736923E+03
  7.660465E+03
  7.580940E+03
  7.499605E+03
  7.417515E+03
  7.331139E+03
  7.244801E+03
  7.154425E+03
  7.063115E+03
  6.969088E+03
  6.873083E+03
  6.775019E+03
  6.674525E+03
  6.572117E+03
  6.467332E+03
  6.360468E+03
  6.251794E+03
  6.140624E+03
  6.028483E+03
  5.913240E+03
  5.796985E+03
  5.678910E+03
  5.558783E+03
  5.437348E+03
  5.314221E+03
  5.188785E+03
  5.061591E+03
  4.932489E+03
  4.801512E+03
  4.669472E+03
  4.541133E+03
  4.426593E+03
  4.341961E+03
  4.314335E+03
  4.405340E+03
  4.539119E+03
  4.288108E+03
  4.577606E+03
  1.333683E+03
  7.258997E-03
  5.968868E+02
  5.968705E+02
  5.968541E+02
  5.968378E+02
  5.968215E+02
  5.968051E+02
  5.967888E+02
  5.967725E+02
  5.967562E+02
  5.967348E+02
  5.967133E+02
  5.966918E+02
  5.966703E+02
  5.966488E+02
  5.966273E+02
  5.966058E+02
  5.966027E+02
  5.966381E+02
  5.966735E+02
  5.967089E+02
  5.967444E+02
  5.967799E+02
  5.968153E+02
  5.968546E+02
  5.969466E+02
  5.970387E+02
  5.971308E+02
  5.972229E+02
  5.973150E+02
  5.974072E+02
  5.974998E+02
  5.975946E+02
  5.976895E+02
  5.977844E+02
  5.978793E+02
  5.979743E+02
  5.980694E+02
  5.981546E+02
  5.982340E+02
  5.983135E+02
  5.983931E+02
  5.984728E+02
  5.985525E+02
  5.986251E+02
  5.986871E+02
  5.987493E+02
  5.988116E+02
  5.988741E+02
  5.989368E+02
  5.989691E+02
  5.989704E+02
  5.989719E+02
  5.989737E+02
  5.989756E+02
  5.989778E+02
  5.988607E+02
  5.987276E+02
  5.985948E+02
  5.984621E+02
  5.983296E+02
  5.981075E+02
  5.978111E+02
  5.975148E+02
  5.972187E+02
  5.969229E+02
  5.965486E+02
  5.960892E+02
  5.956300E+02
  5.951711E+02
  5.947123E+02
  5.941490E+02
  5.935334E+02
  5.929180E+02
  5.923029E+02
  5.916772E+02
  5.909465E+02
  5.902161E+02
  5.894860E+02
  5.887563E+02
  5.878888E+02
  5.869752E+02
  5.860619E+02
  5.851489E+02
  5.839503E+02
  5.825772E+02
  5.812041E+02
  5.798310E+02
  5.779526E+02
  5.758577E+02
  5.737626E+02
  5.716672E+02
  5.687214E+02
  5.657548E+02
  5.627888E+02
  5.593405E+02
  5.552730E+02
  5.512086E+02
  5.470557E+02
  5.417851E+02
  5.365228E+02
  5.312686E+02
  5.253177E+02
  5.192852E+02
  5.132653E+02
  5.071166E+02
  5.009566E+02
  4.948103E+02
  4.889276E+02
  4.830659E+02
  4.773357E+02
  4.720205E+02
  4.667141E+02
  4.618591E+02
  4.572735E+02
  4.528166E+02
  4.490320E+02
  4.452498E+02
  4.421053E+02
  4.391121E+02
  4.365392E+02
  4.342724E+02
  4.322533E+02
  4.305258E+02
  4.289200E+02
  4.274657E+02
  4.260714E+02
  4.247308E+02
  4.234324E+02
  4.221540E+02
  4.209512E+02
  4.198076E+02
  4.187669E+02
  4.179452E+02
  4.173194E+02
  4.169889E+02
  4.172147E+02
  4.179837E+02
  4.194784E+02
  4.219863E+02
  4.261457E+02
  4.334151E+02
  4.460244E+02
  4.678210E+02
  5.051618E+02
  5.707803E+02
  6.568633E+02
  7.002832E+02
  8.259865E+02
  3.715417E+02
  2.325636E-03
  2.005355E+03
  2.005002E+03
  2.004648E+03
  2.004295E+03
  2.003942E+03
  2.003588E+03
  2.003235E+03
  2.002881E+03
  2.002528E+03
  2.001526E+03
  2.000498E+03
  1.999470E+03
  1.998442E+03
  1.997413E+03
  1.996385E+03
  1.995357E+03
  1.994151E+03
  1.992573E+03
  1.990994E+03
  1.989415E+03
  1.987837E+03
  1.986258E+03
  1.984680E+03
  1.983063E+03
  1.980913E+03
  1.978763E+03
  1.976614E+03
  1.974464E+03
  1.972314E+03
  1.970165E+03
  1.967892E+03
  1.965032E+03
  1.962172E+03
  1.959312E+03
  1.956452E+03
  1.953593E+03
  1.950733E+03
  1.947369E+03
  1.943703E+03
  1.940037E+03
  1.936371E+03
  1.932706E+03
  1.929040E+03
  1.925045E+03
  1.920567E+03
  1.916088E+03
  1.911609E+03
  1.907130E+03
  1.902652E+03
  1.897790E+03
  1.892537E+03
  1.887285E+03
  1.882032E+03
  1.876779E+03
  1.871527E+03
  1.865631E+03
  1.859647E+03
  1.853663E+03
  1.847679E+03
  1.841695E+03
  1.835323E+03
  1.828629E+03
  1.821935E+03
  1.815240E+03
  1.808546E+03
  1.801477E+03
  1.793999E+03
  1.786537E+03
  1.779059E+03
  1.771580E+03
  1.763524E+03
  1.755177E+03
  1.746830E+03
  1.738482E+03
  1.730066E+03
  1.720968E+03
  1.711871E+03
  1.702773E+03
  1.693676E+03
  1.684164E+03
  1.674513E+03
  1.664862E+03
  1.655211E+03
  1.645284E+03
  1.635189E+03
  1.625093E+03
  1.614998E+03
  1.604804E+03
  1.594568E+03
  1.584333E+03
  1.574098E+03
  1.564177E+03
  1.554265E+03
  1.544355E+03
  1.534599E+03
  1.525041E+03
  1.515489E+03
  1.505935E+03
  1.496309E+03
  1.486694E+03
  1.477080E+03
  1.467147E+03
  1.457187E+03
  1.447244E+03
  1.436673E+03
  1.426008E+03
  1.415365E+03
  1.403294E+03
  1.391196E+03
  1.378631E+03
  1.364432E+03
  1.350253E+03
  1.334571E+03
  1.317999E+03
  1.301058E+03
  1.282042E+03
  1.263038E+03
  1.242132E+03
  1.220780E+03
  1.198271E+03
  1.174917E+03
  1.150905E+03
  1.126116E+03
  1.100956E+03
  1.075335E+03
  1.049568E+03
  1.023675E+03
  9.979727E+02
  9.723476E+02
  9.475092E+02
  9.231377E+02
  8.996067E+02
  8.774652E+02
  8.563517E+02
  8.366866E+02
  8.192102E+02
  8.034878E+02
  7.898727E+02
  7.789119E+02
  7.720067E+02
  7.728890E+02
  7.879074E+02
  8.283109E+02
  9.109675E+02
  1.062902E+03
  1.252126E+03
  1.305073E+03
  1.410540E+03
  3.868409E-01
  2.257110E-08
  1.232614E+00
  1.232449E+00
  1.232283E+00
  1.232118E+00
  1.231952E+00
  1.231787E+00
  1.231621E+00
  1.231456E+00
  1.231290E+00
  1.230802E+00
  1.230300E+00
  1.229799E+00
  1.229297E+00
  1.228795E+00
  1.228294E+00
  1.227792E+00
  1.227192E+00
  1.226384E+00
  1.225577E+00
  1.224769E+00
  1.223962E+00
  1.223154E+00
  1.222347E+00
  1.221519E+00
  1.220414E+00
  1.219308E+00
  1.218202E+00
  1.217096E+00
  1.215990E+00
  1.214884E+00
  1.213722E+00
  1.212294E+00
  1.210865E+00
  1.209436E+00
  1.208007E+00
  1.206578E+00
  1.205149E+00
  1.203506E+00
  1.201734E+00
  1.199963E+00
  1.198191E+00
  1.196419E+00
  1.194648E+00
  1.192735E+00
  1.190612E+00
  1.188490E+00
  1.186368E+00
  1.184246E+00
  1.182125E+00
  1.179823E+00
  1.177337E+00
  1.174852E+00
  1.172366E+00
  1.169881E+00
  1.167395E+00
  1.164571E+00
  1.161702E+00
  1.158832E+00
  1.155962E+00
  1.153093E+00
  1.150006E+00
  1.146738E+00
  1.143470E+00
  1.140203E+00
  1.136935E+00
  1.133467E+00
  1.129779E+00
  1.126092E+00
  1.122404E+00
  1.118717E+00
  1.114728E+00
  1.110586E+00
  1.106445E+00
  1.102304E+00
  1.098119E+00
  1.093505E+00
  1.088891E+00
  1.084277E+00
  1.079664E+00
  1.074695E+00
  1.069608E+00
  1.064520E+00
  1.059432E+00
  1.054053E+00
  1.048495E+00
  1.042938E+00
  1.037381E+00
  1.031520E+00
  1.025530E+00
  1.019540E+00
  1.013551E+00
  1.007199E+00
  1.000838E+00
  9.944781E-01
  9.879661E-01
  9.812587E-01
  9.745530E-01
  9.678223E-01
  9.607686E-01
  9.537182E-01
  9.466709E-01
  9.393460E-01
  9.319884E-01
  9.246356E-01
  9.170043E-01
  9.093281E-01
  9.016576E-01
  8.935783E-01
  8.854905E-01
  8.772914E-01
  8.687010E-01
  8.601163E-01
  8.511872E-01
  8.420549E-01
  8.328379E-01
  8.231396E-01
  8.134456E-01
  8.032981E-01
  7.930459E-01
  7.824885E-01
  7.717091E-01
  7.606985E-01
  7.494150E-01
  7.379167E-01
  7.261515E-01
  7.141527E-01
  7.019508E-01
  6.894687E-01
  6.768775E-01
  6.639380E-01
  6.508849E-01
  6.376275E-01
  6.241396E-01
  6.105049E-01
  5.966802E-01
  5.825963E-01
  5.683149E-01
  5.538194E-01
  5.391133E-01
  5.242879E-01
  5.098780E-01
  4.970174E-01
  4.875150E-01
  4.844131E-01
  4.946312E-01
  5.096519E-01
  4.814683E-01
  5.139731E-01
  1.497458E-01
  8.150395E-07
  1.087000E+00
  1.086970E+00
  1.086940E+00
  1.086911E+00
  1.086881E+00
  1.086851E+00
  1.086821E+00
  1.086792E+00
  1.086762E+00
  1.086723E+00
  1.086684E+00
  1.086645E+00
  1.086606E+00
  1.086566E+00
  1.086527E+00
  1.086488E+00
  1.086482E+00
  1.086547E+00
  1.086611E+00
  1.086676E+00
  1.086740E+00
  1.086805E+00
  1.086870E+00
  1.086941E+00
  1.087109E+00
  1.087276E+00
  1.087444E+00
  1.087612E+00
  1.087780E+00
  1.087947E+00
  1.088116E+00
  1.088289E+00
  1.088462E+00
  1.088634E+00
  1.088807E+00
  1.088980E+00
  1.089153E+00
  1.089309E+00
  1.089453E+00
  1.089598E+00
  1.089743E+00
  1.089888E+00
  1.090033E+00
  1.090166E+00
  1.090278E+00
  1.090392E+00
  1.090505E+00
  1.090619E+00
  1.090733E+00
  1.090792E+00
  1.090794E+00
  1.090797E+00
  1.090800E+00
  1.090804E+00
  1.090808E+00
  1.090595E+00
  1.090352E+00
  1.090110E+00
  1.089869E+00
  1.089627E+00
  1.089223E+00
  1.088683E+00
  1.088143E+00
  1.087604E+00
  1.087065E+00
  1.086384E+00
  1.085547E+00
  1.084711E+00
  1.083875E+00
  1.083040E+00
  1.082014E+00
  1.080893E+00
  1.079772E+00
  1.078652E+00
  1.077513E+00
  1.076182E+00
  1.074852E+00
  1.073522E+00
  1.072193E+00
  1.070613E+00
  1.068950E+00
  1.067286E+00
  1.065624E+00
  1.063441E+00
  1.060940E+00
  1.058440E+00
  1.055939E+00
  1.052518E+00
  1.048703E+00
  1.044888E+00
  1.041072E+00
  1.035707E+00
  1.030305E+00
  1.024903E+00
  1.018624E+00
  1.011216E+00
  1.003815E+00
  9.962516E-01
  9.866532E-01
  9.770699E-01
  9.675015E-01
  9.566642E-01
  9.456783E-01
  9.347154E-01
  9.235178E-01
  9.122997E-01
  9.011066E-01
  8.903935E-01
  8.797188E-01
  8.692834E-01
  8.596039E-01
  8.499402E-01
  8.410987E-01
  8.327479E-01
  8.246312E-01
  8.177392E-01
  8.108512E-01
  8.051247E-01
  7.996739E-01
  7.949882E-01
  7.908602E-01
  7.871833E-01
  7.840371E-01
  7.811128E-01
  7.784644E-01
  7.759252E-01
  7.734838E-01
  7.711192E-01
  7.687912E-01
  7.666008E-01
  7.645181E-01
  7.626228E-01
  7.611265E-01
  7.599868E-01
  7.593849E-01
  7.597962E-01
  7.611966E-01
  7.639186E-01
  7.684858E-01
  7.760606E-01
  7.892989E-01
  8.122620E-01
  8.519561E-01
  9.199579E-01
  1.039457E+00
  1.196224E+00
  1.275296E+00
  1.504217E+00
  6.766203E-01
  4.235251E-06
  1.257784E+00
  1.257563E+00
  1.257341E+00
  1.257119E+00
  1.256898E+00
  1.256676E+00
  1.256454E+00
  1.256233E+00
  1.256011E+00
  1.255383E+00
  1.254738E+00
  1.254093E+00
  1.253448E+00
  1.252803E+00
  1.252158E+00
  1.251513E+00
  1.250757E+00
  1.249767E+00
  1.248777E+00
  1.247787E+00
  1.246797E+00
  1.245806E+00
  1.244816E+00
  1.243802E+00
  1.242454E+00
  1.241106E+00
  1.239757E+00
  1.238409E+00
  1.237061E+00
  1.235712E+00
  1.234287E+00
  1.232493E+00
  1.230699E+00
  1.228906E+00
  1.227112E+00
  1.225318E+00
  1.223525E+00
  1.221415E+00
  1.219115E+00
  1.216816E+00
  1.214517E+00
  1.212218E+00
  1.209918E+00
  1.207413E+00
  1.204604E+00
  1.201795E+00
  1.198986E+00
  1.196176E+00
  1.193367E+00
  1.190318E+00
  1.187024E+00
  1.183729E+00
  1.180435E+00
  1.177140E+00
  1.173846E+00
  1.170147E+00
  1.166394E+00
  1.162641E+00
  1.158888E+00
  1.155134E+00
  1.151138E+00
  1.146939E+00
  1.142741E+00
  1.138542E+00
  1.134343E+00
  1.129909E+00
  1.125219E+00
  1.120539E+00
  1.115848E+00
  1.111158E+00
  1.106105E+00
  1.100869E+00
  1.095634E+00
  1.090398E+00
  1.085119E+00
  1.079413E+00
  1.073707E+00
  1.068001E+00
  1.062295E+00
  1.056329E+00
  1.050276E+00
  1.044223E+00
  1.038170E+00
  1.031943E+00
  1.025611E+00
  1.019279E+00
  1.012947E+00
  1.006554E+00
  1.000134E+00
  9.937139E-01
  9.872947E-01
  9.810717E-01
  9.748548E-01
  9.686392E-01
  9.625198E-01
  9.565254E-01
  9.505342E-01
  9.445419E-01
  9.385043E-01
  9.324736E-01
  9.264433E-01
  9.202134E-01
  9.139661E-01
  9.077298E-01
  9.010995E-01
  8.944104E-01
  8.877348E-01
  8.801642E-01
  8.725759E-01
  8.646949E-01
  8.557890E-01
  8.468959E-01
  8.370598E-01
  8.266659E-01
  8.160404E-01
  8.041132E-01
  7.921936E-01
  7.790809E-01
  7.656891E-01
  7.515709E-01
  7.369230E-01
  7.218622E-01
  7.063147E-01
  6.905340E-01
  6.744639E-01
  6.583026E-01
  6.420623E-01
  6.259413E-01
  6.098689E-01
  5.942899E-01
  5.790038E-01
  5.642448E-01
  5.503574E-01
  5.371147E-01
  5.247806E-01
  5.138191E-01
  5.039578E-01
  4.954183E-01
  4.885435E-01
  4.842125E-01
  4.847659E-01
  4.941856E-01
  5.195272E-01
  5.713705E-01
  6.666659E-01
  7.853493E-01
  8.185584E-01
  8.847088E-01
  2.426315E-04
  1.415688E-11
  9.721129E-01
  9.719824E-01
  9.718520E-01
  9.717215E-01
  9.715910E-01
  9.714606E-01
  9.713301E-01
  9.711996E-01
  9.710692E-01
  9.706841E-01
  9.702885E-01
  9.698929E-01
  9.694974E-01
  9.691018E-01
  9.687062E-01
  9.683106E-01
  9.678372E-01
  9.672005E-01
  9.665637E-01
  9.659270E-01
  9.652902E-01
  9.646535E-01
  9.640167E-01
  9.633643E-01
  9.624922E-01
  9.616202E-01
  9.607482E-01
  9.598761E-01
  9.590041E-01
  9.581321E-01
  9.572159E-01
  9.560891E-01
  9.549623E-01
  9.538356E-01
  9.527088E-01
  9.515821E-01
  9.504554E-01
  9.491596E-01
  9.477625E-01
  9.463654E-01
  9.449683E-01
  9.435712E-01
  9.421742E-01
  9.406654E-01
  9.389920E-01
  9.373185E-01
  9.356452E-01
  9.339718E-01
  9.322985E-01
  9.304834E-01
  9.285232E-01
  9.265630E-01
  9.246029E-01
  9.226429E-01
  9.206829E-01
  9.184560E-01
  9.161929E-01
  9.139297E-01
  9.116666E-01
  9.094036E-01
  9.069690E-01
  9.043920E-01
  9.018150E-01
  8.992380E-01
  8.966611E-01
  8.939254E-01
  8.910173E-01
  8.881091E-01
  8.852010E-01
  8.822930E-01
  8.791466E-01
  8.758804E-01
  8.726142E-01
  8.693481E-01
  8.660475E-01
  8.624086E-01
  8.587697E-01
  8.551309E-01
  8.514922E-01
  8.475735E-01
  8.435607E-01
  8.395479E-01
  8.355353E-01
  8.312924E-01
  8.269091E-01
  8.225260E-01
  8.181430E-01
  8.135210E-01
  8.087968E-01
  8.040730E-01
  7.993494E-01
  7.943397E-01
  7.893234E-01
  7.843077E-01
  7.791723E-01
  7.738829E-01
  7.685947E-01
  7.632868E-01
  7.577243E-01
  7.521641E-01
  7.466062E-01
  7.408291E-01
  7.350259E-01
  7.292262E-01
  7.232066E-01
  7.171512E-01
  7.111002E-01
  7.047265E-01
  6.983460E-01
  6.918776E-01
  6.851008E-01
  6.783284E-01
  6.712846E-01
  6.640809E-01
  6.568104E-01
  6.491611E-01
  6.415152E-01
  6.335124E-01
  6.254272E-01
  6.171019E-01
  6.086018E-01
  5.999196E-01
  5.910225E-01
  5.819561E-01
  5.726793E-01
  5.632182E-01
  5.535969E-01
  5.437544E-01
  5.338258E-01
  5.236222E-01
  5.133287E-01
  5.028738E-01
  4.922369E-01
  4.814839E-01
  4.705805E-01
  4.594724E-01
  4.482084E-01
  4.367752E-01
  4.251756E-01
  4.134817E-01
  4.021153E-01
  3.919706E-01
  3.844741E-01
  3.820251E-01
  3.900803E-01
  4.019225E-01
  3.796927E-01
  4.053224E-01
  1.445392E-01
  5.275828E-02
  5.285469E-02
  5.285325E-02
  5.285180E-02
  5.285036E-02
  5.284891E-02
  5.284747E-02
  5.284603E-02
  5.284458E-02
  5.284314E-02
  5.284125E-02
  5.283935E-02
  5.283745E-02
  5.283555E-02
  5.283365E-02
  5.283175E-02
  5.282985E-02
  5.282957E-02
  5.283271E-02
  5.283586E-02
  5.283900E-02
  5.284214E-02
  5.284529E-02
  5.284843E-02
  5.285191E-02
  5.286007E-02
  5.286823E-02
  5.287639E-02
  5.288455E-02
  5.289272E-02
  5.290088E-02
  5.290909E-02
  5.291749E-02
  5.292590E-02
  5.293431E-02
  5.294273E-02
  5.295115E-02
  5.295958E-02
  5.296713E-02
  5.297417E-02
  5.298122E-02
  5.298827E-02
  5.299534E-02
  5.300241E-02
  5.300885E-02
  5.301435E-02
  5.301986E-02
  5.302539E-02
  5.303094E-02
  5.303649E-02
  5.303936E-02
  5.303949E-02
  5.303963E-02
  5.303979E-02
  5.303997E-02
  5.304017E-02
  5.302981E-02
  5.301803E-02
  5.300627E-02
  5.299453E-02
  5.298280E-02
  5.296314E-02
  5.293689E-02
  5.291066E-02
  5.288445E-02
  5.285825E-02
  5.282512E-02
  5.278444E-02
  5.274378E-02
  5.270313E-02
  5.266251E-02
  5.261263E-02
  5.255811E-02
  5.250361E-02
  5.244913E-02
  5.239373E-02
  5.232901E-02
  5.226433E-02
  5.219967E-02
  5.213504E-02
  5.205821E-02
  5.197730E-02
  5.189641E-02
  5.181554E-02
  5.170939E-02
  5.158779E-02
  5.146619E-02
  5.134458E-02
  5.117823E-02
  5.099272E-02
  5.080720E-02
  5.062165E-02
  5.036080E-02
  5.009812E-02
  4.983549E-02
  4.953016E-02
  4.917001E-02
  4.881013E-02
  4.844241E-02
  4.797572E-02
  4.750975E-02
  4.704449E-02
  4.651752E-02
  4.598330E-02
  4.545018E-02
  4.490563E-02
  4.436007E-02
  4.381571E-02
  4.329468E-02
  4.277551E-02
  4.226797E-02
  4.179719E-02
  4.132718E-02
  4.089716E-02
  4.049101E-02
  4.009626E-02
  3.976110E-02
  3.942613E-02
  3.914769E-02
  3.888266E-02
  3.865487E-02
  3.845421E-02
  3.827550E-02
  3.812263E-02
  3.798055E-02
  3.785189E-02
  3.772854E-02
  3.760995E-02
  3.749509E-02
  3.738199E-02
  3.727557E-02
  3.717438E-02
  3.708228E-02
  3.700956E-02
  3.695415E-02
  3.692486E-02
  3.694481E-02
  3.701283E-02
  3.714509E-02
  3.736704E-02
  3.773520E-02
  3.837871E-02
  3.949504E-02
  4.142484E-02
  4.473098E-02
  5.054096E-02
  5.816286E-02
  6.200694E-02
  7.313666E-02
  4.026620E-02
  1.690268E-02
  1.775754E-01
  1.775441E-01
  1.775129E-01
  1.774816E-01
  1.774503E-01
  1.774190E-01
  1.773877E-01
  1.773564E-01
  1.773251E-01
  1.772365E-01
  1.771454E-01
  1.770544E-01
  1.769633E-01
  1.768723E-01
  1.767812E-01
  1.766902E-01
  1.765834E-01
  1.764437E-01
  1.763039E-01
  1.761641E-01
  1.760244E-01
  1.758846E-01
  1.757448E-01
  1.756017E-01
  1.754113E-01
  1.752210E-01
  1.750307E-01
  1.748403E-01
  1.746500E-01
  1.744597E-01
  1.742584E-01
  1.740052E-01
  1.737520E-01
  1.734988E-01
  1.732455E-01
  1.729923E-01
  1.727391E-01
  1.724413E-01
  1.721167E-01
  1.717921E-01
  1.714675E-01
  1.711429E-01
  1.708184E-01
  1.704647E-01
  1.700681E-01
  1.696715E-01
  1.692750E-01
  1.688784E-01
  1.684818E-01
  1.680514E-01
  1.675863E-01
  1.671212E-01
  1.666561E-01
  1.661910E-01
  1.657259E-01
  1.652038E-01
  1.646739E-01
  1.641440E-01
  1.636141E-01
  1.630843E-01
  1.625201E-01
  1.619273E-01
  1.613345E-01
  1.607418E-01
  1.601490E-01
  1.595230E-01
  1.588608E-01
  1.582000E-01
  1.575378E-01
  1.568756E-01
  1.561622E-01
  1.554230E-01
  1.546839E-01
  1.539447E-01
  1.531994E-01
  1.523938E-01
  1.515882E-01
  1.507825E-01
  1.499769E-01
  1.491346E-01
  1.482800E-01
  1.474253E-01
  1.465707E-01
  1.456916E-01
  1.447976E-01
  1.439036E-01
  1.430096E-01
  1.421069E-01
  1.412005E-01
  1.402941E-01
  1.393878E-01
  1.385093E-01
  1.376316E-01
  1.367541E-01
  1.358902E-01
  1.350440E-01
  1.341982E-01
  1.333523E-01
  1.325000E-01
  1.316486E-01
  1.307972E-01
  1.299176E-01
  1.290355E-01
  1.281549E-01
  1.272187E-01
  1.262740E-01
  1.253313E-01
  1.242621E-01
  1.231905E-01
  1.220775E-01
  1.208198E-01
  1.195639E-01
  1.181749E-01
  1.167072E-01
  1.152069E-01
  1.135229E-01
  1.118399E-01
  1.099887E-01
  1.080981E-01
  1.061050E-01
  1.040372E-01
  1.019112E-01
  9.971650E-02
  9.748888E-02
  9.522043E-02
  9.293907E-02
  9.064654E-02
  8.837084E-02
  8.610196E-02
  8.390271E-02
  8.174476E-02
  7.966118E-02
  7.770060E-02
  7.583100E-02
  7.408959E-02
  7.254194E-02
  7.114957E-02
  6.994375E-02
  6.897293E-02
  6.836119E-02
  6.843898E-02
  6.976845E-02
  7.334567E-02
  8.066421E-02
  9.411696E-02
  1.108712E-01
  1.155584E-01
  1.248957E-01
  4.192426E-05
  1.640464E-07
  9.723029E-01
  9.721725E-01
  9.720420E-01
  9.719116E-01
  9.717811E-01
  9.716507E-01
  9.715202E-01
  9.713898E-01
  9.712594E-01
  9.708744E-01
  9.704788E-01
  9.700833E-01
  9.696878E-01
  9.692923E-01
  9.688967E-01
  9.685012E-01
  9.680279E-01
  9.673913E-01
  9.667547E-01
  9.661180E-01
  9.654814E-01
  9.648448E-01
  9.642082E-01
  9.635559E-01
  9.626840E-01