 Title= "ADflow Lift Distribution Data"
Variables = "eta" "CoordinateX" "CoordinateY" "CoordinateZ" "Lift" "Drag" "Moment" "Normalized Lift" "Normalized Drag" "Normalized Moment" "CL" "CD" "CM" "CLp" "CDp" "CMp" "CLv" "CDv" "CMv" "Elliptical" "thickness" "twist" "chord" "fx" "fy" "fz" 
Zone T= "LiftDist_01 allWalls: : z normal"
 I=          150
 DATAPACKING=BLOCK
  0.000000E+00
  6.711405E-03
  1.342281E-02
  2.013422E-02
  2.684563E-02
  3.355704E-02
  4.026845E-02
  4.697986E-02
  5.369127E-02
  6.040268E-02
  6.711409E-02
  7.382550E-02
  8.053691E-02
  8.724832E-02
  9.395973E-02
  1.006711E-01
  1.073825E-01
  1.140940E-01
  1.208054E-01
  1.275168E-01
  1.342282E-01
  1.409396E-01
  1.476510E-01
  1.543624E-01
  1.610738E-01
  1.677852E-01
  1.744966E-01
  1.812081E-01
  1.879195E-01
  1.946309E-01
  2.013423E-01
  2.080537E-01
  2.147651E-01
  2.214765E-01
  2.281879E-01
  2.348993E-01
  2.416107E-01
  2.483221E-01
  2.550336E-01
  2.617450E-01
  2.684564E-01
  2.751678E-01
  2.818792E-01
  2.885906E-01
  2.953020E-01
  3.020134E-01
  3.087248E-01
  3.154362E-01
  3.221476E-01
  3.288591E-01
  3.355705E-01
  3.422819E-01
  3.489933E-01
  3.557047E-01
  3.624161E-01
  3.691275E-01
  3.758389E-01
  3.825503E-01
  3.892617E-01
  3.959732E-01
  4.026846E-01
  4.093960E-01
  4.161074E-01
  4.228188E-01
  4.295302E-01
  4.362416E-01
  4.429530E-01
  4.496644E-01
  4.563758E-01
  4.630872E-01
  4.697987E-01
  4.765101E-01
  4.832215E-01
  4.899329E-01
  4.966443E-01
  5.033557E-01
  5.100671E-01
  5.167785E-01
  5.234899E-01
  5.302013E-01
  5.369128E-01
  5.436242E-01
  5.503356E-01
  5.570470E-01
  5.637584E-01
  5.704698E-01
  5.771812E-01
  5.838926E-01
  5.906040E-01
  5.973154E-01
  6.040268E-01
  6.107383E-01
  6.174497E-01
  6.241611E-01
  6.308725E-01
  6.375839E-01
  6.442953E-01
  6.510067E-01
  6.577181E-01
  6.644295E-01
  6.711409E-01
  6.778524E-01
  6.845638E-01
  6.912752E-01
  6.979866E-01
  7.046980E-01
  7.114094E-01
  7.181208E-01
  7.248322E-01
  7.315436E-01
  7.382550E-01
  7.449664E-01
  7.516779E-01
  7.583893E-01
  7.651007E-01
  7.718121E-01
  7.785235E-01
  7.852349E-01
  7.919463E-01
  7.986577E-01
  8.053691E-01
  8.120805E-01
  8.187919E-01
  8.255034E-01
  8.322148E-01
  8.389262E-01
  8.456376E-01
  8.523490E-01
  8.590604E-01
  8.657718E-01
  8.724832E-01
  8.791946E-01
  8.859060E-01
  8.926175E-01
  8.993289E-01
  9.060403E-01
  9.127517E-01
  9.194631E-01
  9.261745E-01
  9.328859E-01
  9.395973E-01
  9.463087E-01
  9.530201E-01
  9.597315E-01
  9.664430E-01
  9.731544E-01
  9.798658E-01
  9.865772E-01
  9.932886E-01
  1.000000E+00
  0.000000E+00
  0.000000E+00
  0.000000E+00
  0.000000E+00
  0.000000E+00
  0.000000E+00
  0.000000E+00
  0.000000E+00
  0.000000E+00
  0.000000E+00
  0.000000E+00
  0.000000E+00
  0.000000E+00
  0.000000E+00
  0.000000E+00
  0.000000E+00
  0.000000E+00
  0.000000E+00
  0.000000E+00
  0.000000E+00
  0.000000E+00
  0.000000E+00
  0.000000E+00
  0.000000E+00
  0.000000E+00
  0.000000E+00
  0.000000E+00
  0.000000E+00
  0.000000E+00
  0.000000E+00
  0.000000E+00
  0.000000E+00
  0.000000E+00
  0.000000E+00
  0.000000E+00
  0.000000E+00
  0.000000E+00
  0.000000E+00
  0.000000E+00
  0.000000E+00
  0.000000E+00
  0.000000E+00
  0.000000E+00
  0.000000E+00
  0.000000E+00
  0.000000E+00
  0.000000E+00
  0.000000E+00
  0.000000E+00
  0.000000E+00
  0.000000E+00
  0.000000E+00
  0.000000E+00
  0.000000E+00
  0.000000E+00
  0.000000E+00
  0.000000E+00
  0.000000E+00
  0.000000E+00
  0.000000E+00
  0.000000E+00
  0.000000E+00
  0.000000E+00
  0.000000E+00
  0.000000E+00
  0.000000E+00
  0.000000E+00
  0.000000E+00
  0.000000E+00
  0.000000E+00
  0.000000E+00
  0.000000E+00
  0.000000E+00
  0.000000E+00
  0.000000E+00
  0.000000E+00
  0.000000E+00
  0.000000E+00
  0.000000E+00
  0.000000E+00
  0.000000E+00
  0.000000E+00
  0.000000E+00
  0.000000E+00
  0.000000E+00
  0.000000E+00
  0.000000E+00
  0.000000E+00
  0.000000E+00
  0.000000E+00
  0.000000E+00
  0.000000E+00
  0.000000E+00
  0.000000E+00
  0.000000E+00
  0.000000E+00
  0.000000E+00
  0.000000E+00
  0.000000E+00
  0.000000E+00
  0.000000E+00
  0.000000E+00
  0.000000E+00
  0.000000E+00
  0.000000E+00
  0.000000E+00
  0.000000E+00
  0.000000E+00
  0.000000E+00
  0.000000E+00
  0.000000E+00
  0.000000E+00
  0.000000E+00
  0.000000E+00
  0.000000E+00
  0.000000E+00
  0.000000E+00
  0.000000E+00
  0.000000E+00
  0.000000E+00
  0.000000E+00
  0.000000E+00
  0.000000E+00
  0.000000E+00
  0.000000E+00
  0.000000E+00
  0.000000E+00
  0.000000E+00
  0.000000E+00
  0.000000E+00
  0.000000E+00
  0.000000E+00
  0.000000E+00
  0.000000E+00
  0.000000E+00
  0.000000E+00
  0.000000E+00
  0.000000E+00
  0.000000E+00
  0.000000E+00
  0.000000E+00
  0.000000E+00
  0.000000E+00
  0.000000E+00
  0.000000E+00
  0.000000E+00
  0.000000E+00
  0.000000E+00
  0.000000E+00
  0.000000E+00
  0.000000E+00
  0.000000E+00
  0.000000E+00
  0.000000E+00
  0.000000E+00
  0.000000E+00
  0.000000E+00
  0.000000E+00
  0.000000E+00
  0.000000E+00
  0.000000E+00
  0.000000E+00
  0.000000E+00
  0.000000E+00
  0.000000E+00
  0.000000E+00
  0.000000E+00
  0.000000E+00
  0.000000E+00
  0.000000E+00
  0.000000E+00
  0.000000E+00
  0.000000E+00
  0.000000E+00
  0.000000E+00
  0.000000E+00
  0.000000E+00
  0.000000E+00
  0.000000E+00
  0.000000E+00
  0.000000E+00
  0.000000E+00
  0.000000E+00
  0.000000E+00
  0.000000E+00
  0.000000E+00
  0.000000E+00
  0.000000E+00
  0.000000E+00
  0.000000E+00
  0.000000E+00
  0.000000E+00
  0.000000E+00
  0.000000E+00
  0.000000E+00
  0.000000E+00
  0.000000E+00
  0.000000E+00
  0.000000E+00
  0.000000E+00
  0.000000E+00
  0.000000E+00
  0.000000E+00
  0.000000E+00
  0.000000E+00
  0.000000E+00
  0.000000E+00
  0.000000E+00
  0.000000E+00
  0.000000E+00
  0.000000E+00
  0.000000E+00
  0.000000E+00
  0.000000E+00
  0.000000E+00
  0.000000E+00
  0.000000E+00
  0.000000E+00
  0.000000E+00
  0.000000E+00
  0.000000E+00
  0.000000E+00
  0.000000E+00
  0.000000E+00
  0.000000E+00
  0.000000E+00
  0.000000E+00
  0.000000E+00
  0.000000E+00
  0.000000E+00
  0.000000E+00
  0.000000E+00
  0.000000E+00
  0.000000E+00
  0.000000E+00
  0.000000E+00
  0.000000E+00
  0.000000E+00
  0.000000E+00
  0.000000E+00
  0.000000E+00
  0.000000E+00
  0.000000E+00
  0.000000E+00
  0.000000E+00
  0.000000E+00
  0.000000E+00
  0.000000E+00
  0.000000E+00
  0.000000E+00
  0.000000E+00
  0.000000E+00
  0.000000E+00
  0.000000E+00
  0.000000E+00
  0.000000E+00
  0.000000E+00
  0.000000E+00
  0.000000E+00
  0.000000E+00
  0.000000E+00
  0.000000E+00
  0.000000E+00
  0.000000E+00
  0.000000E+00
  0.000000E+00
  0.000000E+00
  0.000000E+00
  0.000000E+00
  0.000000E+00
  0.000000E+00
  0.000000E+00
  0.000000E+00
  0.000000E+00
  0.000000E+00
  0.000000E+00
  0.000000E+00
  0.000000E+00
  0.000000E+00
  0.000000E+00
  0.000000E+00
  0.000000E+00
  0.000000E+00
  0.000000E+00
  0.000000E+00
  0.000000E+00
  0.000000E+00
  0.000000E+00
  0.000000E+00
  0.000000E+00
  0.000000E+00
  0.000000E+00
  0.000000E+00
  0.000000E+00
  0.000000E+00
  0.000000E+00
  0.000000E+00
  0.000000E+00
  0.000000E+00
  0.000000E+00
  1.000000E-08
  1.691809E-02
  3.383618E-02
  5.075427E-02
  6.767237E-02
  8.459046E-02
  1.015085E-01
  1.184266E-01
  1.353447E-01
  1.522628E-01
  1.691809E-01
  1.860990E-01
  2.030171E-01
  2.199352E-01
  2.368533E-01
  2.537714E-01
  2.706895E-01
  2.876076E-01
  3.045256E-01
  3.214437E-01
  3.383618E-01
  3.552799E-01
  3.721980E-01
  3.891161E-01
  4.060342E-01
  4.229523E-01
  4.398704E-01
  4.567885E-01
  4.737066E-01
  4.906247E-01
  5.075427E-01
  5.244608E-01
  5.413789E-01
  5.582970E-01
  5.752151E-01
  5.921332E-01
  6.090513E-01
  6.259694E-01
  6.428875E-01
  6.598056E-01
  6.767237E-01
  6.936418E-01
  7.105598E-01
  7.274779E-01
  7.443960E-01
  7.613141E-01
  7.782322E-01
  7.951503E-01
  8.120684E-01
  8.289865E-01
  8.459046E-01
  8.628227E-01
  8.797408E-01
  8.966589E-01
  9.135769E-01
  9.304950E-01
  9.474131E-01
  9.643312E-01
  9.812493E-01
  9.981674E-01
  1.015085E+00
  1.032004E+00
  1.048922E+00
  1.065840E+00
  1.082758E+00
  1.099676E+00
  1.116594E+00
  1.133512E+00
  1.150430E+00
  1.167348E+00
  1.184266E+00
  1.201185E+00
  1.218103E+00
  1.235021E+00
  1.251939E+00
  1.268857E+00
  1.285775E+00
  1.302693E+00
  1.319611E+00
  1.336529E+00
  1.353447E+00
  1.370365E+00
  1.387284E+00
  1.404202E+00
  1.421120E+00
  1.438038E+00
  1.454956E+00
  1.471874E+00
  1.488792E+00
  1.505710E+00
  1.522628E+00
  1.539546E+00
  1.556464E+00
  1.573383E+00
  1.590301E+00
  1.607219E+00
  1.624137E+00
  1.641055E+00
  1.657973E+00
  1.674891E+00
  1.691809E+00
  1.708727E+00
  1.725645E+00
  1.742563E+00
  1.759482E+00
  1.776400E+00
  1.793318E+00
  1.810236E+00
  1.827154E+00
  1.844072E+00
  1.860990E+00
  1.877908E+00
  1.894826E+00
  1.911744E+00
  1.928662E+00
  1.945581E+00
  1.962499E+00
  1.979417E+00
  1.996335E+00
  2.013253E+00
  2.030171E+00
  2.047089E+00
  2.064007E+00
  2.080925E+00
  2.097843E+00
  2.114761E+00
  2.131680E+00
  2.148598E+00
  2.165516E+00
  2.182434E+00
  2.199352E+00
  2.216270E+00
  2.233188E+00
  2.250106E+00
  2.267024E+00
  2.283942E+00
  2.300860E+00
  2.317779E+00
  2.334697E+00
  2.351615E+00
  2.368533E+00
  2.385451E+00
  2.402369E+00
  2.419287E+00
  2.436205E+00
  2.453123E+00
  2.470041E+00
  2.486959E+00
  2.503878E+00
  2.520796E+00
  1.097095E+04
  1.096943E+04
  1.096792E+04
  1.096640E+04
  1.096489E+04
  1.096337E+04
  1.096185E+04
  1.096034E+04
  1.095882E+04
  1.095444E+04
  1.094994E+04
  1.094544E+04
  1.094094E+04
  1.093644E+04
  1.093194E+04
  1.092744E+04
  1.092208E+04
  1.091489E+04
  1.090771E+04
  1.090052E+04
  1.089334E+04
  1.088616E+04
  1.087897E+04
  1.087161E+04
  1.086170E+04
  1.085180E+04
  1.084190E+04
  1.083200E+04
  1.082209E+04
  1.081219E+04
  1.080178E+04
  1.078894E+04
  1.077610E+04
  1.076327E+04
  1.075043E+04
  1.073759E+04
  1.072476E+04
  1.071001E+04
  1.069413E+04
  1.067825E+04
  1.066237E+04
  1.064649E+04
  1.063061E+04
  1.061350E+04
  1.059459E+04
  1.057567E+04
  1.055676E+04
  1.053785E+04
  1.051894E+04
  1.049849E+04
  1.047648E+04
  1.045446E+04
  1.043245E+04
  1.041044E+04
  1.038842E+04
  1.036354E+04
  1.033826E+04
  1.031298E+04
  1.028771E+04
  1.026243E+04
  1.023532E+04
  1.020668E+04
  1.017804E+04
  1.014940E+04
  1.012076E+04
  1.009040E+04
  1.005815E+04
  1.002591E+04
  9.993665E+03
  9.961422E+03
  9.926488E+03
  9.890202E+03
  9.853917E+03
  9.817632E+03
  9.780948E+03
  9.740347E+03
  9.699747E+03
  9.659148E+03
  9.618549E+03
  9.574669E+03
  9.529685E+03
  9.484703E+03
  9.439722E+03
  9.392028E+03
  9.342681E+03
  9.293335E+03
  9.243992E+03
  9.191858E+03
  9.138531E+03
  9.085207E+03
  9.031888E+03
  8.975300E+03
  8.918637E+03
  8.861981E+03
  8.803994E+03
  8.744294E+03
  8.684610E+03
  8.624712E+03
  8.562035E+03
  8.499390E+03
  8.436778E+03
  8.371773E+03
  8.306493E+03
  8.241264E+03
  8.173564E+03
  8.105473E+03
  8.037442E+03
  7.965733E+03
  7.893955E+03
  7.821182E+03
  7.744888E+03
  7.668652E+03
  7.589324E+03
  7.508174E+03
  7.426266E+03
  7.340048E+03
  7.253869E+03
  7.163626E+03
  7.072442E+03
  6.978512E+03
  6.882582E+03
  6.784576E+03
  6.684121E+03
  6.581750E+03
  6.477000E+03
  6.370160E+03
  6.261504E+03
  6.150330E+03
  6.038176E+03
  5.922885E+03
  5.806575E+03
  5.688427E+03
  5.568214E+03
  5.446691E+03
  5.323475E+03
  5.197960E+03
  5.070690E+03
  4.941503E+03
  4.810404E+03
  4.678136E+03
  4.549334E+03
  4.433964E+03
  4.347957E+03
  4.318161E+03
  4.405785E+03
  4.535070E+03
  4.281176E+03
  4.572570E+03
  1.324348E+03
  7.284118E-03
  5.963263E+02
  5.962911E+02
  5.962560E+02
  5.962208E+02
  5.961856E+02
  5.961504E+02
  5.961152E+02
  5.960800E+02
  5.960449E+02
  5.959972E+02
  5.959490E+02
  5.959008E+02
  5.958526E+02
  5.958044E+02
  5.957562E+02
  5.957080E+02
  5.956837E+02
  5.957098E+02
  5.957358E+02
  5.957619E+02
  5.957880E+02
  5.958141E+02
  5.958402E+02
  5.958705E+02
  5.959595E+02
  5.960485E+02
  5.961376E+02
  5.962266E+02
  5.963158E+02
  5.964049E+02
  5.964959E+02
  5.965958E+02
  5.966958E+02
  5.967959E+02
  5.968960E+02
  5.969961E+02
  5.970964E+02
  5.971948E+02
  5.972923E+02
  5.973898E+02
  5.974875E+02
  5.975853E+02
  5.976832E+02
  5.977772E+02
  5.978654E+02
  5.979538E+02
  5.980424E+02
  5.981311E+02
  5.982201E+02
  5.982701E+02
  5.982805E+02
  5.982910E+02
  5.983017E+02
  5.983126E+02
  5.983237E+02
  5.981756E+02
  5.980059E+02
  5.978363E+02
  5.976669E+02
  5.974976E+02
  5.972139E+02
  5.968351E+02
  5.964564E+02
  5.960779E+02
  5.956994E+02
  5.952291E+02
  5.946590E+02
  5.940890E+02
  5.935191E+02
  5.929493E+02
  5.922696E+02
  5.915346E+02
  5.907997E+02
  5.900650E+02
  5.893217E+02
  5.884927E+02
  5.876640E+02
  5.868355E+02
  5.860072E+02
  5.850802E+02
  5.841202E+02
  5.831606E+02
  5.822013E+02
  5.810004E+02
  5.796520E+02
  5.783037E+02
  5.769555E+02
  5.751667E+02
  5.731890E+02
  5.712112E+02
  5.692331E+02
  5.665253E+02
  5.637996E+02
  5.610741E+02
  5.579317E+02
  5.542537E+02
  5.505784E+02
  5.468252E+02
  5.420926E+02
  5.373673E+02
  5.326493E+02
  5.273192E+02
  5.219178E+02
  5.165281E+02
  5.110065E+02
  5.054723E+02
  4.999511E+02
  4.946036E+02
  4.892735E+02
  4.840405E+02
  4.791076E+02
  4.741833E+02
  4.695958E+02
  4.652096E+02
  4.609208E+02
  4.571349E+02
  4.533515E+02
  4.500409E+02
  4.468428E+02
  4.439552E+02
  4.412936E+02
  4.388153E+02
  4.365525E+02
  4.343810E+02
  4.323231E+02
  4.303172E+02
  4.283577E+02
  4.264525E+02
  4.245713E+02
  4.228014E+02
  4.211066E+02
  4.195446E+02
  4.182429E+02
  4.171642E+02
  4.164176E+02
  4.162763E+02
  4.167116E+02
  4.179065E+02
  4.201459E+02
  4.240601E+02
  4.310854E+02
  4.434219E+02
  4.648732E+02
  5.017145E+02
  5.665028E+02
  6.514265E+02
  6.941887E+02
  8.194556E+02
  3.652224E+02
  2.336191E-03
  2.006571E+03
  2.006223E+03
  2.005875E+03
  2.005527E+03
  2.005179E+03
  2.004831E+03
  2.004483E+03
  2.004135E+03
  2.003787E+03
  2.002812E+03
  2.001811E+03
  2.000810E+03
  1.999810E+03
  1.998809E+03
  1.997808E+03
  1.996807E+03
  1.995625E+03
  1.994063E+03
  1.992501E+03
  1.990939E+03
  1.989377E+03
  1.987815E+03
  1.986253E+03
  1.984650E+03
  1.982459E+03
  1.980269E+03
  1.978079E+03
  1.975889E+03
  1.973699E+03
  1.971508E+03
  1.969187E+03
  1.966241E+03
  1.963296E+03
  1.960350E+03
  1.957405E+03
  1.954459E+03
  1.951514E+03
  1.948067E+03
  1.944320E+03
  1.940573E+03
  1.936826E+03
  1.933079E+03
  1.929332E+03
  1.925288E+03
  1.920806E+03
  1.916323E+03
  1.911841E+03
  1.907359E+03
  1.902877E+03
  1.898087E+03
  1.892981E+03
  1.887875E+03
  1.882769E+03
  1.877663E+03
  1.872557E+03
  1.866980E+03
  1.861339E+03
  1.855698E+03
  1.850057E+03
  1.844416E+03
  1.838493E+03
  1.832335E+03
  1.826178E+03
  1.820020E+03
  1.813862E+03
  1.807379E+03
  1.800543E+03
  1.793706E+03
  1.786870E+03
  1.780033E+03
  1.772592E+03
  1.764846E+03
  1.757116E+03
  1.749370E+03
  1.741540E+03
  1.732883E+03
  1.724227E+03
  1.715571E+03
  1.706914E+03
  1.697663E+03
  1.688212E+03
  1.678760E+03
  1.669309E+03
  1.659399E+03
  1.649207E+03
  1.639017E+03
  1.628826E+03
  1.618341E+03
  1.607731E+03
  1.597121E+03
  1.586512E+03
  1.576012E+03
  1.565517E+03
  1.555023E+03
  1.544614E+03
  1.534315E+03
  1.524021E+03
  1.513718E+03
  1.503238E+03
  1.492771E+03
  1.482314E+03
  1.471505E+03
  1.460676E+03
  1.449867E+03
  1.438503E+03
  1.427061E+03
  1.415641E+03
  1.402938E+03
  1.390214E+03
  1.377066E+03
  1.362424E+03
  1.347805E+03
  1.331811E+03
  1.315004E+03
  1.297861E+03
  1.278823E+03
  1.259798E+03
  1.239039E+03
  1.217876E+03
  1.195660E+03
  1.172676E+03
  1.149091E+03
  1.124799E+03
  1.100166E+03
  1.075110E+03
  1.049922E+03
  1.024621E+03
  9.995055E+02
  9.744668E+02
  9.501872E+02
  9.263613E+02
  9.033506E+02
  8.816956E+02
  8.610478E+02
  8.418216E+02
  8.247496E+02
  8.094033E+02
  7.961247E+02
  7.854408E+02
  7.787053E+02
  7.795678E+02
  7.942994E+02
  8.340379E+02
  9.154951E+02
  1.065422E+03
  1.251928E+03
  1.303281E+03
  1.409587E+03
 -2.603330E+00
  2.265613E-08
  1.231899E+00
  1.231729E+00
  1.231559E+00
  1.231389E+00
  1.231219E+00
  1.231048E+00
  1.230878E+00
  1.230708E+00
  1.230538E+00
  1.230046E+00
  1.229541E+00
  1.229035E+00
  1.228530E+00
  1.228025E+00
  1.227520E+00
  1.227014E+00
  1.226412E+00
  1.225605E+00
  1.224798E+00
  1.223992E+00
  1.223185E+00
  1.222378E+00
  1.221572E+00
  1.220745E+00
  1.219633E+00
  1.218521E+00
  1.217409E+00
  1.216297E+00
  1.215185E+00
  1.214073E+00
  1.212904E+00
  1.211462E+00
  1.210021E+00
  1.208579E+00
  1.207138E+00
  1.205696E+00
  1.204255E+00
  1.202600E+00
  1.200816E+00
  1.199033E+00
  1.197250E+00
  1.195466E+00
  1.193683E+00
  1.191762E+00
  1.189639E+00
  1.187515E+00
  1.185391E+00
  1.183268E+00
  1.181144E+00
  1.178849E+00
  1.176377E+00
  1.173905E+00
  1.171433E+00
  1.168961E+00
  1.166489E+00
  1.163695E+00
  1.160856E+00
  1.158018E+00
  1.155180E+00
  1.152342E+00
  1.149297E+00
  1.146081E+00
  1.142866E+00
  1.139650E+00
  1.136434E+00
  1.133025E+00
  1.129404E+00
  1.125783E+00
  1.122163E+00
  1.118542E+00
  1.114620E+00
  1.110545E+00
  1.106471E+00
  1.102396E+00
  1.098277E+00
  1.093718E+00
  1.089160E+00
  1.084601E+00
  1.080042E+00
  1.075115E+00
  1.070064E+00
  1.065013E+00
  1.059962E+00
  1.054607E+00
  1.049065E+00
  1.043525E+00
  1.037984E+00
  1.032130E+00
  1.026142E+00
  1.020154E+00
  1.014167E+00
  1.007813E+00
  1.001451E+00
  9.950890E-01
  9.885777E-01
  9.818741E-01
  9.751724E-01
  9.684467E-01
  9.614088E-01
  9.543746E-01
  9.473440E-01
  9.400447E-01
  9.327147E-01
  9.253902E-01
  9.177883E-01
  9.101426E-01
  9.025036E-01
  8.944515E-01
  8.863918E-01
  8.782203E-01
  8.696535E-01
  8.610931E-01
  8.521856E-01
  8.430734E-01
  8.338762E-01
  8.241951E-01
  8.145182E-01
  8.043850E-01
  7.941463E-01
  7.835990E-01
  7.728273E-01
  7.618224E-01
  7.505427E-01
  7.390477E-01
  7.272856E-01
  7.152888E-01
  7.030881E-01
  6.906046E-01
  6.780111E-01
  6.650655E-01
  6.520053E-01
  6.387388E-01
  6.252404E-01
  6.115948E-01
  5.977593E-01
  5.836655E-01
  5.693747E-01
  5.548686E-01
  5.401478E-01
  5.252958E-01
  5.108329E-01
  4.978784E-01
  4.882209E-01
  4.848751E-01
  4.947142E-01
  5.092312E-01
  4.807222E-01
  5.134421E-01
  1.487077E-01
  8.179148E-07
  1.086075E+00
  1.086011E+00
  1.085947E+00
  1.085883E+00
  1.085819E+00
  1.085755E+00
  1.085691E+00
  1.085626E+00
  1.085562E+00
  1.085476E+00
  1.085388E+00
  1.085300E+00
  1.085212E+00
  1.085124E+00
  1.085037E+00
  1.084949E+00
  1.084905E+00
  1.084952E+00
  1.085000E+00
  1.085047E+00
  1.085095E+00
  1.085142E+00
  1.085190E+00
  1.085245E+00
  1.085407E+00
  1.085569E+00
  1.085731E+00
  1.085893E+00
  1.086056E+00
  1.086218E+00
  1.086384E+00
  1.086566E+00
  1.086748E+00
  1.086930E+00
  1.087112E+00
  1.087295E+00
  1.087477E+00
  1.087657E+00
  1.087834E+00
  1.088012E+00
  1.088190E+00
  1.088368E+00
  1.088546E+00
  1.088717E+00
  1.088878E+00
  1.089039E+00
  1.089200E+00
  1.089362E+00
  1.089524E+00
  1.089615E+00
  1.089634E+00
  1.089653E+00
  1.089673E+00
  1.089693E+00
  1.089713E+00
  1.089443E+00
  1.089134E+00
  1.088825E+00
  1.088517E+00
  1.088208E+00
  1.087691E+00
  1.087002E+00
  1.086312E+00
  1.085622E+00
  1.084933E+00
  1.084077E+00
  1.083038E+00
  1.082000E+00
  1.080962E+00
  1.079925E+00
  1.078687E+00
  1.077348E+00
  1.076010E+00
  1.074671E+00
  1.073318E+00
  1.071808E+00
  1.070299E+00
  1.068790E+00
  1.067281E+00
  1.065593E+00
  1.063844E+00
  1.062097E+00
  1.060349E+00
  1.058162E+00
  1.055706E+00
  1.053251E+00
  1.050795E+00
  1.047537E+00
  1.043936E+00
  1.040333E+00
  1.036731E+00
  1.031799E+00
  1.026835E+00
  1.021871E+00
  1.016148E+00
  1.009449E+00
  1.002755E+00
  9.959198E-01
  9.873004E-01
  9.786944E-01
  9.701016E-01
  9.603939E-01
  9.505566E-01
  9.407404E-01
  9.306840E-01
  9.206048E-01
  9.105491E-01
  9.008099E-01
  8.911023E-01
  8.815714E-01
  8.725874E-01
  8.636188E-01
  8.552636E-01
  8.472752E-01
  8.394641E-01
  8.325689E-01
  8.256784E-01
  8.196489E-01
  8.138243E-01
  8.085651E-01
  8.037176E-01
  7.992039E-01
  7.950828E-01
  7.911279E-01
  7.873798E-01
  7.837265E-01
  7.801578E-01
  7.766878E-01
  7.732617E-01
  7.700381E-01
  7.669514E-01
  7.641066E-01
  7.617359E-01
  7.597713E-01
  7.584114E-01
  7.581542E-01
  7.589471E-01
  7.611233E-01
  7.652019E-01
  7.723305E-01
  7.851257E-01
  8.075937E-01
  8.466625E-01
  9.137607E-01
  1.031758E+00
  1.186428E+00
  1.264309E+00
  1.492455E+00
  6.651708E-01
  4.254850E-06
  1.255737E+00
  1.255519E+00
  1.255302E+00
  1.255084E+00
  1.254866E+00
  1.254648E+00
  1.254431E+00
  1.254213E+00
  1.253995E+00
  1.253385E+00
  1.252759E+00
  1.252132E+00
  1.251506E+00
  1.250879E+00
  1.250253E+00
  1.249626E+00
  1.248887E+00
  1.247909E+00
  1.246932E+00
  1.245955E+00
  1.244977E+00
  1.244000E+00
  1.243022E+00
  1.242018E+00
  1.240648E+00
  1.239277E+00
  1.237906E+00
  1.236536E+00
  1.235165E+00
  1.233795E+00
  1.232342E+00
  1.230498E+00
  1.228655E+00
  1.226812E+00
  1.224968E+00
  1.223125E+00
  1.221282E+00
  1.219125E+00
  1.216780E+00
  1.214435E+00
  1.212090E+00
  1.209745E+00
  1.207400E+00
  1.204869E+00
  1.202064E+00
  1.199259E+00
  1.196454E+00
  1.193649E+00
  1.190844E+00
  1.187846E+00
  1.184651E+00
  1.181455E+00
  1.178260E+00
  1.175065E+00
  1.171870E+00
  1.168380E+00
  1.164849E+00
  1.161319E+00
  1.157789E+00
  1.154259E+00
  1.150552E+00
  1.146698E+00
  1.142845E+00
  1.138991E+00
  1.135138E+00
  1.131080E+00
  1.126802E+00
  1.122524E+00
  1.118245E+00
  1.113967E+00
  1.109310E+00
  1.104463E+00
  1.099625E+00
  1.094777E+00
  1.089877E+00
  1.084460E+00
  1.079043E+00
  1.073625E+00
  1.068208E+00
  1.062419E+00
  1.056504E+00
  1.050589E+00
  1.044675E+00
  1.038472E+00
  1.032095E+00
  1.025717E+00
  1.019340E+00
  1.012778E+00
  1.006138E+00
  9.994984E-01
  9.928592E-01
  9.862881E-01
  9.797198E-01
  9.731529E-01
  9.666387E-01
  9.601935E-01
  9.537516E-01
  9.473034E-01
  9.407452E-01
  9.341944E-01
  9.276508E-01
  9.208859E-01
  9.141094E-01
  9.073448E-01
  9.002333E-01
  8.930723E-01
  8.859259E-01
  8.779761E-01
  8.700131E-01
  8.617848E-01
  8.526221E-01
  8.434731E-01
  8.334637E-01
  8.229457E-01
  8.122178E-01
  8.003035E-01
  7.883970E-01
  7.754063E-01
  7.621620E-01
  7.482589E-01
  7.338752E-01
  7.191158E-01
  7.039134E-01
  6.884977E-01
  6.728174E-01
  6.570545E-01
  6.412205E-01
  6.255030E-01
  6.098334E-01
  5.946390E-01
  5.797284E-01
  5.653281E-01
  5.517761E-01
  5.388545E-01
  5.268225E-01
  5.161386E-01
  5.065347E-01
  4.982247E-01
  4.915386E-01
  4.873235E-01
  4.878632E-01
  4.970824E-01
  5.219513E-01
  5.729282E-01
  6.667544E-01
  7.834720E-01
  8.156093E-01
  8.821371E-01
 -1.629196E-03
  1.417849E-11
  9.714841E-01
  9.713499E-01
  9.712157E-01
  9.710816E-01
  9.709474E-01
  9.708132E-01
  9.706791E-01
  9.705449E-01
  9.704107E-01
  9.700228E-01
  9.696244E-01
  9.692260E-01
  9.688275E-01
  9.684291E-01
  9.680307E-01
  9.676323E-01
  9.671572E-01
  9.665211E-01
  9.658850E-01
  9.652489E-01
  9.646128E-01
  9.639768E-01
  9.633407E-01
  9.626885E-01
  9.618118E-01
  9.609350E-01
  9.600582E-01
  9.591815E-01
  9.583047E-01
  9.574280E-01
  9.565061E-01
  9.553695E-01
  9.542328E-01
  9.530962E-01
  9.519596E-01
  9.508230E-01
  9.496865E-01
  9.483813E-01
  9.469751E-01
  9.455689E-01
  9.441627E-01
  9.427565E-01
  9.413504E-01
  9.398358E-01
  9.381612E-01
  9.364866E-01
  9.348121E-01
  9.331376E-01
  9.314631E-01
  9.296528E-01
  9.277035E-01
  9.257543E-01
  9.238051E-01
  9.218559E-01
  9.199068E-01
  9.177032E-01
  9.154649E-01
  9.132266E-01
  9.109884E-01
  9.087502E-01
  9.063494E-01
  9.038135E-01
  9.012776E-01
  8.987417E-01
  8.962058E-01
  8.935169E-01
  8.906617E-01
  8.878065E-01
  8.849513E-01
  8.820962E-01
  8.790028E-01
  8.757896E-01
  8.725765E-01
  8.693634E-01
  8.661150E-01
  8.625197E-01
  8.589245E-01
  8.553293E-01
  8.517341E-01
  8.478484E-01
  8.438649E-01
  8.398815E-01
  8.358982E-01
  8.316747E-01
  8.273047E-01
  8.229349E-01
  8.185653E-01
  8.139485E-01
  8.092263E-01
  8.045043E-01
  7.997827E-01
  7.947718E-01
  7.897544E-01
  7.847375E-01
  7.796029E-01
  7.743167E-01
  7.690319E-01
  7.637282E-01
  7.581784E-01
  7.526314E-01
  7.470871E-01
  7.413307E-01
  7.355498E-01
  7.297731E-01
  7.237774E-01
  7.177469E-01
  7.117214E-01
  7.053702E-01
  6.990127E-01
  6.925669E-01
  6.858096E-01
  6.790572E-01
  6.720313E-01
  6.648441E-01
  6.575900E-01
  6.499548E-01
  6.423229E-01
  6.343319E-01
  6.262577E-01
  6.179406E-01
  6.094468E-01
  6.007694E-01
  5.918754E-01
  5.828118E-01
  5.735376E-01
  5.640783E-01
  5.544583E-01
  5.446150E-01
  5.346849E-01
  5.244769E-01
  5.141783E-01
  5.037168E-01
  4.930722E-01
  4.823112E-01
  4.714000E-01
  4.602849E-01
  4.490141E-01
  4.375734E-01
  4.259631E-01
  4.142491E-01
  4.028417E-01
  3.926236E-01
  3.850053E-01
  3.823643E-01
  3.901201E-01
  4.015645E-01
  3.790796E-01
  4.048772E-01
  1.435279E-01
  5.293841E-02
  5.280506E-02
  5.280195E-02
  5.279883E-02
  5.279572E-02
  5.279260E-02
  5.278949E-02
  5.278637E-02
  5.278326E-02
  5.278015E-02
  5.277593E-02
  5.277166E-02
  5.276739E-02
  5.276313E-02
  5.275886E-02
  5.275460E-02
  5.275033E-02
  5.274819E-02
  5.275050E-02
  5.275281E-02
  5.275513E-02
  5.275744E-02
  5.275976E-02
  5.276207E-02
  5.276476E-02
  5.277265E-02
  5.278054E-02
  5.278843E-02
  5.279632E-02
  5.280422E-02
  5.281212E-02
  5.282019E-02
  5.282904E-02
  5.283790E-02
  5.284677E-02
  5.285564E-02
  5.286452E-02
  5.287340E-02
  5.288213E-02
  5.289077E-02
  5.289942E-02
  5.290808E-02
  5.291675E-02
  5.292543E-02
  5.293376E-02
  5.294158E-02
  5.294942E-02
  5.295727E-02
  5.296514E-02
  5.297302E-02
  5.297747E-02
  5.297839E-02
  5.297933E-02
  5.298029E-02
  5.298126E-02
  5.298225E-02
  5.296914E-02
  5.295412E-02
  5.293910E-02
  5.292411E-02
  5.290912E-02
  5.288400E-02
  5.285046E-02
  5.281693E-02
  5.278341E-02
  5.274991E-02
  5.270826E-02
  5.265778E-02
  5.260731E-02
  5.255685E-02
  5.250639E-02
  5.244620E-02
  5.238112E-02
  5.231605E-02
  5.225099E-02
  5.218516E-02
  5.211175E-02
  5.203837E-02
  5.196500E-02
  5.189165E-02
  5.180955E-02
  5.172454E-02
  5.163955E-02
  5.155459E-02
  5.144823E-02
  5.132882E-02
  5.120942E-02
  5.109002E-02
  5.093161E-02
  5.075648E-02
  5.058133E-02
  5.040616E-02
  5.016639E-02
  4.992503E-02
  4.968369E-02
  4.940544E-02
  4.907977E-02
  4.875433E-02
  4.842200E-02
  4.800294E-02
  4.758453E-02
  4.716676E-02
  4.669476E-02
  4.621644E-02
  4.573914E-02
  4.525014E-02
  4.476003E-02
  4.427104E-02
  4.379743E-02
  4.332535E-02
  4.286186E-02
  4.242496E-02
  4.198881E-02
  4.158249E-02
  4.119402E-02
  4.081417E-02
  4.047889E-02
  4.014383E-02
  3.985067E-02
  3.956748E-02
  3.931181E-02
  3.907618E-02
  3.885679E-02
  3.865649E-02
  3.846430E-02
  3.828216E-02
  3.810463E-02
  3.793121E-02
  3.776260E-02
  3.759610E-02
  3.743944E-02
  3.728943E-02
  3.715116E-02
  3.703592E-02
  3.694040E-02
  3.687426E-02
  3.686171E-02
  3.690019E-02
  3.700590E-02
  3.720408E-02
  3.755052E-02
  3.817244E-02
  3.926461E-02
  4.116385E-02
  4.442578E-02
  5.016227E-02
  5.768153E-02
  6.146740E-02
  7.255850E-02
  3.958142E-02
  1.697862E-02
  1.776831E-01
  1.776523E-01
  1.776215E-01
  1.775907E-01
  1.775599E-01
  1.775290E-01
  1.774982E-01
  1.774674E-01
  1.774366E-01
  1.773503E-01
  1.772617E-01
  1.771730E-01
  1.770844E-01
  1.769958E-01
  1.769072E-01
  1.768185E-01
  1.767139E-01
  1.765756E-01
  1.764373E-01
  1.762990E-01
  1.761607E-01
  1.760224E-01
  1.758842E-01
  1.757421E-01
  1.755482E-01
  1.753543E-01
  1.751604E-01
  1.749665E-01
  1.747725E-01
  1.745786E-01
  1.743731E-01
  1.741123E-01
  1.738515E-01
  1.735906E-01
  1.733298E-01
  1.730690E-01
  1.728082E-01
  1.725031E-01
  1.721713E-01
  1.718395E-01
  1.715078E-01
  1.711760E-01
  1.708442E-01
  1.704862E-01
  1.700893E-01
  1.696924E-01
  1.692955E-01
  1.688987E-01
  1.685018E-01
  1.680776E-01
  1.676255E-01
  1.671734E-01
  1.667213E-01
  1.662692E-01
  1.658171E-01
  1.653233E-01
  1.648238E-01
  1.643242E-01
  1.638247E-01
  1.633252E-01
  1.628007E-01
  1.622555E-01
  1.617102E-01
  1.611650E-01
  1.606197E-01
  1.600456E-01
  1.594403E-01
  1.588349E-01
  1.582295E-01
  1.576242E-01
  1.569652E-01
  1.562793E-01
  1.555948E-01
  1.549089E-01
  1.542155E-01
  1.534489E-01
  1.526824E-01
  1.519159E-01
  1.511493E-01
  1.503301E-01
  1.494931E-01
  1.486562E-01
  1.478192E-01
  1.469416E-01
  1.460391E-01
  1.451367E-01
  1.442343E-01
  1.433058E-01
  1.423662E-01
  1.414267E-01
  1.404873E-01
  1.395575E-01
  1.386281E-01
  1.376989E-01
  1.367772E-01
  1.358653E-01
  1.349538E-01
  1.340414E-01
  1.331135E-01
  1.321867E-01
  1.312608E-01
  1.303035E-01
  1.293446E-01
  1.283873E-01
  1.273809E-01
  1.263675E-01
  1.253561E-01
  1.242310E-01
  1.231039E-01
  1.219394E-01
  1.206426E-01
  1.193478E-01
  1.179312E-01
  1.164428E-01
  1.149246E-01
  1.132387E-01
  1.115538E-01
  1.097157E-01
  1.078417E-01
  1.058746E-01
  1.038395E-01
  1.017512E-01
  9.960039E-02
  9.741935E-02
  9.520089E-02
  9.297074E-02
  9.073051E-02
  8.850675E-02
  8.628974E-02
  8.413994E-02
  8.203027E-02
  7.999274E-02
  7.807522E-02
  7.624684E-02
  7.454429E-02
  7.303245E-02
  7.167339E-02
  7.049737E-02
  6.955107E-02
  6.895437E-02
  6.903041E-02
  7.033450E-02
  7.385286E-02
  8.106520E-02
  9.434020E-02
  1.108538E-01
  1.153998E-01
  1.248115E-01
 -2.821390E-04
  1.646568E-07
  9.716735E-01
  9.715393E-01
  9.714052E-01
  9.712710E-01
  9.711369E-01
  9.710027E-01
  9.708686E-01
  9.707344E-01
  9.706002E-01
  9.702124E-01
  9.698140E-01
  9.694156E-01
  9.690172E-01
  9.686189E-01
  9.682205E-01
  9.678221E-01
  9.673471E-01
  9.667111E-01
  9.660752E-01
  9.654392E-01
  9.648032E-01
  9.641673E-01
  9.635313E-01
  9.628793E-01
  9.620027E-01