 Title= "ADflow Lift Distribution Data"
Variables = "eta" "CoordinateX" "CoordinateY" "CoordinateZ" "Lift" "Drag" "Moment" "Normalized Lift" "Normalized Drag" "Normalized Moment" "CL" "CD" "CM" "CLp" "CDp" "CMp" "CLv" "CDv" "CMv" "Elliptical" "thickness" "twist" "chord" "fx" "fy" "fz" 
Zone T= "LiftDist_01 allWalls: : z normal"
 I=          150
 DATAPACKING=BLOCK
  0.000000E+00
  6.711405E-03
  1.342281E-02
  2.013422E-02
  2.684563E-02
  3.355704E-02
  4.026845E-02
  4.697986E-02
  5.369127E-02
  6.040268E-02
  6.711409E-02
  7.382550E-02
  8.053691E-02
  8.724832E-02
  9.395973E-02
  1.006711E-01
  1.073825E-01
  1.140940E-01
  1.208054E-01
  1.275168E-01
  1.342282E-01
  1.409396E-01
  1.476510E-01
  1.543624E-01
  1.610738E-01
  1.677852E-01
  1.744966E-01
  1.812081E-01
  1.879195E-01
  1.946309E-01
  2.013423E-01
  2.080537E-01
  2.147651E-01
  2.214765E-01
  2.281879E-01
  2.348993E-01
  2.416107E-01
  2.483221E-01
  2.550336E-01
  2.617450E-01
  2.684564E-01
  2.751678E-01
  2.818792E-01
  2.885906E-01
  2.953020E-01
  3.020134E-01
  3.087248E-01
  3.154362E-01
  3.221476E-01
  3.288591E-01
  3.355705E-01
  3.422819E-01
  3.489933E-01
  3.557047E-01
  3.624161E-01
  3.691275E-01
  3.758389E-01
  3.825503E-01
  3.892617E-01
  3.959732E-01
  4.026846E-01
  4.093960E-01
  4.161074E-01
  4.228188E-01
  4.295302E-01
  4.362416E-01
  4.429530E-01
  4.496644E-01
  4.563758E-01
  4.630872E-01
  4.697987E-01
  4.765101E-01
  4.832215E-01
  4.899329E-01
  4.966443E-01
  5.033557E-01
  5.100671E-01
  5.167785E-01
  5.234899E-01
  5.302013E-01
  5.369128E-01
  5.436242E-01
  5.503356E-01
  5.570470E-01
  5.637584E-01
  5.704698E-01
  5.771812E-01
  5.838926E-01
  5.906040E-01
  5.973154E-01
  6.040268E-01
  6.107383E-01
  6.174497E-01
  6.241611E-01
  6.308725E-01
  6.375839E-01
  6.442953E-01
  6.510067E-01
  6.577181E-01
  6.644295E-01
  6.711409E-01
  6.778524E-01
  6.845638E-01
  6.912752E-01
  6.979866E-01
  7.046980E-01
  7.114094E-01
  7.181208E-01
  7.248322E-01
  7.315436E-01
  7.382550E-01
  7.449664E-01
  7.516779E-01
  7.583893E-01
  7.651007E-01
  7.718121E-01
  7.785235E-01
  7.852349E-01
  7.919463E-01
  7.986577E-01
  8.053691E-01
  8.120805E-01
  8.187919E-01
  8.255034E-01
  8.322148E-01
  8.389262E-01
  8.456376E-01
  8.523490E-01
  8.590604E-01
  8.657718E-01
  8.724832E-01
  8.791946E-01
  8.859060E-01
  8.926175E-01
  8.993289E-01
  9.060403E-01
  9.127517E-01
  9.194631E-01
  9.261745E-01
  9.328859E-01
  9.395973E-01
  9.463087E-01
  9.530201E-01
  9.597315E-01
  9.664430E-01
  9.731544E-01
  9.798658E-01
  9.865772E-01
  9.932886E-01
  1.000000E+00
  0.000000E+00
  0.000000E+00
  0.000000E+00
  0.000000E+00
  0.000000E+00
  0.000000E+00
  0.000000E+00
  0.000000E+00
  0.000000E+00
  0.000000E+00
  0.000000E+00
  0.000000E+00
  0.000000E+00
  0.000000E+00
  0.000000E+00
  0.000000E+00
  0.000000E+00
  0.000000E+00
  0.000000E+00
  0.000000E+00
  0.000000E+00
  0.000000E+00
  0.000000E+00
  0.000000E+00
  0.000000E+00
  0.000000E+00
  0.000000E+00
  0.000000E+00
  0.000000E+00
  0.000000E+00
  0.000000E+00
  0.000000E+00
  0.000000E+00
  0.000000E+00
  0.000000E+00
  0.000000E+00
  0.000000E+00
  0.000000E+00
  0.000000E+00
  0.000000E+00
  0.000000E+00
  0.000000E+00
  0.000000E+00
  0.000000E+00
  0.000000E+00
  0.000000E+00
  0.000000E+00
  0.000000E+00
  0.000000E+00
  0.000000E+00
  0.000000E+00
  0.000000E+00
  0.000000E+00
  0.000000E+00
  0.000000E+00
  0.000000E+00
  0.000000E+00
  0.000000E+00
  0.000000E+00
  0.000000E+00
  0.000000E+00
  0.000000E+00
  0.000000E+00
  0.000000E+00
  0.000000E+00
  0.000000E+00
  0.000000E+00
  0.000000E+00
  0.000000E+00
  0.000000E+00
  0.000000E+00
  0.000000E+00
  0.000000E+00
  0.000000E+00
  0.000000E+00
  0.000000E+00
  0.000000E+00
  0.000000E+00
  0.000000E+00
  0.000000E+00
  0.000000E+00
  0.000000E+00
  0.000000E+00
  0.000000E+00
  0.000000E+00
  0.000000E+00
  0.000000E+00
  0.000000E+00
  0.000000E+00
  0.000000E+00
  0.000000E+00
  0.000000E+00
  0.000000E+00
  0.000000E+00
  0.000000E+00
  0.000000E+00
  0.000000E+00
  0.000000E+00
  0.000000E+00
  0.000000E+00
  0.000000E+00
  0.000000E+00
  0.000000E+00
  0.000000E+00
  0.000000E+00
  0.000000E+00
  0.000000E+00
  0.000000E+00
  0.000000E+00
  0.000000E+00
  0.000000E+00
  0.000000E+00
  0.000000E+00
  0.000000E+00
  0.000000E+00
  0.000000E+00
  0.000000E+00
  0.000000E+00
  0.000000E+00
  0.000000E+00
  0.000000E+00
  0.000000E+00
  0.000000E+00
  0.000000E+00
  0.000000E+00
  0.000000E+00
  0.000000E+00
  0.000000E+00
  0.000000E+00
  0.000000E+00
  0.000000E+00
  0.000000E+00
  0.000000E+00
  0.000000E+00
  0.000000E+00
  0.000000E+00
  0.000000E+00
  0.000000E+00
  0.000000E+00
  0.000000E+00
  0.000000E+00
  0.000000E+00
  0.000000E+00
  0.000000E+00
  0.000000E+00
  0.000000E+00
  0.000000E+00
  0.000000E+00
  0.000000E+00
  0.000000E+00
  0.000000E+00
  0.000000E+00
  0.000000E+00
  0.000000E+00
  0.000000E+00
  0.000000E+00
  0.000000E+00
  0.000000E+00
  0.000000E+00
  0.000000E+00
  0.000000E+00
  0.000000E+00
  0.000000E+00
  0.000000E+00
  0.000000E+00
  0.000000E+00
  0.000000E+00
  0.000000E+00
  0.000000E+00
  0.000000E+00
  0.000000E+00
  0.000000E+00
  0.000000E+00
  0.000000E+00
  0.000000E+00
  0.000000E+00
  0.000000E+00
  0.000000E+00
  0.000000E+00
  0.000000E+00
  0.000000E+00
  0.000000E+00
  0.000000E+00
  0.000000E+00
  0.000000E+00
  0.000000E+00
  0.000000E+00
  0.000000E+00
  0.000000E+00
  0.000000E+00
  0.000000E+00
  0.000000E+00
  0.000000E+00
  0.000000E+00
  0.000000E+00
  0.000000E+00
  0.000000E+00
  0.000000E+00
  0.000000E+00
  0.000000E+00
  0.000000E+00
  0.000000E+00
  0.000000E+00
  0.000000E+00
  0.000000E+00
  0.000000E+00
  0.000000E+00
  0.000000E+00
  0.000000E+00
  0.000000E+00
  0.000000E+00
  0.000000E+00
  0.000000E+00
  0.000000E+00
  0.000000E+00
  0.000000E+00
  0.000000E+00
  0.000000E+00
  0.000000E+00
  0.000000E+00
  0.000000E+00
  0.000000E+00
  0.000000E+00
  0.000000E+00
  0.000000E+00
  0.000000E+00
  0.000000E+00
  0.000000E+00
  0.000000E+00
  0.000000E+00
  0.000000E+00
  0.000000E+00
  0.000000E+00
  0.000000E+00
  0.000000E+00
  0.000000E+00
  0.000000E+00
  0.000000E+00
  0.000000E+00
  0.000000E+00
  0.000000E+00
  0.000000E+00
  0.000000E+00
  0.000000E+00
  0.000000E+00
  0.000000E+00
  0.000000E+00
  0.000000E+00
  0.000000E+00
  0.000000E+00
  0.000000E+00
  0.000000E+00
  0.000000E+00
  0.000000E+00
  0.000000E+00
  0.000000E+00
  0.000000E+00
  0.000000E+00
  0.000000E+00
  0.000000E+00
  0.000000E+00
  0.000000E+00
  0.000000E+00
  0.000000E+00
  0.000000E+00
  0.000000E+00
  0.000000E+00
  0.000000E+00
  0.000000E+00
  0.000000E+00
  0.000000E+00
  0.000000E+00
  0.000000E+00
  0.000000E+00
  0.000000E+00
  0.000000E+00
  0.000000E+00
  0.000000E+00
  0.000000E+00
  0.000000E+00
  0.000000E+00
  0.000000E+00
  0.000000E+00
  0.000000E+00
  0.000000E+00
  0.000000E+00
  0.000000E+00
  0.000000E+00
  0.000000E+00
  0.000000E+00
  0.000000E+00
  0.000000E+00
  0.000000E+00
  0.000000E+00
  0.000000E+00
  0.000000E+00
  0.000000E+00
  0.000000E+00
  0.000000E+00
  0.000000E+00
  1.000000E-08
  1.691809E-02
  3.383618E-02
  5.075427E-02
  6.767237E-02
  8.459046E-02
  1.015085E-01
  1.184266E-01
  1.353447E-01
  1.522628E-01
  1.691809E-01
  1.860990E-01
  2.030171E-01
  2.199352E-01
  2.368533E-01
  2.537714E-01
  2.706895E-01
  2.876076E-01
  3.045256E-01
  3.214437E-01
  3.383618E-01
  3.552799E-01
  3.721980E-01
  3.891161E-01
  4.060342E-01
  4.229523E-01
  4.398704E-01
  4.567885E-01
  4.737066E-01
  4.906247E-01
  5.075427E-01
  5.244608E-01
  5.413789E-01
  5.582970E-01
  5.752151E-01
  5.921332E-01
  6.090513E-01
  6.259694E-01
  6.428875E-01
  6.598056E-01
  6.767237E-01
  6.936418E-01
  7.105598E-01
  7.274779E-01
  7.443960E-01
  7.613141E-01
  7.782322E-01
  7.951503E-01
  8.120684E-01
  8.289865E-01
  8.459046E-01
  8.628227E-01
  8.797408E-01
  8.966589E-01
  9.135769E-01
  9.304950E-01
  9.474131E-01
  9.643312E-01
  9.812493E-01
  9.981674E-01
  1.015085E+00
  1.032004E+00
  1.048922E+00
  1.065840E+00
  1.082758E+00
  1.099676E+00
  1.116594E+00
  1.133512E+00
  1.150430E+00
  1.167348E+00
  1.184266E+00
  1.201185E+00
  1.218103E+00
  1.235021E+00
  1.251939E+00
  1.268857E+00
  1.285775E+00
  1.302693E+00
  1.319611E+00
  1.336529E+00
  1.353447E+00
  1.370365E+00
  1.387284E+00
  1.404202E+00
  1.421120E+00
  1.438038E+00
  1.454956E+00
  1.471874E+00
  1.488792E+00
  1.505710E+00
  1.522628E+00
  1.539546E+00
  1.556464E+00
  1.573383E+00
  1.590301E+00
  1.607219E+00
  1.624137E+00
  1.641055E+00
  1.657973E+00
  1.674891E+00
  1.691809E+00
  1.708727E+00
  1.725645E+00
  1.742563E+00
  1.759482E+00
  1.776400E+00
  1.793318E+00
  1.810236E+00
  1.827154E+00
  1.844072E+00
  1.860990E+00
  1.877908E+00
  1.894826E+00
  1.911744E+00
  1.928662E+00
  1.945581E+00
  1.962499E+00
  1.979417E+00
  1.996335E+00
  2.013253E+00
  2.030171E+00
  2.047089E+00
  2.064007E+00
  2.080925E+00
  2.097843E+00
  2.114761E+00
  2.131680E+00
  2.148598E+00
  2.165516E+00
  2.182434E+00
  2.199352E+00
  2.216270E+00
  2.233188E+00
  2.250106E+00
  2.267024E+00
  2.283942E+00
  2.300860E+00
  2.317779E+00
  2.334697E+00
  2.351615E+00
  2.368533E+00
  2.385451E+00
  2.402369E+00
  2.419287E+00
  2.436205E+00
  2.453123E+00
  2.470041E+00
  2.486959E+00
  2.503878E+00
  2.520796E+00
  1.100565E+04
  1.100442E+04
  1.100319E+04
  1.100197E+04
  1.100075E+04
  1.099953E+04
  1.099831E+04
  1.099709E+04
  1.099588E+04
  1.099006E+04
  1.098405E+04
  1.097805E+04
  1.097204E+04
  1.096604E+04
  1.096004E+04
  1.095404E+04
  1.094643E+04
  1.093542E+04
  1.092441E+04
  1.091340E+04
  1.090240E+04
  1.089140E+04
  1.088039E+04
  1.086924E+04
  1.085602E+04
  1.084280E+04
  1.082958E+04
  1.081636E+04
  1.080314E+04
  1.078992E+04
  1.077638E+04
  1.076130E+04
  1.074622E+04
  1.073114E+04
  1.071607E+04
  1.070099E+04
  1.068591E+04
  1.066955E+04
  1.065242E+04
  1.063528E+04
  1.061815E+04
  1.060101E+04
  1.058388E+04
  1.056599E+04
  1.054697E+04
  1.052796E+04
  1.050894E+04
  1.048993E+04
  1.047091E+04
  1.045099E+04
  1.043014E+04
  1.040929E+04
  1.038844E+04
  1.036759E+04
  1.034674E+04
  1.032399E+04
  1.030098E+04
  1.027798E+04
  1.025497E+04
  1.023197E+04
  1.020743E+04
  1.018160E+04
  1.015578E+04
  1.012996E+04
  1.010414E+04
  1.007642E+04
  1.004664E+04
  1.001686E+04
  9.987081E+03
  9.957314E+03
  9.924031E+03
  9.888985E+03
  9.853948E+03
  9.818918E+03
  9.783340E+03
  9.742309E+03
  9.701287E+03
  9.660274E+03
  9.619270E+03
  9.573778E+03
  9.526783E+03
  9.479802E+03
  9.432832E+03
  9.382370E+03
  9.329785E+03
  9.277216E+03
  9.224663E+03
  9.168775E+03
  9.111471E+03
  9.054186E+03
  8.996917E+03
  8.936254E+03
  8.875523E+03
  8.814809E+03
  8.752943E+03
  8.689586E+03
  8.626245E+03
  8.562729E+03
  8.496917E+03
  8.431115E+03
  8.365324E+03
  8.297426E+03
  8.229254E+03
  8.161089E+03
  8.090974E+03
  8.020517E+03
  7.950066E+03
  7.877114E+03
  7.804080E+03
  7.730367E+03
  7.654338E+03
  7.578316E+03
  7.500227E+03
  7.420910E+03
  7.341046E+03
  7.258192E+03
  7.175346E+03
  7.089475E+03
  7.002893E+03
  6.914096E+03
  6.823685E+03
  6.731510E+03
  6.637262E+03
  6.541302E+03
  6.443221E+03
  6.343135E+03
  6.241306E+03
  6.136901E+03
  6.031489E+03
  5.922705E+03
  5.812761E+03
  5.700733E+03
  5.586224E+03
  5.470091E+03
  5.351821E+03
  5.230612E+03
  5.107226E+03
  4.981550E+03
  4.853746E+03
  4.724976E+03
  4.600849E+03
  4.492592E+03
  4.418077E+03
  4.408157E+03
  4.533075E+03
  4.716560E+03
  4.503899E+03
  4.850739E+03
  1.186085E+03
  7.118093E-03
  5.954828E+02
  5.959557E+02
  5.964291E+02
  5.969031E+02
  5.973775E+02
  5.978523E+02
  5.983277E+02
  5.988036E+02
  5.992800E+02
  5.998925E+02
  6.005112E+02
  6.011305E+02
  6.017504E+02
  6.023709E+02
  6.029920E+02
  6.036137E+02
  6.041029E+02
  6.043131E+02
  6.045236E+02
  6.047346E+02
  6.049460E+02
  6.051578E+02
  6.053700E+02
  6.055838E+02
  6.058157E+02
  6.060479E+02
  6.062803E+02
  6.065131E+02
  6.067462E+02
  6.069796E+02
  6.072166E+02
  6.074696E+02
  6.077227E+02
  6.079761E+02
  6.082296E+02
  6.084834E+02
  6.087373E+02
  6.089289E+02
  6.090831E+02
  6.092373E+02
  6.093916E+02
  6.095460E+02
  6.097005E+02
  6.097608E+02
  6.096824E+02
  6.096040E+02
  6.095256E+02
  6.094472E+02
  6.093688E+02
  6.090853E+02
  6.085922E+02
  6.080993E+02
  6.076065E+02
  6.071138E+02
  6.066213E+02
  6.056378E+02
  6.045879E+02
  6.035386E+02
  6.024900E+02
  6.014420E+02
  6.000865E+02
  5.984762E+02
  5.968672E+02
  5.952593E+02
  5.936527E+02
  5.918341E+02
  5.897854E+02
  5.877381E+02
  5.856924E+02
  5.836481E+02
  5.814306E+02
  5.791267E+02
  5.768240E+02
  5.745225E+02
  5.722169E+02
  5.698608E+02
  5.675054E+02
  5.651507E+02
  5.627966E+02
  5.605438E+02
  5.583256E+02
  5.561082E+02
  5.538917E+02
  5.517491E+02
  5.496526E+02
  5.475576E+02
  5.454642E+02
  5.433051E+02
  5.411192E+02
  5.389354E+02
  5.367537E+02
  5.342976E+02
  5.318367E+02
  5.293778E+02
  5.267400E+02
  5.238706E+02
  5.210026E+02
  5.180972E+02
  5.147178E+02
  5.113389E+02
  5.079604E+02
  5.041865E+02
  5.003593E+02
  4.965318E+02
  4.925739E+02
  4.885919E+02
  4.846090E+02
  4.807439E+02
  4.768815E+02
  4.730803E+02
  4.694892E+02
  4.658964E+02
  4.625249E+02
  4.592844E+02
  4.561018E+02
  4.532404E+02
  4.503774E+02
  4.477961E+02
  4.452804E+02
  4.429548E+02
  4.407676E+02
  4.387324E+02
  4.368763E+02
  4.351549E+02
  4.336008E+02
  4.322003E+02
  4.309337E+02
  4.298932E+02
  4.289416E+02
  4.283635E+02
  4.279518E+02
  4.278393E+02
  4.281755E+02
  4.288428E+02
  4.299756E+02
  4.318512E+02
  4.343737E+02
  4.377211E+02
  4.421751E+02
  4.483942E+02
  4.579404E+02
  4.732311E+02
  4.984770E+02
  5.407908E+02
  6.141871E+02
  7.098426E+02
  7.609636E+02
  8.926438E+02
  3.886929E+02
  2.336494E-03
  1.823795E+03
  1.822652E+03
  1.821509E+03
  1.820394E+03
  1.819253E+03
  1.818112E+03
  1.816973E+03
  1.815834E+03
  1.814696E+03
  1.811167E+03
  1.807541E+03
  1.803914E+03
  1.800289E+03
  1.796664E+03
  1.793040E+03
  1.789417E+03
  1.785375E+03
  1.780452E+03
  1.775529E+03
  1.770606E+03
  1.765684E+03
  1.760762E+03
  1.755840E+03
  1.750931E+03
  1.746190E+03
  1.741449E+03
  1.736709E+03
  1.731969E+03
  1.727229E+03
  1.722489E+03
  1.717833E+03
  1.713577E+03
  1.709320E+03
  1.705063E+03
  1.700807E+03
  1.696550E+03
  1.692294E+03
  1.688428E+03
  1.684797E+03
  1.681165E+03
  1.677534E+03
  1.673903E+03
  1.670271E+03
  1.667053E+03
  1.664442E+03
  1.661832E+03
  1.659221E+03
  1.656611E+03
  1.654000E+03
  1.652081E+03
  1.650870E+03
  1.649658E+03
  1.648447E+03
  1.647237E+03
  1.646026E+03
  1.645997E+03
  1.646131E+03
  1.646265E+03
  1.646400E+03
  1.646537E+03
  1.646981E+03
  1.647681E+03
  1.648383E+03
  1.649087E+03
  1.649793E+03
  1.650121E+03
  1.650038E+03
  1.649958E+03
  1.649880E+03
  1.649804E+03
  1.648141E+03
  1.645681E+03
  1.643223E+03
  1.640768E+03
  1.637965E+03
  1.631722E+03
  1.625482E+03
  1.619224E+03
  1.612989E+03
  1.603638E+03
  1.593241E+03
  1.582848E+03
  1.572459E+03
  1.560024E+03
  1.546345E+03
  1.532670E+03
  1.519002E+03
  1.503949E+03
  1.488308E+03
  1.472673E+03
  1.457045E+03
  1.440678E+03
  1.424315E+03
  1.407942E+03
  1.391716E+03
  1.375677E+03
  1.359644E+03
  1.343693E+03
  1.328693E+03
  1.313697E+03
  1.298705E+03
  1.284609E+03
  1.270635E+03
  1.256649E+03
  1.243147E+03
  1.229731E+03
  1.216316E+03
  1.202977E+03
  1.189642E+03
  1.176241E+03
  1.162614E+03
  1.148988E+03
  1.135004E+03
  1.120807E+03
  1.106490E+03
  1.091524E+03
  1.076559E+03
  1.060853E+03
  1.044971E+03
  1.028558E+03
  1.011760E+03
  9.946442E+02
  9.771563E+02
  9.594910E+02
  9.416054E+02
  9.236546E+02
  9.056529E+02
  8.877856E+02
  8.699732E+02
  8.527182E+02
  8.357923E+02
  8.194616E+02
  8.041188E+02
  7.895068E+02
  7.759277E+02
  7.639400E+02
  7.532836E+02
  7.443182E+02
  7.376571E+02
  7.349112E+02
  7.403579E+02
  7.611110E+02
  8.096452E+02
  9.051969E+02
  1.079757E+03
  1.303769E+03
  1.390707E+03
  1.519406E+03
 -2.401653E+01
  2.220991E-08
  1.237874E+00
  1.237736E+00
  1.237598E+00
  1.237460E+00
  1.237323E+00
  1.237186E+00
  1.237049E+00
  1.236912E+00
  1.236775E+00
  1.236121E+00
  1.235445E+00
  1.234770E+00
  1.234094E+00
  1.233419E+00
  1.232744E+00
  1.232069E+00
  1.231213E+00
  1.229975E+00
  1.228737E+00
  1.227499E+00
  1.226261E+00
  1.225023E+00
  1.223786E+00
  1.222532E+00
  1.221044E+00
  1.219557E+00
  1.218070E+00
  1.216583E+00
  1.215096E+00
  1.213609E+00
  1.212086E+00
  1.210390E+00
  1.208695E+00
  1.206999E+00
  1.205303E+00
  1.203607E+00
  1.201912E+00
  1.200071E+00
  1.198144E+00
  1.196217E+00
  1.194290E+00
  1.192362E+00
  1.190435E+00
  1.188423E+00
  1.186284E+00
  1.184145E+00
  1.182006E+00
  1.179868E+00
  1.177729E+00
  1.175488E+00
  1.173143E+00
  1.170798E+00
  1.168452E+00
  1.166107E+00
  1.163762E+00
  1.161204E+00
  1.158616E+00
  1.156028E+00
  1.153441E+00
  1.150854E+00
  1.148093E+00
  1.145188E+00
  1.142284E+00
  1.139380E+00
  1.136476E+00
  1.133358E+00
  1.130008E+00
  1.126658E+00
  1.123309E+00
  1.119961E+00
  1.116218E+00
  1.112276E+00
  1.108335E+00
  1.104395E+00
  1.100393E+00
  1.095778E+00
  1.091164E+00
  1.086551E+00
  1.081939E+00
  1.076823E+00
  1.071537E+00
  1.066253E+00
  1.060970E+00
  1.055294E+00
  1.049379E+00
  1.043466E+00
  1.037555E+00
  1.031269E+00
  1.024824E+00
  1.018381E+00
  1.011940E+00
  1.005116E+00
  9.982855E-01
  9.914566E-01
  9.844982E-01
  9.773721E-01
  9.702476E-01
  9.631036E-01
  9.557013E-01
  9.483002E-01
  9.409003E-01
  9.332634E-01
  9.255956E-01
  9.179287E-01
  9.100425E-01
  9.021176E-01
  8.941936E-01
  8.859882E-01
  8.777737E-01
  8.694827E-01
  8.609313E-01
  8.523806E-01
  8.435974E-01
  8.346761E-01
  8.256933E-01
  8.163743E-01
  8.070560E-01
  7.973976E-01
  7.876592E-01
  7.776715E-01
  7.675025E-01
  7.571350E-01
  7.465343E-01
  7.357411E-01
  7.247093E-01
  7.134520E-01
  7.019987E-01
  6.902556E-01
  6.783993E-01
  6.661637E-01
  6.537975E-01
  6.411971E-01
  6.283175E-01
  6.152553E-01
  6.019528E-01
  5.883197E-01
  5.744416E-01
  5.603061E-01
  5.459311E-01
  5.314476E-01
  5.174863E-01
  5.053099E-01
  4.969288E-01
  4.958129E-01
  5.098633E-01
  5.305009E-01
  5.065817E-01
  5.455929E-01
  1.334064E-01
  8.006164E-07
  1.084190E+00
  1.085051E+00
  1.085913E+00
  1.086776E+00
  1.087639E+00
  1.088504E+00
  1.089370E+00
  1.090236E+00
  1.091103E+00
  1.092219E+00
  1.093345E+00
  1.094473E+00
  1.095601E+00
  1.096731E+00
  1.097862E+00
  1.098994E+00
  1.099884E+00
  1.100267E+00
  1.100650E+00
  1.101035E+00
  1.101419E+00
  1.101805E+00
  1.102191E+00
  1.102581E+00
  1.103003E+00
  1.103426E+00
  1.103849E+00
  1.104273E+00
  1.104697E+00
  1.105122E+00
  1.105553E+00
  1.106014E+00
  1.106475E+00
  1.106936E+00
  1.107398E+00
  1.107860E+00
  1.108322E+00
  1.108671E+00
  1.108952E+00
  1.109233E+00
  1.109514E+00
  1.109795E+00
  1.110076E+00
  1.110186E+00
  1.110043E+00
  1.109900E+00
  1.109757E+00
  1.109615E+00
  1.109472E+00
  1.108956E+00
  1.108058E+00
  1.107161E+00
  1.106263E+00
  1.105366E+00
  1.104470E+00
  1.102679E+00
  1.100767E+00
  1.098857E+00
  1.096948E+00
  1.095040E+00
  1.092572E+00
  1.089640E+00
  1.086710E+00
  1.083783E+00
  1.080858E+00
  1.077547E+00
  1.073817E+00
  1.070089E+00
  1.066365E+00
  1.062643E+00
  1.058605E+00
  1.054411E+00
  1.050218E+00
  1.046028E+00
  1.041830E+00
  1.037540E+00
  1.033252E+00
  1.028964E+00
  1.024678E+00
  1.020577E+00
  1.016538E+00
  1.012501E+00
  1.008465E+00
  1.004564E+00
  1.000747E+00
  9.969329E-01
  9.931215E-01
  9.891904E-01
  9.852106E-01
  9.812346E-01
  9.772623E-01
  9.727906E-01
  9.683100E-01
  9.638331E-01
  9.590304E-01
  9.538062E-01
  9.485845E-01
  9.432946E-01
  9.371418E-01
  9.309898E-01
  9.248386E-01
  9.179675E-01
  9.109994E-01
  9.040307E-01
  8.968247E-01
  8.895747E-01
  8.823230E-01
  8.752858E-01
  8.682536E-01
  8.613328E-01
  8.547945E-01
  8.482532E-01
  8.421148E-01
  8.362148E-01
  8.304202E-01
  8.252106E-01
  8.199978E-01
  8.152981E-01
  8.107177E-01
  8.064835E-01
  8.025014E-01
  7.987959E-01
  7.954166E-01
  7.922825E-01
  7.894529E-01
  7.869030E-01
  7.845969E-01
  7.827024E-01
  7.809699E-01
  7.799173E-01
  7.791678E-01
  7.789630E-01
  7.795751E-01
  7.807900E-01
  7.828525E-01
  7.862673E-01
  7.908600E-01
  7.969546E-01
  8.050639E-01
  8.163870E-01
  8.337678E-01
  8.616074E-01
  9.075723E-01
  9.846127E-01
  1.118245E+00
  1.292404E+00
  1.385479E+00
  1.625228E+00
  7.076895E-01
  4.254032E-06
  1.271953E+00
  1.271155E+00
  1.270358E+00
  1.269581E+00
  1.268785E+00
  1.267990E+00
  1.267195E+00
  1.266401E+00
  1.265607E+00
  1.263146E+00
  1.260617E+00
  1.258088E+00
  1.255559E+00
  1.253031E+00
  1.250504E+00
  1.247977E+00
  1.245158E+00
  1.241724E+00
  1.238291E+00
  1.234858E+00
  1.231425E+00
  1.227992E+00
  1.224560E+00
  1.221136E+00
  1.217829E+00
  1.214523E+00
  1.211217E+00
  1.207911E+00
  1.204606E+00
  1.201300E+00
  1.198053E+00
  1.195084E+00
  1.192115E+00
  1.189147E+00
  1.186178E+00
  1.183210E+00
  1.180241E+00
  1.177545E+00
  1.175013E+00
  1.172480E+00
  1.169947E+00
  1.167415E+00
  1.164882E+00
  1.162637E+00
  1.160817E+00
  1.158996E+00
  1.157176E+00
  1.155355E+00
  1.153534E+00
  1.152196E+00
  1.151351E+00
  1.150506E+00
  1.149662E+00
  1.148817E+00
  1.147973E+00
  1.147953E+00
  1.148046E+00
  1.148140E+00
  1.148234E+00
  1.148329E+00
  1.148639E+00
  1.149127E+00
  1.149617E+00
  1.150108E+00
  1.150600E+00
  1.150829E+00
  1.150771E+00
  1.150715E+00
  1.150661E+00
  1.150608E+00
  1.149448E+00
  1.147732E+00
  1.146018E+00
  1.144306E+00
  1.142351E+00
  1.137997E+00
  1.133645E+00
  1.129281E+00
  1.124932E+00
  1.118411E+00
  1.111160E+00
  1.103912E+00
  1.096666E+00
  1.087994E+00
  1.078453E+00
  1.068916E+00
  1.059384E+00
  1.048885E+00
  1.037977E+00
  1.027073E+00
  1.016174E+00
  1.004759E+00
  9.933472E-01
  9.819280E-01
  9.706117E-01
  9.594261E-01
  9.482441E-01
  9.371196E-01
  9.266587E-01
  9.162000E-01
  9.057438E-01
  8.959133E-01
  8.861677E-01
  8.764131E-01
  8.669969E-01
  8.576402E-01
  8.482845E-01
  8.389816E-01
  8.296813E-01
  8.203351E-01
  8.108315E-01
  8.013284E-01
  7.915755E-01
  7.816740E-01
  7.716893E-01
  7.612520E-01
  7.508150E-01
  7.398608E-01
  7.287844E-01
  7.173381E-01
  7.056223E-01
  6.936857E-01
  6.814893E-01
  6.691691E-01
  6.566954E-01
  6.441761E-01
  6.316213E-01
  6.191603E-01
  6.067375E-01
  5.947036E-01
  5.828990E-01
  5.715097E-01
  5.608093E-01
  5.506186E-01
  5.411482E-01
  5.327878E-01
  5.253558E-01
  5.191031E-01
  5.144575E-01
  5.125425E-01
  5.163412E-01
  5.308148E-01
  5.646635E-01
  6.313033E-01
  7.530454E-01
  9.092759E-01
  9.699080E-01
  1.059665E+00
 -1.674963E-02
  1.548966E-11
  9.745635E-01
  9.744549E-01
  9.743464E-01
  9.742380E-01
  9.741298E-01
  9.740217E-01
  9.739137E-01
  9.738060E-01
  9.736983E-01
  9.731829E-01
  9.726507E-01
  9.721186E-01
  9.715867E-01
  9.710550E-01
  9.705233E-01
  9.699918E-01
  9.693173E-01
  9.683423E-01
  9.673673E-01
  9.663924E-01
  9.654176E-01
  9.644429E-01
  9.634683E-01
  9.624806E-01
  9.613093E-01
  9.601382E-01
  9.589670E-01
  9.577960E-01
  9.566250E-01
  9.554540E-01
  9.542545E-01
  9.529190E-01
  9.515835E-01
  9.502480E-01
  9.489126E-01
  9.475773E-01
  9.462419E-01
  9.447927E-01
  9.432751E-01
  9.417576E-01
  9.402401E-01
  9.387227E-01
  9.372052E-01
  9.356205E-01
  9.339367E-01
  9.322528E-01
  9.305690E-01
  9.288853E-01
  9.272015E-01
  9.254375E-01
  9.235913E-01
  9.217452E-01
  9.198992E-01
  9.180532E-01
  9.162073E-01
  9.141933E-01
  9.121566E-01
  9.101201E-01
  9.080837E-01
  9.060476E-01
  9.038746E-01
  9.015881E-01
  8.993020E-01
  8.970163E-01
  8.947310E-01
  8.922769E-01
  8.896397E-01
  8.870031E-01
  8.843669E-01
  8.817314E-01
  8.787844E-01
  8.756813E-01
  8.725789E-01
  8.694772E-01
  8.663268E-01
  8.626935E-01
  8.590609E-01
  8.554292E-01
  8.517982E-01
  8.477698E-01
  8.436083E-01
  8.394480E-01
  8.352888E-01
  8.308204E-01
  8.261639E-01
  8.215088E-01
  8.168552E-01
  8.119063E-01
  8.068320E-01
  8.017593E-01
  7.966881E-01
  7.913164E-01
  7.859385E-01
  7.805622E-01
  7.750839E-01
  7.694736E-01
  7.638646E-01
  7.582402E-01
  7.524124E-01
  7.465857E-01
  7.407598E-01
  7.347474E-01
  7.287106E-01
  7.226745E-01
  7.164658E-01
  7.102266E-01
  7.039881E-01
  6.975281E-01
  6.910608E-01
  6.845334E-01
  6.778009E-01
  6.710690E-01
  6.641540E-01
  6.571304E-01
  6.500583E-01
  6.427215E-01
  6.353854E-01
  6.277814E-01
  6.201145E-01
  6.122514E-01
  6.042454E-01
  5.960833E-01
  5.877376E-01
  5.792402E-01
  5.705551E-01
  5.616924E-01
  5.526754E-01
  5.434301E-01
  5.340957E-01
  5.244626E-01
  5.147267E-01
  5.048062E-01
  4.946660E-01
  4.843818E-01
  4.739084E-01
  4.631746E-01
  4.522478E-01
  4.411183E-01
  4.298002E-01
  4.183965E-01
  4.074039E-01
  3.978164E-01
  3.912167E-01
  3.903365E-01
  4.013960E-01
  4.176411E-01
  3.988082E-01
  4.295172E-01
  1.285452E-01
  5.172458E-02
  5.273074E-02
  5.277262E-02
  5.281454E-02
  5.285650E-02
  5.289851E-02
  5.294056E-02
  5.298265E-02
  5.302478E-02
  5.306696E-02
  5.312119E-02
  5.317597E-02
  5.323079E-02
  5.328568E-02
  5.334061E-02
  5.339560E-02
  5.345063E-02
  5.349394E-02
  5.351253E-02
  5.353116E-02
  5.354983E-02
  5.356853E-02
  5.358726E-02
  5.360604E-02
  5.362495E-02
  5.364547E-02
  5.366601E-02
  5.368657E-02
  5.370716E-02
  5.372778E-02
  5.374843E-02
  5.376939E-02
  5.379177E-02
  5.381417E-02
  5.383658E-02
  5.385902E-02
  5.388146E-02
  5.390393E-02
  5.392088E-02
  5.393451E-02
  5.394816E-02
  5.396181E-02
  5.397546E-02
  5.398912E-02
  5.399446E-02
  5.398751E-02
  5.398057E-02
  5.397362E-02
  5.396667E-02
  5.395973E-02
  5.393463E-02
  5.389099E-02
  5.384735E-02
  5.380373E-02
  5.376012E-02
  5.371653E-02
  5.362947E-02
  5.353653E-02
  5.344365E-02
  5.335082E-02
  5.325805E-02
  5.313806E-02
  5.299551E-02
  5.285306E-02
  5.271072E-02
  5.256848E-02
  5.240748E-02
  5.222609E-02
  5.204483E-02
  5.186370E-02
  5.168270E-02
  5.148636E-02
  5.128236E-02
  5.107846E-02
  5.087467E-02
  5.067051E-02
  5.046188E-02
  5.025331E-02
  5.004479E-02
  4.983633E-02
  4.963684E-02
  4.944041E-02
  4.924406E-02
  4.904778E-02
  4.885806E-02
  4.867241E-02
  4.848689E-02
  4.830152E-02
  4.811033E-02
  4.791677E-02
  4.772339E-02
  4.753020E-02
  4.731272E-02
  4.709480E-02
  4.687706E-02
  4.664347E-02
  4.638939E-02
  4.613542E-02
  4.587814E-02
  4.557890E-02
  4.527969E-02
  4.498052E-02
  4.464633E-02
  4.430744E-02
  4.396850E-02
  4.361803E-02
  4.326542E-02
  4.291272E-02
  4.257046E-02
  4.222844E-02
  4.189183E-02
  4.157383E-02
  4.125569E-02
  4.095714E-02
  4.067018E-02
  4.038835E-02
  4.013498E-02
  3.988145E-02
  3.965287E-02
  3.943010E-02
  3.922417E-02
  3.903050E-02
  3.885028E-02
  3.868593E-02
  3.853350E-02
  3.839588E-02
  3.827187E-02
  3.815971E-02
  3.806757E-02
  3.798330E-02
  3.793209E-02
  3.789562E-02
  3.788564E-02
  3.791539E-02
  3.797444E-02
  3.807471E-02
  3.824074E-02
  3.846404E-02
  3.876038E-02
  3.915470E-02
  3.970529E-02
  4.055049E-02
  4.190434E-02
  4.413968E-02
  4.788632E-02
  5.438521E-02
  6.285502E-02
  6.738128E-02
  7.904072E-02
  4.212564E-02
  1.697845E-02
  1.614993E-01
  1.613980E-01
  1.612968E-01
  1.611982E-01
  1.610971E-01
  1.609961E-01
  1.608951E-01
  1.607943E-01
  1.606935E-01
  1.603810E-01
  1.600598E-01
  1.597387E-01
  1.594176E-01
  1.590966E-01
  1.587757E-01
  1.584548E-01
  1.580968E-01
  1.576608E-01
  1.572248E-01
  1.567889E-01
  1.563529E-01
  1.559170E-01
  1.554812E-01
  1.550464E-01
  1.546265E-01
  1.542067E-01
  1.537869E-01
  1.533671E-01
  1.529473E-01
  1.525275E-01
  1.521152E-01
  1.517382E-01
  1.513612E-01
  1.509842E-01
  1.506072E-01
  1.502303E-01
  1.498533E-01
  1.495109E-01
  1.491893E-01
  1.488677E-01
  1.485461E-01
  1.482245E-01
  1.479029E-01
  1.476179E-01
  1.473867E-01
  1.471555E-01
  1.469244E-01
  1.466932E-01
  1.464620E-01
  1.462921E-01
  1.461849E-01
  1.460777E-01
  1.459705E-01
  1.458633E-01
  1.457562E-01
  1.457537E-01
  1.457656E-01
  1.457776E-01
  1.457897E-01
  1.458018E-01
  1.458412E-01
  1.459033E-01
  1.459656E-01
  1.460281E-01
  1.460907E-01
  1.461198E-01
  1.461125E-01
  1.461055E-01
  1.460987E-01
  1.460920E-01
  1.459448E-01
  1.457270E-01
  1.455094E-01
  1.452920E-01
  1.450438E-01
  1.444910E-01
  1.439384E-01
  1.433843E-01
  1.428321E-01
  1.420041E-01
  1.410835E-01
  1.401632E-01
  1.392432E-01
  1.381421E-01
  1.369307E-01
  1.357198E-01
  1.345095E-01
  1.331765E-01
  1.317915E-01
  1.304070E-01
  1.290232E-01
  1.275738E-01
  1.261249E-01
  1.246750E-01
  1.232381E-01
  1.218179E-01
  1.203981E-01
  1.189857E-01
  1.176574E-01
  1.163295E-01
  1.150019E-01
  1.137537E-01
  1.125163E-01
  1.112778E-01
  1.100822E-01
  1.088942E-01
  1.077063E-01
  1.065251E-01
  1.053443E-01
  1.041576E-01
  1.029509E-01
  1.017443E-01
  1.005059E-01
  9.924876E-02
  9.798100E-02
  9.665577E-02
  9.533060E-02
  9.393975E-02
  9.253339E-02
  9.108006E-02
  8.959252E-02
  8.807694E-02
  8.652838E-02
  8.496409E-02
  8.338032E-02
  8.179076E-02
  8.019669E-02
  7.861451E-02
  7.703718E-02
  7.550921E-02
  7.401037E-02
  7.256423E-02
  7.120556E-02
  6.991159E-02
  6.870906E-02
  6.764745E-02
  6.670371E-02
  6.590969E-02
  6.531969E-02
  6.507637E-02
  6.555848E-02
  6.739593E-02
  7.169333E-02
  8.015400E-02
  9.561065E-02
  1.154459E-01
  1.231433E-01
  1.345384E-01
 -2.602856E-03
  1.613913E-07
  9.747768E-01
  9.746684E-01
  9.745601E-01
  9.744519E-01
  9.743439E-01
  9.742360E-01
  9.741282E-01
  9.740206E-01
  9.739132E-01
  9.733982E-01
  9.728664E-01
  9.723348E-01
  9.718034E-01
  9.712720E-01
  9.707408E-01
  9.702098E-01
  9.695357E-01
  9.685611E-01
  9.675866E-01
  9.666122E-01
  9.656378E-01
  9.646636E-01
  9.636894E-01
  9.627022E-01
  9.615314E-01