 Title= "ADflow Lift Distribution Data"
Variables = "eta" "CoordinateX" "CoordinateY" "CoordinateZ" "Lift" "Drag" "Moment" "Normalized Lift" "Normalized Drag" "Normalized Moment" "CL" "CD" "CM" "CLp" "CDp" "CMp" "CLv" "CDv" "CMv" "Elliptical" "thickness" "twist" "chord" "fx" "fy" "fz" 
Zone T= "LiftDist_01 allWalls: : z normal"
 I=          150
 DATAPACKING=BLOCK
  0.000000E+00
  6.711405E-03
  1.342281E-02
  2.013422E-02
  2.684563E-02
  3.355704E-02
  4.026845E-02
  4.697986E-02
  5.369127E-02
  6.040268E-02
  6.711409E-02
  7.382550E-02
  8.053691E-02
  8.724832E-02
  9.395973E-02
  1.006711E-01
  1.073825E-01
  1.140940E-01
  1.208054E-01
  1.275168E-01
  1.342282E-01
  1.409396E-01
  1.476510E-01
  1.543624E-01
  1.610738E-01
  1.677852E-01
  1.744966E-01
  1.812081E-01
  1.879195E-01
  1.946309E-01
  2.013423E-01
  2.080537E-01
  2.147651E-01
  2.214765E-01
  2.281879E-01
  2.348993E-01
  2.416107E-01
  2.483221E-01
  2.550336E-01
  2.617450E-01
  2.684564E-01
  2.751678E-01
  2.818792E-01
  2.885906E-01
  2.953020E-01
  3.020134E-01
  3.087248E-01
  3.154362E-01
  3.221476E-01
  3.288591E-01
  3.355705E-01
  3.422819E-01
  3.489933E-01
  3.557047E-01
  3.624161E-01
  3.691275E-01
  3.758389E-01
  3.825503E-01
  3.892617E-01
  3.959732E-01
  4.026846E-01
  4.093960E-01
  4.161074E-01
  4.228188E-01
  4.295302E-01
  4.362416E-01
  4.429530E-01
  4.496644E-01
  4.563758E-01
  4.630872E-01
  4.697987E-01
  4.765101E-01
  4.832215E-01
  4.899329E-01
  4.966443E-01
  5.033557E-01
  5.100671E-01
  5.167785E-01
  5.234899E-01
  5.302013E-01
  5.369128E-01
  5.436242E-01
  5.503356E-01
  5.570470E-01
  5.637584E-01
  5.704698E-01
  5.771812E-01
  5.838926E-01
  5.906040E-01
  5.973154E-01
  6.040268E-01
  6.107383E-01
  6.174497E-01
  6.241611E-01
  6.308725E-01
  6.375839E-01
  6.442953E-01
  6.510067E-01
  6.577181E-01
  6.644295E-01
  6.711409E-01
  6.778524E-01
  6.845638E-01
  6.912752E-01
  6.979866E-01
  7.046980E-01
  7.114094E-01
  7.181208E-01
  7.248322E-01
  7.315436E-01
  7.382550E-01
  7.449664E-01
  7.516779E-01
  7.583893E-01
  7.651007E-01
  7.718121E-01
  7.785235E-01
  7.852349E-01
  7.919463E-01
  7.986577E-01
  8.053691E-01
  8.120805E-01
  8.187919E-01
  8.255034E-01
  8.322148E-01
  8.389262E-01
  8.456376E-01
  8.523490E-01
  8.590604E-01
  8.657718E-01
  8.724832E-01
  8.791946E-01
  8.859060E-01
  8.926175E-01
  8.993289E-01
  9.060403E-01
  9.127517E-01
  9.194631E-01
  9.261745E-01
  9.328859E-01
  9.395973E-01
  9.463087E-01
  9.530201E-01
  9.597315E-01
  9.664430E-01
  9.731544E-01
  9.798658E-01
  9.865772E-01
  9.932886E-01
  1.000000E+00
  0.000000E+00
  0.000000E+00
  0.000000E+00
  0.000000E+00
  0.000000E+00
  0.000000E+00
  0.000000E+00
  0.000000E+00
  0.000000E+00
  0.000000E+00
  0.000000E+00
  0.000000E+00
  0.000000E+00
  0.000000E+00
  0.000000E+00
  0.000000E+00
  0.000000E+00
  0.000000E+00
  0.000000E+00
  0.000000E+00
  0.000000E+00
  0.000000E+00
  0.000000E+00
  0.000000E+00
  0.000000E+00
  0.000000E+00
  0.000000E+00
  0.000000E+00
  0.000000E+00
  0.000000E+00
  0.000000E+00
  0.000000E+00
  0.000000E+00
  0.000000E+00
  0.000000E+00
  0.000000E+00
  0.000000E+00
  0.000000E+00
  0.000000E+00
  0.000000E+00
  0.000000E+00
  0.000000E+00
  0.000000E+00
  0.000000E+00
  0.000000E+00
  0.000000E+00
  0.000000E+00
  0.000000E+00
  0.000000E+00
  0.000000E+00
  0.000000E+00
  0.000000E+00
  0.000000E+00
  0.000000E+00
  0.000000E+00
  0.000000E+00
  0.000000E+00
  0.000000E+00
  0.000000E+00
  0.000000E+00
  0.000000E+00
  0.000000E+00
  0.000000E+00
  0.000000E+00
  0.000000E+00
  0.000000E+00
  0.000000E+00
  0.000000E+00
  0.000000E+00
  0.000000E+00
  0.000000E+00
  0.000000E+00
  0.000000E+00
  0.000000E+00
  0.000000E+00
  0.000000E+00
  0.000000E+00
  0.000000E+00
  0.000000E+00
  0.000000E+00
  0.000000E+00
  0.000000E+00
  0.000000E+00
  0.000000E+00
  0.000000E+00
  0.000000E+00
  0.000000E+00
  0.000000E+00
  0.000000E+00
  0.000000E+00
  0.000000E+00
  0.000000E+00
  0.000000E+00
  0.000000E+00
  0.000000E+00
  0.000000E+00
  0.000000E+00
  0.000000E+00
  0.000000E+00
  0.000000E+00
  0.000000E+00
  0.000000E+00
  0.000000E+00
  0.000000E+00
  0.000000E+00
  0.000000E+00
  0.000000E+00
  0.000000E+00
  0.000000E+00
  0.000000E+00
  0.000000E+00
  0.000000E+00
  0.000000E+00
  0.000000E+00
  0.000000E+00
  0.000000E+00
  0.000000E+00
  0.000000E+00
  0.000000E+00
  0.000000E+00
  0.000000E+00
  0.000000E+00
  0.000000E+00
  0.000000E+00
  0.000000E+00
  0.000000E+00
  0.000000E+00
  0.000000E+00
  0.000000E+00
  0.000000E+00
  0.000000E+00
  0.000000E+00
  0.000000E+00
  0.000000E+00
  0.000000E+00
  0.000000E+00
  0.000000E+00
  0.000000E+00
  0.000000E+00
  0.000000E+00
  0.000000E+00
  0.000000E+00
  0.000000E+00
  0.000000E+00
  0.000000E+00
  0.000000E+00
  0.000000E+00
  0.000000E+00
  0.000000E+00
  0.000000E+00
  0.000000E+00
  0.000000E+00
  0.000000E+00
  0.000000E+00
  0.000000E+00
  0.000000E+00
  0.000000E+00
  0.000000E+00
  0.000000E+00
  0.000000E+00
  0.000000E+00
  0.000000E+00
  0.000000E+00
  0.000000E+00
  0.000000E+00
  0.000000E+00
  0.000000E+00
  0.000000E+00
  0.000000E+00
  0.000000E+00
  0.000000E+00
  0.000000E+00
  0.000000E+00
  0.000000E+00
  0.000000E+00
  0.000000E+00
  0.000000E+00
  0.000000E+00
  0.000000E+00
  0.000000E+00
  0.000000E+00
  0.000000E+00
  0.000000E+00
  0.000000E+00
  0.000000E+00
  0.000000E+00
  0.000000E+00
  0.000000E+00
  0.000000E+00
  0.000000E+00
  0.000000E+00
  0.000000E+00
  0.000000E+00
  0.000000E+00
  0.000000E+00
  0.000000E+00
  0.000000E+00
  0.000000E+00
  0.000000E+00
  0.000000E+00
  0.000000E+00
  0.000000E+00
  0.000000E+00
  0.000000E+00
  0.000000E+00
  0.000000E+00
  0.000000E+00
  0.000000E+00
  0.000000E+00
  0.000000E+00
  0.000000E+00
  0.000000E+00
  0.000000E+00
  0.000000E+00
  0.000000E+00
  0.000000E+00
  0.000000E+00
  0.000000E+00
  0.000000E+00
  0.000000E+00
  0.000000E+00
  0.000000E+00
  0.000000E+00
  0.000000E+00
  0.000000E+00
  0.000000E+00
  0.000000E+00
  0.000000E+00
  0.000000E+00
  0.000000E+00
  0.000000E+00
  0.000000E+00
  0.000000E+00
  0.000000E+00
  0.000000E+00
  0.000000E+00
  0.000000E+00
  0.000000E+00
  0.000000E+00
  0.000000E+00
  0.000000E+00
  0.000000E+00
  0.000000E+00
  0.000000E+00
  0.000000E+00
  0.000000E+00
  0.000000E+00
  0.000000E+00
  0.000000E+00
  0.000000E+00
  0.000000E+00
  0.000000E+00
  0.000000E+00
  0.000000E+00
  0.000000E+00
  0.000000E+00
  0.000000E+00
  0.000000E+00
  0.000000E+00
  0.000000E+00
  0.000000E+00
  0.000000E+00
  0.000000E+00
  0.000000E+00
  0.000000E+00
  0.000000E+00
  0.000000E+00
  0.000000E+00
  0.000000E+00
  0.000000E+00
  0.000000E+00
  0.000000E+00
  0.000000E+00
  0.000000E+00
  0.000000E+00
  0.000000E+00
  0.000000E+00
  0.000000E+00
  0.000000E+00
  0.000000E+00
  0.000000E+00
  0.000000E+00
  0.000000E+00
  0.000000E+00
  0.000000E+00
  0.000000E+00
  0.000000E+00
  0.000000E+00
  0.000000E+00
  0.000000E+00
  0.000000E+00
  0.000000E+00
  0.000000E+00
  0.000000E+00
  0.000000E+00
  0.000000E+00
  0.000000E+00
  0.000000E+00
  0.000000E+00
  0.000000E+00
  1.000000E-08
  1.691809E-02
  3.383618E-02
  5.075427E-02
  6.767237E-02
  8.459046E-02
  1.015085E-01
  1.184266E-01
  1.353447E-01
  1.522628E-01
  1.691809E-01
  1.860990E-01
  2.030171E-01
  2.199352E-01
  2.368533E-01
  2.537714E-01
  2.706895E-01
  2.876076E-01
  3.045256E-01
  3.214437E-01
  3.383618E-01
  3.552799E-01
  3.721980E-01
  3.891161E-01
  4.060342E-01
  4.229523E-01
  4.398704E-01
  4.567885E-01
  4.737066E-01
  4.906247E-01
  5.075427E-01
  5.244608E-01
  5.413789E-01
  5.582970E-01
  5.752151E-01
  5.921332E-01
  6.090513E-01
  6.259694E-01
  6.428875E-01
  6.598056E-01
  6.767237E-01
  6.936418E-01
  7.105598E-01
  7.274779E-01
  7.443960E-01
  7.613141E-01
  7.782322E-01
  7.951503E-01
  8.120684E-01
  8.289865E-01
  8.459046E-01
  8.628227E-01
  8.797408E-01
  8.966589E-01
  9.135769E-01
  9.304950E-01
  9.474131E-01
  9.643312E-01
  9.812493E-01
  9.981674E-01
  1.015085E+00
  1.032004E+00
  1.048922E+00
  1.065840E+00
  1.082758E+00
  1.099676E+00
  1.116594E+00
  1.133512E+00
  1.150430E+00
  1.167348E+00
  1.184266E+00
  1.201185E+00
  1.218103E+00
  1.235021E+00
  1.251939E+00
  1.268857E+00
  1.285775E+00
  1.302693E+00
  1.319611E+00
  1.336529E+00
  1.353447E+00
  1.370365E+00
  1.387284E+00
  1.404202E+00
  1.421120E+00
  1.438038E+00
  1.454956E+00
  1.471874E+00
  1.488792E+00
  1.505710E+00
  1.522628E+00
  1.539546E+00
  1.556464E+00
  1.573383E+00
  1.590301E+00
  1.607219E+00
  1.624137E+00
  1.641055E+00
  1.657973E+00
  1.674891E+00
  1.691809E+00
  1.708727E+00
  1.725645E+00
  1.742563E+00
  1.759482E+00
  1.776400E+00
  1.793318E+00
  1.810236E+00
  1.827154E+00
  1.844072E+00
  1.860990E+00
  1.877908E+00
  1.894826E+00
  1.911744E+00
  1.928662E+00
  1.945581E+00
  1.962499E+00
  1.979417E+00
  1.996335E+00
  2.013253E+00
  2.030171E+00
  2.047089E+00
  2.064007E+00
  2.080925E+00
  2.097843E+00
  2.114761E+00
  2.131680E+00
  2.148598E+00
  2.165516E+00
  2.182434E+00
  2.199352E+00
  2.216270E+00
  2.233188E+00
  2.250106E+00
  2.267024E+00
  2.283942E+00
  2.300860E+00
  2.317779E+00
  2.334697E+00
  2.351615E+00
  2.368533E+00
  2.385451E+00
  2.402369E+00
  2.419287E+00
  2.436205E+00
  2.453123E+00
  2.470041E+00
  2.486959E+00
  2.503878E+00
  2.520796E+00
  1.098343E+04
  1.098191E+04
  1.098039E+04
  1.097886E+04
  1.097734E+04
  1.097582E+04
  1.097430E+04
  1.097278E+04
  1.097125E+04
  1.096683E+04
  1.096228E+04
  1.095774E+04
  1.095320E+04
  1.094865E+04
  1.094411E+04
  1.093956E+04
  1.093414E+04
  1.092686E+04
  1.091958E+04
  1.091230E+04
  1.090502E+04
  1.089775E+04
  1.089047E+04
  1.088300E+04
  1.087297E+04
  1.086293E+04
  1.085289E+04
  1.084286E+04
  1.083282E+04
  1.082278E+04
  1.081223E+04
  1.079920E+04
  1.078617E+04
  1.077314E+04
  1.076012E+04
  1.074709E+04
  1.073406E+04
  1.071908E+04
  1.070292E+04
  1.068676E+04
  1.067061E+04
  1.065445E+04
  1.063830E+04
  1.062087E+04
  1.060157E+04
  1.058227E+04
  1.056298E+04
  1.054368E+04
  1.052438E+04
  1.050349E+04
  1.048098E+04
  1.045846E+04
  1.043595E+04
  1.041343E+04
  1.039092E+04
  1.036544E+04
  1.033956E+04
  1.031368E+04
  1.028780E+04
  1.026193E+04
  1.023418E+04
  1.020488E+04
  1.017557E+04
  1.014627E+04
  1.011697E+04
  1.008595E+04
  1.005306E+04
  1.002017E+04
  9.987283E+03
  9.954394E+03
  9.918891E+03
  9.882074E+03
  9.845258E+03
  9.808442E+03
  9.771245E+03
  9.730297E+03
  9.689351E+03
  9.648405E+03
  9.607460E+03
  9.563393E+03
  9.518276E+03
  9.473161E+03
  9.428046E+03
  9.380347E+03
  9.331072E+03
  9.281799E+03
  9.232528E+03
  9.180574E+03
  9.127473E+03
  9.074376E+03
  9.021282E+03
  8.964994E+03
  8.908632E+03
  8.852278E+03
  8.794591E+03
  8.735191E+03
  8.675806E+03
  8.616202E+03
  8.553776E+03
  8.491378E+03
  8.429011E+03
  8.364225E+03
  8.299158E+03
  8.234135E+03
  8.166658E+03
  8.098787E+03
  8.030971E+03
  7.959507E+03
  7.887969E+03
  7.815436E+03
  7.739398E+03
  7.663412E+03
  7.584336E+03
  7.503436E+03
  7.421776E+03
  7.335791E+03
  7.249844E+03
  7.159816E+03
  7.068844E+03
  6.975116E+03
  6.879384E+03
  6.781567E+03
  6.681290E+03
  6.579087E+03
  6.474492E+03
  6.367808E+03
  6.259307E+03
  6.148300E+03
  6.036318E+03
  5.921221E+03
  5.805108E+03
  5.687170E+03
  5.567177E+03
  5.445876E+03
  5.322885E+03
  5.197595E+03
  5.070551E+03
  4.941602E+03
  4.810771E+03
  4.678850E+03
  4.550570E+03
  4.436005E+03
  4.351242E+03
  4.323320E+03
  4.413650E+03
  4.546034E+03
  4.292796E+03
  4.580169E+03
  1.331088E+03
  7.314730E-03
  5.976752E+02
  5.976409E+02
  5.976067E+02
  5.975724E+02
  5.975381E+02
  5.975038E+02
  5.974696E+02
  5.974353E+02
  5.974010E+02
  5.973498E+02
  5.972979E+02
  5.972460E+02
  5.971941E+02
  5.971422E+02
  5.970903E+02
  5.970384E+02
  5.970072E+02
  5.970197E+02
  5.970321E+02
  5.970445E+02
  5.970570E+02
  5.970695E+02
  5.970820E+02
  5.970982E+02
  5.971654E+02
  5.972327E+02
  5.973000E+02
  5.973673E+02
  5.974347E+02
  5.975021E+02
  5.975699E+02
  5.976397E+02
  5.977095E+02
  5.977794E+02
  5.978494E+02
  5.979194E+02
  5.979896E+02
  5.980533E+02
  5.981134E+02
  5.981735E+02
  5.982338E+02
  5.982942E+02
  5.983547E+02
  5.984107E+02
  5.984598E+02
  5.985091E+02
  5.985586E+02
  5.986083E+02
  5.986582E+02
  5.986735E+02
  5.986536E+02
  5.986339E+02
  5.986145E+02
  5.985953E+02
  5.985763E+02
  5.984143E+02
  5.982330E+02
  5.980518E+02
  5.978709E+02
  5.976902E+02
  5.974062E+02
  5.970364E+02
  5.966667E+02
  5.962973E+02
  5.959280E+02
  5.954740E+02
  5.949281E+02
  5.943823E+02
  5.938367E+02
  5.932913E+02
  5.926386E+02
  5.919321E+02
  5.912258E+02
  5.905197E+02
  5.898039E+02
  5.889917E+02
  5.881797E+02
  5.873680E+02
  5.865565E+02
  5.856247E+02
  5.846526E+02
  5.836807E+02
  5.827092E+02
  5.814718E+02
  5.800722E+02
  5.786726E+02
  5.772729E+02
  5.754005E+02
  5.733256E+02
  5.712503E+02
  5.691749E+02
  5.663136E+02
  5.634329E+02
  5.605527E+02
  5.572236E+02
  5.533181E+02
  5.494154E+02
  5.454296E+02
  5.403961E+02
  5.353704E+02
  5.303523E+02
  5.246904E+02
  5.189536E+02
  5.132288E+02
  5.073949E+02
  5.015528E+02
  4.957239E+02
  4.901443E+02
  4.845848E+02
  4.791472E+02
  4.740934E+02
  4.690480E+02
  4.644176E+02
  4.600349E+02
  4.557698E+02
  4.521187E+02
  4.484697E+02
  4.453989E+02
  4.424655E+02
  4.399086E+02
  4.376263E+02
  4.355601E+02
  4.337483E+02
  4.320365E+02
  4.304491E+02
  4.289057E+02
  4.274020E+02
  4.259282E+02
  4.244698E+02
  4.230787E+02
  4.217464E+02
  4.205161E+02
  4.195079E+02
  4.186987E+02
  4.181901E+02
  4.182481E+02
  4.188578E+02
  4.202027E+02
  4.225712E+02
  4.266019E+02
  4.337523E+02
  4.462506E+02
  4.679416E+02
  5.051672E+02
  5.706086E+02
  6.563822E+02
  6.993442E+02
  8.243897E+02
  3.690961E+02
  2.345063E-03
  2.005059E+03
  2.004697E+03
  2.004335E+03
  2.003972E+03
  2.003610E+03
  2.003248E+03
  2.002885E+03
  2.002523E+03
  2.002160E+03
  2.001137E+03
  2.000086E+03
  1.999035E+03
  1.997984E+03
  1.996933E+03
  1.995882E+03
  1.994831E+03
  1.993587E+03
  1.991939E+03
  1.990291E+03
  1.988643E+03
  1.986994E+03
  1.985346E+03
  1.983698E+03
  1.982006E+03
  1.979692E+03
  1.977379E+03
  1.975066E+03
  1.972753E+03
  1.970440E+03
  1.968127E+03
  1.965674E+03
  1.962554E+03
  1.959434E+03
  1.956314E+03
  1.953194E+03
  1.950074E+03
  1.946954E+03
  1.943286E+03
  1.939289E+03
  1.935292E+03
  1.931295E+03
  1.927298E+03
  1.923302E+03
  1.918966E+03
  1.914131E+03
  1.909297E+03
  1.904462E+03
  1.899628E+03
  1.894794E+03
  1.889591E+03
  1.884012E+03
  1.878433E+03
  1.872854E+03
  1.867275E+03
  1.861697E+03
  1.855549E+03
  1.849324E+03
  1.843098E+03
  1.836873E+03
  1.830648E+03
  1.824108E+03
  1.817306E+03
  1.810504E+03
  1.803702E+03
  1.796900E+03
  1.789787E+03
  1.782336E+03
  1.774901E+03
  1.767450E+03
  1.759999E+03
  1.752034E+03
  1.743812E+03
  1.735590E+03
  1.727367E+03
  1.719082E+03
  1.710179E+03
  1.701276E+03
  1.692374E+03
  1.683471E+03
  1.674179E+03
  1.664757E+03
  1.655335E+03
  1.645913E+03
  1.636200E+03
  1.626308E+03
  1.616417E+03
  1.606526E+03
  1.596498E+03
  1.586412E+03
  1.576327E+03
  1.566242E+03
  1.556425E+03
  1.546617E+03
  1.536810E+03
  1.527133E+03
  1.517623E+03
  1.508119E+03
  1.498608E+03
  1.488962E+03
  1.479327E+03
  1.469693E+03
  1.459708E+03
  1.449691E+03
  1.439692E+03
  1.429073E+03
  1.418362E+03
  1.407673E+03
  1.395588E+03
  1.383476E+03
  1.370908E+03
  1.356740E+03
  1.342592E+03
  1.326975E+03
  1.310489E+03
  1.293643E+03
  1.274775E+03
  1.255919E+03
  1.235217E+03
  1.214084E+03
  1.191830E+03
  1.168760E+03
  1.145051E+03
  1.120588E+03
  1.095762E+03
  1.070487E+03
  1.045069E+03
  1.019530E+03
  9.941808E+02
  9.689098E+02
  9.444205E+02
  9.203962E+02
  8.972084E+02
  8.754067E+02
  8.546324E+02
  8.353067E+02
  8.181725E+02
  8.027943E+02
  7.895227E+02
  7.788994E+02
  7.723126E+02
  7.734713E+02
  7.887055E+02
  8.292414E+02
  9.118893E+02
  1.063461E+03
  1.251742E+03
  1.303591E+03
  1.407565E+03
 -2.188887E+00
  2.275171E-08
  1.233203E+00
  1.233032E+00
  1.232861E+00
  1.232690E+00
  1.232519E+00
  1.232348E+00
  1.232177E+00
  1.232006E+00
  1.231835E+00
  1.231338E+00
  1.230828E+00
  1.230318E+00
  1.229808E+00
  1.229298E+00
  1.228787E+00
  1.228277E+00
  1.227668E+00
  1.226851E+00
  1.226033E+00
  1.225216E+00
  1.224399E+00
  1.223582E+00
  1.222765E+00
  1.221927E+00
  1.220800E+00
  1.219673E+00
  1.218546E+00
  1.217419E+00
  1.216292E+00
  1.215165E+00
  1.213980E+00
  1.212517E+00
  1.211054E+00
  1.209592E+00
  1.208129E+00
  1.206666E+00
  1.205204E+00
  1.203521E+00
  1.201707E+00
  1.199893E+00
  1.198079E+00
  1.196265E+00
  1.194451E+00
  1.192495E+00
  1.190328E+00
  1.188161E+00
  1.185994E+00
  1.183828E+00
  1.181661E+00
  1.179316E+00
  1.176788E+00
  1.174260E+00
  1.171732E+00
  1.169204E+00
  1.166676E+00
  1.163816E+00
  1.160910E+00
  1.158004E+00
  1.155098E+00
  1.152193E+00
  1.149077E+00
  1.145787E+00
  1.142498E+00
  1.139208E+00
  1.135918E+00
  1.132435E+00
  1.128742E+00
  1.125049E+00
  1.121356E+00
  1.117664E+00
  1.113678E+00
  1.109544E+00
  1.105410E+00
  1.101277E+00
  1.097100E+00
  1.092503E+00
  1.087905E+00
  1.083308E+00
  1.078711E+00
  1.073763E+00
  1.068697E+00
  1.063632E+00
  1.058566E+00
  1.053211E+00
  1.047678E+00
  1.042146E+00
  1.036614E+00
  1.030780E+00
  1.024818E+00
  1.018857E+00
  1.012895E+00
  1.006575E+00
  1.000247E+00
  9.939199E-01
  9.874429E-01
  9.807736E-01
  9.741059E-01
  9.674137E-01
  9.604045E-01
  9.533987E-01
  9.463961E-01
  9.391221E-01
  9.318164E-01
  9.245158E-01
  9.169395E-01
  9.093191E-01
  9.017049E-01
  8.936809E-01
  8.856488E-01
  8.775050E-01
  8.689675E-01
  8.604359E-01
  8.515573E-01
  8.424740E-01
  8.333053E-01
  8.236511E-01
  8.140011E-01
  8.038929E-01
  7.936787E-01
  7.831551E-01
  7.724065E-01
  7.614237E-01
  7.501648E-01
  7.386896E-01
  7.269458E-01
  7.149675E-01
  7.027852E-01
  6.903215E-01
  6.777483E-01
  6.648254E-01
  6.517884E-01
  6.385466E-01
  6.250739E-01
  6.114544E-01
  5.976452E-01
  5.835778E-01
  5.693136E-01
  5.548354E-01
  5.401458E-01
  5.253340E-01
  5.109309E-01
  4.980677E-01
  4.885506E-01
  4.854156E-01
  4.955577E-01
  5.104216E-01
  4.819884E-01
  5.142542E-01
  1.494525E-01
  8.212865E-07
  1.088427E+00
  1.088365E+00
  1.088302E+00
  1.088240E+00
  1.088177E+00
  1.088115E+00
  1.088053E+00
  1.087990E+00
  1.087928E+00
  1.087835E+00
  1.087740E+00
  1.087645E+00
  1.087551E+00
  1.087456E+00
  1.087362E+00
  1.087267E+00
  1.087211E+00
  1.087233E+00
  1.087256E+00
  1.087279E+00
  1.087301E+00
  1.087324E+00
  1.087347E+00
  1.087376E+00
  1.087499E+00
  1.087621E+00
  1.087744E+00
  1.087866E+00
  1.087989E+00
  1.088112E+00
  1.088235E+00
  1.088362E+00
  1.088490E+00
  1.088617E+00
  1.088744E+00
  1.088872E+00
  1.089000E+00
  1.089116E+00
  1.089225E+00
  1.089335E+00
  1.089444E+00
  1.089554E+00
  1.089665E+00
  1.089766E+00
  1.089856E+00
  1.089946E+00
  1.090036E+00
  1.090126E+00
  1.090217E+00
  1.090245E+00
  1.090209E+00
  1.090173E+00
  1.090138E+00
  1.090103E+00
  1.090068E+00
  1.089773E+00
  1.089443E+00
  1.089113E+00
  1.088784E+00
  1.088454E+00
  1.087937E+00
  1.087264E+00
  1.086591E+00
  1.085918E+00
  1.085245E+00
  1.084419E+00
  1.083424E+00
  1.082430E+00
  1.081437E+00
  1.080444E+00
  1.079255E+00
  1.077968E+00
  1.076682E+00
  1.075396E+00
  1.074093E+00
  1.072614E+00
  1.071135E+00
  1.069657E+00
  1.068179E+00
  1.066482E+00
  1.064712E+00
  1.062942E+00
  1.061172E+00
  1.058919E+00
  1.056370E+00
  1.053821E+00
  1.051272E+00
  1.047863E+00
  1.044084E+00
  1.040305E+00
  1.036525E+00
  1.031314E+00
  1.026068E+00
  1.020823E+00
  1.014761E+00
  1.007648E+00
  1.000541E+00
  9.932825E-01
  9.841160E-01
  9.749637E-01
  9.658253E-01
  9.555145E-01
  9.450671E-01
  9.346416E-01
  9.240175E-01
  9.133785E-01
  9.027635E-01
  8.926025E-01
  8.824781E-01
  8.725757E-01
  8.633722E-01
  8.541839E-01
  8.457515E-01
  8.377702E-01
  8.300031E-01
  8.233540E-01
  8.167088E-01
  8.111166E-01
  8.057745E-01
  8.011182E-01
  7.969618E-01
  7.931990E-01
  7.898996E-01
  7.867823E-01
  7.838914E-01
  7.810808E-01
  7.783423E-01
  7.756584E-01
  7.730024E-01
  7.704692E-01
  7.680429E-01
  7.658024E-01
  7.639664E-01
  7.624927E-01
  7.615666E-01
  7.616722E-01
  7.627825E-01
  7.652317E-01
  7.695449E-01
  7.768853E-01
  7.899068E-01
  8.126675E-01
  8.521692E-01
  9.199607E-01
  1.039136E+00
  1.195339E+00
  1.273577E+00
  1.501297E+00
  6.721614E-01
  4.270597E-06
  1.261948E+00
  1.261720E+00
  1.261492E+00
  1.261264E+00
  1.261036E+00
  1.260808E+00
  1.260580E+00
  1.260352E+00
  1.260124E+00
  1.259479E+00
  1.258818E+00
  1.258156E+00
  1.257495E+00
  1.256833E+00
  1.256172E+00
  1.255511E+00
  1.254728E+00
  1.253690E+00
  1.252653E+00
  1.251616E+00
  1.250578E+00
  1.249541E+00
  1.248504E+00
  1.247438E+00
  1.245983E+00
  1.244527E+00
  1.243071E+00
  1.241615E+00
  1.240159E+00
  1.238704E+00
  1.237160E+00
  1.235196E+00
  1.233232E+00
  1.231269E+00
  1.229305E+00
  1.227341E+00
  1.225378E+00
  1.223069E+00
  1.220553E+00
  1.218038E+00
  1.215522E+00
  1.213007E+00
  1.210491E+00
  1.207763E+00
  1.204720E+00
  1.201677E+00
  1.198634E+00
  1.195592E+00
  1.192549E+00
  1.189275E+00
  1.185763E+00
  1.182252E+00
  1.178741E+00
  1.175229E+00
  1.171718E+00
  1.167849E+00
  1.163931E+00
  1.160013E+00
  1.156095E+00
  1.152177E+00
  1.148061E+00
  1.143779E+00
  1.139498E+00
  1.135217E+00
  1.130936E+00
  1.126459E+00
  1.121770E+00
  1.117091E+00
  1.112401E+00
  1.107711E+00
  1.102699E+00
  1.097524E+00
  1.092349E+00
  1.087174E+00
  1.081959E+00
  1.076356E+00
  1.070753E+00
  1.065149E+00
  1.059546E+00
  1.053698E+00
  1.047768E+00
  1.041838E+00
  1.035908E+00
  1.029794E+00
  1.023569E+00
  1.017343E+00
  1.011118E+00
  1.004807E+00
  9.984591E-01
  9.921117E-01
  9.857647E-01
  9.795860E-01
  9.734127E-01
  9.672405E-01
  9.611497E-01
  9.551647E-01
  9.491827E-01
  9.431965E-01
  9.371256E-01
  9.310617E-01
  9.249980E-01
  9.187138E-01
  9.124094E-01
  9.061164E-01
  8.994328E-01
  8.926914E-01
  8.859641E-01
  8.783578E-01
  8.707350E-01
  8.628250E-01
  8.539075E-01
  8.450032E-01
  8.351741E-01
  8.247980E-01
  8.141957E-01
  8.023203E-01
  7.904526E-01
  7.774234E-01
  7.641224E-01
  7.501165E-01
  7.355964E-01
  7.206742E-01
  7.052779E-01
  6.896531E-01
  6.737449E-01
  6.577477E-01
  6.416736E-01
  6.257194E-01
  6.098143E-01
  5.944012E-01
  5.792808E-01
  5.646868E-01
  5.509652E-01
  5.378902E-01
  5.257269E-01
  5.149430E-01
  5.052642E-01
  4.969113E-01
  4.902252E-01
  4.860796E-01
  4.868089E-01
  4.963970E-01
  5.219095E-01
  5.739267E-01
  6.693231E-01
  7.878237E-01
  8.204563E-01
  8.858957E-01
 -1.377646E-03
  1.431951E-11
  9.725896E-01
  9.724549E-01
  9.723201E-01
  9.721853E-01
  9.720505E-01
  9.719157E-01
  9.717809E-01
  9.716461E-01
  9.715114E-01
  9.711197E-01
  9.707173E-01
  9.703150E-01
  9.699126E-01
  9.695103E-01
  9.691080E-01
  9.687057E-01
  9.682252E-01
  9.675808E-01
  9.669363E-01
  9.662919E-01
  9.656475E-01
  9.650031E-01
  9.643586E-01
  9.636979E-01
  9.628092E-01
  9.619206E-01
  9.610319E-01
  9.601432E-01
  9.592546E-01
  9.583660E-01
  9.574313E-01
  9.562779E-01
  9.551244E-01
  9.539710E-01
  9.528176E-01
  9.516642E-01
  9.505108E-01
  9.491841E-01
  9.477536E-01
  9.463230E-01
  9.448925E-01
  9.434620E-01
  9.420316E-01
  9.404886E-01
  9.387799E-01
  9.370712E-01
  9.353626E-01
  9.336540E-01
  9.319454E-01
  9.300959E-01
  9.281022E-01
  9.261085E-01
  9.241149E-01
  9.221214E-01
  9.201279E-01
  9.178720E-01
  9.155804E-01
  9.132889E-01
  9.109974E-01
  9.087059E-01
  9.062488E-01
  9.036542E-01
  9.010595E-01
  8.984650E-01
  8.958704E-01
  8.931235E-01
  8.902111E-01
  8.872987E-01
  8.843863E-01
  8.814739E-01
  8.783300E-01
  8.750698E-01
  8.718096E-01
  8.685495E-01
  8.652555E-01
  8.616295E-01
  8.580035E-01
  8.543776E-01
  8.507518E-01
  8.468494E-01
  8.428540E-01
  8.388588E-01
  8.348636E-01
  8.306396E-01
  8.262760E-01
  8.219126E-01
  8.175494E-01
  8.129486E-01
  8.082464E-01
  8.035445E-01
  7.988429E-01
  7.938587E-01
  7.888680E-01
  7.838780E-01
  7.787700E-01
  7.735105E-01
  7.682522E-01
  7.629746E-01
  7.574470E-01
  7.519219E-01
  7.463993E-01
  7.406623E-01
  7.349000E-01
  7.291415E-01
  7.231653E-01
  7.171541E-01
  7.111474E-01
  7.048176E-01
  6.984811E-01
  6.920563E-01
  6.853213E-01
  6.785909E-01
  6.715870E-01
  6.644219E-01
  6.571896E-01
  6.495750E-01
  6.419637E-01
  6.339918E-01
  6.259365E-01
  6.176376E-01
  6.091616E-01
  6.005011E-01
  5.916232E-01
  5.825747E-01
  5.733145E-01
  5.638693E-01
  5.542632E-01
  5.444350E-01
  5.345202E-01
  5.243294E-01
  5.140484E-01
  5.036055E-01
  4.929803E-01
  4.822390E-01
  4.713477E-01
  4.602524E-01
  4.490016E-01
  4.375818E-01
  4.259952E-01
  4.143118E-01
  4.029506E-01
  3.928037E-01
  3.852955E-01
  3.828203E-01
  3.908157E-01
  4.025345E-01
  3.801076E-01
  4.055490E-01
  1.442580E-01
  5.316100E-02
  5.292451E-02
  5.292147E-02
  5.291844E-02
  5.291540E-02
  5.291237E-02
  5.290934E-02
  5.290630E-02
  5.290327E-02
  5.290023E-02
  5.289570E-02
  5.289111E-02
  5.288651E-02
  5.288192E-02
  5.287733E-02
  5.287274E-02
  5.286814E-02
  5.286539E-02
  5.286649E-02
  5.286760E-02
  5.286871E-02
  5.286982E-02
  5.287093E-02
  5.287204E-02
  5.287347E-02
  5.287943E-02
  5.288540E-02
  5.289136E-02
  5.289733E-02
  5.290331E-02
  5.290928E-02
  5.291529E-02
  5.292148E-02
  5.292767E-02
  5.293387E-02
  5.294008E-02
  5.294629E-02
  5.295251E-02
  5.295816E-02
  5.296349E-02
  5.296883E-02
  5.297417E-02
  5.297953E-02
  5.298490E-02
  5.298986E-02
  5.299422E-02
  5.299860E-02
  5.300299E-02
  5.300740E-02
  5.301183E-02
  5.301320E-02
  5.301144E-02
  5.300971E-02
  5.300799E-02
  5.300630E-02
  5.300463E-02
  5.299029E-02
  5.297424E-02
  5.295820E-02
  5.294219E-02
  5.292619E-02
  5.290104E-02
  5.286830E-02
  5.283557E-02
  5.280285E-02
  5.277016E-02
  5.272996E-02
  5.268162E-02
  5.263329E-02
  5.258497E-02
  5.253668E-02
  5.247888E-02
  5.241631E-02
  5.235377E-02
  5.229124E-02
  5.222785E-02
  5.215592E-02
  5.208401E-02
  5.201212E-02
  5.194026E-02
  5.185773E-02
  5.177164E-02
  5.168557E-02
  5.159952E-02
  5.148994E-02
  5.136599E-02
  5.124204E-02
  5.111808E-02
  5.095227E-02
  5.076852E-02
  5.058476E-02
  5.040096E-02
  5.014760E-02
  4.989253E-02
  4.963749E-02
  4.934271E-02
  4.899690E-02
  4.865134E-02
  4.829841E-02
  4.785272E-02
  4.740770E-02
  4.696335E-02
  4.646198E-02
  4.595394E-02
  4.544696E-02
  4.493030E-02
  4.441290E-02
  4.389666E-02
  4.340248E-02
  4.291007E-02
  4.242845E-02
  4.198083E-02
  4.153394E-02
  4.112382E-02
  4.073564E-02
  4.035789E-02
  4.003454E-02
  3.971138E-02
  3.943946E-02
  3.917972E-02
  3.895335E-02
  3.875131E-02
  3.856842E-02
  3.840808E-02
  3.825661E-02
  3.811615E-02
  3.797960E-02
  3.784655E-02
  3.771615E-02
  3.758709E-02
  3.746400E-02
  3.734608E-02
  3.723719E-02
  3.714794E-02
  3.707628E-02
  3.703122E-02
  3.703630E-02
  3.709021E-02
  3.720920E-02
  3.741880E-02
  3.777556E-02
  3.840853E-02
  3.951503E-02
  4.143548E-02
  4.473142E-02
  5.052571E-02
  5.812021E-02
  6.192374E-02
  7.299521E-02
  4.000115E-02
  1.704313E-02
  1.775492E-01
  1.775172E-01
  1.774851E-01
  1.774530E-01
  1.774209E-01
  1.773888E-01
  1.773567E-01
  1.773246E-01
  1.772926E-01
  1.772019E-01
  1.771089E-01
  1.770158E-01
  1.769228E-01
  1.768297E-01
  1.767367E-01
  1.766436E-01
  1.765335E-01
  1.763876E-01
  1.762416E-01
  1.760957E-01
  1.759498E-01
  1.758038E-01
  1.756579E-01
  1.755080E-01
  1.753032E-01
  1.750984E-01
  1.748936E-01
  1.746888E-01
  1.744840E-01
  1.742792E-01
  1.740620E-01
  1.737858E-01
  1.735095E-01
  1.732333E-01
  1.729570E-01
  1.726808E-01
  1.724045E-01
  1.720797E-01
  1.717258E-01
  1.713719E-01
  1.710180E-01
  1.706641E-01
  1.703103E-01
  1.699264E-01
  1.694983E-01
  1.690702E-01
  1.686422E-01
  1.682141E-01
  1.677860E-01
  1.673254E-01
  1.668314E-01
  1.663374E-01
  1.658434E-01
  1.653494E-01
  1.648554E-01
  1.643111E-01
  1.637598E-01
  1.632086E-01
  1.626573E-01
  1.621061E-01
  1.615270E-01
  1.609246E-01
  1.603223E-01
  1.597200E-01
  1.591177E-01
  1.584878E-01
  1.578280E-01
  1.571697E-01
  1.565099E-01
  1.558500E-01
  1.551448E-01
  1.544167E-01
  1.536886E-01
  1.529605E-01
  1.522268E-01
  1.514384E-01
  1.506501E-01
  1.498617E-01
  1.490733E-01
  1.482505E-01
  1.474161E-01
  1.465817E-01
  1.457474E-01
  1.448872E-01
  1.440112E-01
  1.431353E-01
  1.422594E-01
  1.413714E-01
  1.404783E-01
  1.395852E-01
  1.386922E-01
  1.378229E-01
  1.369544E-01
  1.360861E-01
  1.352292E-01
  1.343872E-01
  1.335456E-01
  1.327034E-01
  1.318493E-01
  1.309962E-01
  1.301431E-01
  1.292589E-01
  1.283718E-01
  1.274863E-01
  1.265458E-01
  1.255971E-01
  1.246503E-01
  1.235799E-01
  1.225071E-01
  1.213938E-01
  1.201389E-01
  1.188858E-01
  1.175026E-01
  1.160425E-01
  1.145506E-01
  1.128797E-01
  1.112099E-01
  1.093768E-01
  1.075055E-01
  1.055351E-01
  1.034924E-01
  1.013931E-01
  9.922722E-02
  9.702919E-02
  9.479130E-02
  9.254087E-02
  9.027961E-02
  8.803519E-02
  8.579764E-02
  8.362928E-02
  8.150205E-02
  7.944884E-02
  7.751833E-02
  7.567874E-02
  7.396738E-02
  7.245002E-02
  7.108811E-02
  6.991271E-02
  6.897177E-02
  6.838821E-02
  6.849048E-02
  6.983905E-02
  7.342799E-02
  8.074575E-02
  9.416633E-02
  1.108371E-01
  1.154270E-01
  1.246322E-01
 -2.372227E-04
  1.653518E-07
  9.727805E-01
  9.726457E-01
  9.725110E-01
  9.723762E-01
  9.722414E-01
  9.721066E-01
  9.719719E-01
  9.718371E-01
  9.717023E-01
  9.713107E-01
  9.709084E-01
  9.705061E-01
  9.701038E-01
  9.697015E-01
  9.692992E-01
  9.688970E-01
  9.684166E-01
  9.677723E-01
  9.671280E-01
  9.664837E-01
  9.658394E-01
  9.651951E-01
  9.645508E-01
  9.638902E-01
  9.630017E-01