 Title= "ADflow Lift Distribution Data"
Variables = "eta" "CoordinateX" "CoordinateY" "CoordinateZ" "Lift" "Drag" "Moment" "Normalized Lift" "Normalized Drag" "Normalized Moment" "CL" "CD" "CM" "CLp" "CDp" "CMp" "CLv" "CDv" "CMv" "Elliptical" "thickness" "twist" "chord" "fx" "fy" "fz" 
Zone T= "LiftDist_01 allWalls: : z normal"
 I=          150
 DATAPACKING=BLOCK
  0.000000E+00
  6.711405E-03
  1.342281E-02
  2.013422E-02
  2.684563E-02
  3.355704E-02
  4.026845E-02
  4.697986E-02
  5.369127E-02
  6.040268E-02
  6.711409E-02
  7.382550E-02
  8.053691E-02
  8.724832E-02
  9.395973E-02
  1.006711E-01
  1.073825E-01
  1.140940E-01
  1.208054E-01
  1.275168E-01
  1.342282E-01
  1.409396E-01
  1.476510E-01
  1.543624E-01
  1.610738E-01
  1.677852E-01
  1.744966E-01
  1.812081E-01
  1.879195E-01
  1.946309E-01
  2.013423E-01
  2.080537E-01
  2.147651E-01
  2.214765E-01
  2.281879E-01
  2.348993E-01
  2.416107E-01
  2.483221E-01
  2.550336E-01
  2.617450E-01
  2.684564E-01
  2.751678E-01
  2.818792E-01
  2.885906E-01
  2.953020E-01
  3.020134E-01
  3.087248E-01
  3.154362E-01
  3.221476E-01
  3.288591E-01
  3.355705E-01
  3.422819E-01
  3.489933E-01
  3.557047E-01
  3.624161E-01
  3.691275E-01
  3.758389E-01
  3.825503E-01
  3.892617E-01
  3.959732E-01
  4.026846E-01
  4.093960E-01
  4.161074E-01
  4.228188E-01
  4.295302E-01
  4.362416E-01
  4.429530E-01
  4.496644E-01
  4.563758E-01
  4.630872E-01
  4.697987E-01
  4.765101E-01
  4.832215E-01
  4.899329E-01
  4.966443E-01
  5.033557E-01
  5.100671E-01
  5.167785E-01
  5.234899E-01
  5.302013E-01
  5.369128E-01
  5.436242E-01
  5.503356E-01
  5.570470E-01
  5.637584E-01
  5.704698E-01
  5.771812E-01
  5.838926E-01
  5.906040E-01
  5.973154E-01
  6.040268E-01
  6.107383E-01
  6.174497E-01
  6.241611E-01
  6.308725E-01
  6.375839E-01
  6.442953E-01
  6.510067E-01
  6.577181E-01
  6.644295E-01
  6.711409E-01
  6.778524E-01
  6.845638E-01
  6.912752E-01
  6.979866E-01
  7.046980E-01
  7.114094E-01
  7.181208E-01
  7.248322E-01
  7.315436E-01
  7.382550E-01
  7.449664E-01
  7.516779E-01
  7.583893E-01
  7.651007E-01
  7.718121E-01
  7.785235E-01
  7.852349E-01
  7.919463E-01
  7.986577E-01
  8.053691E-01
  8.120805E-01
  8.187919E-01
  8.255034E-01
  8.322148E-01
  8.389262E-01
  8.456376E-01
  8.523490E-01
  8.590604E-01
  8.657718E-01
  8.724832E-01
  8.791946E-01
  8.859060E-01
  8.926175E-01
  8.993289E-01
  9.060403E-01
  9.127517E-01
  9.194631E-01
  9.261745E-01
  9.328859E-01
  9.395973E-01
  9.463087E-01
  9.530201E-01
  9.597315E-01
  9.664430E-01
  9.731544E-01
  9.798658E-01
  9.865772E-01
  9.932886E-01
  1.000000E+00
  0.000000E+00
  0.000000E+00
  0.000000E+00
  0.000000E+00
  0.000000E+00
  0.000000E+00
  0.000000E+00
  0.000000E+00
  0.000000E+00
  0.000000E+00
  0.000000E+00
  0.000000E+00
  0.000000E+00
  0.000000E+00
  0.000000E+00
  0.000000E+00
  0.000000E+00
  0.000000E+00
  0.000000E+00
  0.000000E+00
  0.000000E+00
  0.000000E+00
  0.000000E+00
  0.000000E+00
  0.000000E+00
  0.000000E+00
  0.000000E+00
  0.000000E+00
  0.000000E+00
  0.000000E+00
  0.000000E+00
  0.000000E+00
  0.000000E+00
  0.000000E+00
  0.000000E+00
  0.000000E+00
  0.000000E+00
  0.000000E+00
  0.000000E+00
  0.000000E+00
  0.000000E+00
  0.000000E+00
  0.000000E+00
  0.000000E+00
  0.000000E+00
  0.000000E+00
  0.000000E+00
  0.000000E+00
  0.000000E+00
  0.000000E+00
  0.000000E+00
  0.000000E+00
  0.000000E+00
  0.000000E+00
  0.000000E+00
  0.000000E+00
  0.000000E+00
  0.000000E+00
  0.000000E+00
  0.000000E+00
  0.000000E+00
  0.000000E+00
  0.000000E+00
  0.000000E+00
  0.000000E+00
  0.000000E+00
  0.000000E+00
  0.000000E+00
  0.000000E+00
  0.000000E+00
  0.000000E+00
  0.000000E+00
  0.000000E+00
  0.000000E+00
  0.000000E+00
  0.000000E+00
  0.000000E+00
  0.000000E+00
  0.000000E+00
  0.000000E+00
  0.000000E+00
  0.000000E+00
  0.000000E+00
  0.000000E+00
  0.000000E+00
  0.000000E+00
  0.000000E+00
  0.000000E+00
  0.000000E+00
  0.000000E+00
  0.000000E+00
  0.000000E+00
  0.000000E+00
  0.000000E+00
  0.000000E+00
  0.000000E+00
  0.000000E+00
  0.000000E+00
  0.000000E+00
  0.000000E+00
  0.000000E+00
  0.000000E+00
  0.000000E+00
  0.000000E+00
  0.000000E+00
  0.000000E+00
  0.000000E+00
  0.000000E+00
  0.000000E+00
  0.000000E+00
  0.000000E+00
  0.000000E+00
  0.000000E+00
  0.000000E+00
  0.000000E+00
  0.000000E+00
  0.000000E+00
  0.000000E+00
  0.000000E+00
  0.000000E+00
  0.000000E+00
  0.000000E+00
  0.000000E+00
  0.000000E+00
  0.000000E+00
  0.000000E+00
  0.000000E+00
  0.000000E+00
  0.000000E+00
  0.000000E+00
  0.000000E+00
  0.000000E+00
  0.000000E+00
  0.000000E+00
  0.000000E+00
  0.000000E+00
  0.000000E+00
  0.000000E+00
  0.000000E+00
  0.000000E+00
  0.000000E+00
  0.000000E+00
  0.000000E+00
  0.000000E+00
  0.000000E+00
  0.000000E+00
  0.000000E+00
  0.000000E+00
  0.000000E+00
  0.000000E+00
  0.000000E+00
  0.000000E+00
  0.000000E+00
  0.000000E+00
  0.000000E+00
  0.000000E+00
  0.000000E+00
  0.000000E+00
  0.000000E+00
  0.000000E+00
  0.000000E+00
  0.000000E+00
  0.000000E+00
  0.000000E+00
  0.000000E+00
  0.000000E+00
  0.000000E+00
  0.000000E+00
  0.000000E+00
  0.000000E+00
  0.000000E+00
  0.000000E+00
  0.000000E+00
  0.000000E+00
  0.000000E+00
  0.000000E+00
  0.000000E+00
  0.000000E+00
  0.000000E+00
  0.000000E+00
  0.000000E+00
  0.000000E+00
  0.000000E+00
  0.000000E+00
  0.000000E+00
  0.000000E+00
  0.000000E+00
  0.000000E+00
  0.000000E+00
  0.000000E+00
  0.000000E+00
  0.000000E+00
  0.000000E+00
  0.000000E+00
  0.000000E+00
  0.000000E+00
  0.000000E+00
  0.000000E+00
  0.000000E+00
  0.000000E+00
  0.000000E+00
  0.000000E+00
  0.000000E+00
  0.000000E+00
  0.000000E+00
  0.000000E+00
  0.000000E+00
  0.000000E+00
  0.000000E+00
  0.000000E+00
  0.000000E+00
  0.000000E+00
  0.000000E+00
  0.000000E+00
  0.000000E+00
  0.000000E+00
  0.000000E+00
  0.000000E+00
  0.000000E+00
  0.000000E+00
  0.000000E+00
  0.000000E+00
  0.000000E+00
  0.000000E+00
  0.000000E+00
  0.000000E+00
  0.000000E+00
  0.000000E+00
  0.000000E+00
  0.000000E+00
  0.000000E+00
  0.000000E+00
  0.000000E+00
  0.000000E+00
  0.000000E+00
  0.000000E+00
  0.000000E+00
  0.000000E+00
  0.000000E+00
  0.000000E+00
  0.000000E+00
  0.000000E+00
  0.000000E+00
  0.000000E+00
  0.000000E+00
  0.000000E+00
  0.000000E+00
  0.000000E+00
  0.000000E+00
  0.000000E+00
  0.000000E+00
  0.000000E+00
  0.000000E+00
  0.000000E+00
  0.000000E+00
  0.000000E+00
  0.000000E+00
  0.000000E+00
  0.000000E+00
  0.000000E+00
  0.000000E+00
  0.000000E+00
  0.000000E+00
  0.000000E+00
  0.000000E+00
  0.000000E+00
  0.000000E+00
  0.000000E+00
  0.000000E+00
  0.000000E+00
  0.000000E+00
  0.000000E+00
  0.000000E+00
  0.000000E+00
  0.000000E+00
  0.000000E+00
  0.000000E+00
  0.000000E+00
  0.000000E+00
  0.000000E+00
  0.000000E+00
  0.000000E+00
  0.000000E+00
  0.000000E+00
  0.000000E+00
  0.000000E+00
  0.000000E+00
  0.000000E+00
  0.000000E+00
  0.000000E+00
  0.000000E+00
  0.000000E+00
  0.000000E+00
  0.000000E+00
  0.000000E+00
  0.000000E+00
  0.000000E+00
  0.000000E+00
  0.000000E+00
  0.000000E+00
  1.000000E-08
  1.691809E-02
  3.383618E-02
  5.075427E-02
  6.767237E-02
  8.459046E-02
  1.015085E-01
  1.184266E-01
  1.353447E-01
  1.522628E-01
  1.691809E-01
  1.860990E-01
  2.030171E-01
  2.199352E-01
  2.368533E-01
  2.537714E-01
  2.706895E-01
  2.876076E-01
  3.045256E-01
  3.214437E-01
  3.383618E-01
  3.552799E-01
  3.721980E-01
  3.891161E-01
  4.060342E-01
  4.229523E-01
  4.398704E-01
  4.567885E-01
  4.737066E-01
  4.906247E-01
  5.075427E-01
  5.244608E-01
  5.413789E-01
  5.582970E-01
  5.752151E-01
  5.921332E-01
  6.090513E-01
  6.259694E-01
  6.428875E-01
  6.598056E-01
  6.767237E-01
  6.936418E-01
  7.105598E-01
  7.274779E-01
  7.443960E-01
  7.613141E-01
  7.782322E-01
  7.951503E-01
  8.120684E-01
  8.289865E-01
  8.459046E-01
  8.628227E-01
  8.797408E-01
  8.966589E-01
  9.135769E-01
  9.304950E-01
  9.474131E-01
  9.643312E-01
  9.812493E-01
  9.981674E-01
  1.015085E+00
  1.032004E+00
  1.048922E+00
  1.065840E+00
  1.082758E+00
  1.099676E+00
  1.116594E+00
  1.133512E+00
  1.150430E+00
  1.167348E+00
  1.184266E+00
  1.201185E+00
  1.218103E+00
  1.235021E+00
  1.251939E+00
  1.268857E+00
  1.285775E+00
  1.302693E+00
  1.319611E+00
  1.336529E+00
  1.353447E+00
  1.370365E+00
  1.387284E+00
  1.404202E+00
  1.421120E+00
  1.438038E+00
  1.454956E+00
  1.471874E+00
  1.488792E+00
  1.505710E+00
  1.522628E+00
  1.539546E+00
  1.556464E+00
  1.573383E+00
  1.590301E+00
  1.607219E+00
  1.624137E+00
  1.641055E+00
  1.657973E+00
  1.674891E+00
  1.691809E+00
  1.708727E+00
  1.725645E+00
  1.742563E+00
  1.759482E+00
  1.776400E+00
  1.793318E+00
  1.810236E+00
  1.827154E+00
  1.844072E+00
  1.860990E+00
  1.877908E+00
  1.894826E+00
  1.911744E+00
  1.928662E+00
  1.945581E+00
  1.962499E+00
  1.979417E+00
  1.996335E+00
  2.013253E+00
  2.030171E+00
  2.047089E+00
  2.064007E+00
  2.080925E+00
  2.097843E+00
  2.114761E+00
  2.131680E+00
  2.148598E+00
  2.165516E+00
  2.182434E+00
  2.199352E+00
  2.216270E+00
  2.233188E+00
  2.250106E+00
  2.267024E+00
  2.283942E+00
  2.300860E+00
  2.317779E+00
  2.334697E+00
  2.351615E+00
  2.368533E+00
  2.385451E+00
  2.402369E+00
  2.419287E+00
  2.436205E+00
  2.453123E+00
  2.470041E+00
  2.486959E+00
  2.503878E+00
  2.520796E+00
  1.096997E+04
  1.096843E+04
  1.096690E+04
  1.096537E+04
  1.096384E+04
  1.096230E+04
  1.096077E+04
  1.095924E+04
  1.095771E+04
  1.095327E+04
  1.094872E+04
  1.094416E+04
  1.093961E+04
  1.093505E+04
  1.093050E+04
  1.092594E+04
  1.092051E+04
  1.091323E+04
  1.090596E+04
  1.089868E+04
  1.089141E+04
  1.088413E+04
  1.087685E+04
  1.086939E+04
  1.085937E+04
  1.084934E+04
  1.083932E+04
  1.082929E+04
  1.081927E+04
  1.080924E+04
  1.079870E+04
  1.078572E+04
  1.077274E+04
  1.075976E+04
  1.074678E+04
  1.073380E+04
  1.072082E+04
  1.070595E+04
  1.068993E+04
  1.067391E+04
  1.065789E+04
  1.064188E+04
  1.062586E+04
  1.060864E+04
  1.058963E+04
  1.057063E+04
  1.055163E+04
  1.053262E+04
  1.051362E+04
  1.049311E+04
  1.047107E+04
  1.044903E+04
  1.042698E+04
  1.040494E+04
  1.038290E+04
  1.035804E+04
  1.033279E+04
  1.030754E+04
  1.028229E+04
  1.025704E+04
  1.022998E+04
  1.020142E+04
  1.017286E+04
  1.014429E+04
  1.011573E+04
  1.008543E+04
  1.005324E+04
  1.002105E+04
  9.988865E+03
  9.956678E+03
  9.921723E+03
  9.885377E+03
  9.849032E+03
  9.812687E+03
  9.775929E+03
  9.735117E+03
  9.694306E+03
  9.653496E+03
  9.612687E+03
  9.568490E+03
  9.523154E+03
  9.477820E+03
  9.432488E+03
  9.384366E+03
  9.334542E+03
  9.284721E+03
  9.234903E+03
  9.182275E+03
  9.128448E+03
  9.074624E+03
  9.020804E+03
  8.963853E+03
  8.906831E+03
  8.849815E+03
  8.791578E+03
  8.731770E+03
  8.671977E+03
  8.611992E+03
  8.549511E+03
  8.487059E+03
  8.424637E+03
  8.360140E+03
  8.295408E+03
  8.230723E+03
  8.163883E+03
  8.096707E+03
  8.029588E+03
  7.959092E+03
  7.888536E+03
  7.817036E+03
  7.742193E+03
  7.667406E+03
  7.589629E+03
  7.510089E+03
  7.429810E+03
  7.345310E+03
  7.260849E+03
  7.172356E+03
  7.082930E+03
  6.990727E+03
  6.896501E+03
  6.800141E+03
  6.701264E+03
  6.600381E+03
  6.497008E+03
  6.391399E+03
  6.283846E+03
  6.173550E+03
  6.062188E+03
  5.947386E+03
  5.831459E+03
  5.713509E+03
  5.593284E+03
  5.471623E+03
  5.348113E+03
  5.222109E+03
  5.094200E+03
  4.964181E+03
  4.831982E+03
  4.698168E+03
  4.567066E+03
  4.448357E+03
  4.357529E+03
  4.320918E+03
  4.399422E+03
  4.519605E+03
  4.266610E+03
  4.573437E+03
  1.300040E+03
  7.045990E-03
  5.971903E+02
  5.971557E+02
  5.971211E+02
  5.970864E+02
  5.970518E+02
  5.970172E+02
  5.969826E+02
  5.969480E+02
  5.969134E+02
  5.968671E+02
  5.968202E+02
  5.967734E+02
  5.967265E+02
  5.966797E+02
  5.966329E+02
  5.965861E+02
  5.965635E+02
  5.965920E+02
  5.966204E+02
  5.966488E+02
  5.966773E+02
  5.967058E+02
  5.967343E+02
  5.967671E+02
  5.968606E+02
  5.969541E+02
  5.970477E+02
  5.971413E+02
  5.972349E+02
  5.973286E+02
  5.974246E+02
  5.975319E+02
  5.976394E+02
  5.977468E+02
  5.978544E+02
  5.979620E+02
  5.980697E+02
  5.981776E+02
  5.982856E+02
  5.983938E+02
  5.985021E+02
  5.986105E+02
  5.987191E+02
  5.988233E+02
  5.989212E+02
  5.990193E+02
  5.991176E+02
  5.992160E+02
  5.993146E+02
  5.993676E+02
  5.993739E+02
  5.993803E+02
  5.993869E+02
  5.993937E+02
  5.994006E+02
  5.992278E+02
  5.990305E+02
  5.988334E+02
  5.986363E+02
  5.984394E+02
  5.981206E+02
  5.977007E+02
  5.972808E+02
  5.968611E+02
  5.964414E+02
  5.959341E+02
  5.953318E+02
  5.947295E+02
  5.941272E+02
  5.935251E+02
  5.928379E+02
  5.921080E+02
  5.913782E+02
  5.906485E+02
  5.899167E+02
  5.891637E+02
  5.884110E+02
  5.876585E+02
  5.869063E+02
  5.861144E+02
  5.853095E+02
  5.845051E+02
  5.837012E+02
  5.826778E+02
  5.815204E+02
  5.803633E+02
  5.792066E+02
  5.775930E+02
  5.757837E+02
  5.739743E+02
  5.721649E+02
  5.695616E+02
  5.669387E+02
  5.643161E+02
  5.612290E+02
  5.575452E+02
  5.538639E+02
  5.500936E+02
  5.452079E+02
  5.403298E+02
  5.354592E+02
  5.298498E+02
  5.241532E+02
  5.184690E+02
  5.125698E+02
  5.066444E+02
  5.007334E+02
  4.949465E+02
  4.891769E+02
  4.835022E+02
  4.781164E+02
  4.727407E+02
  4.677116E+02
  4.628901E+02
  4.581727E+02
  4.539895E+02
  4.498095E+02
  4.461444E+02
  4.426018E+02
  4.394063E+02
  4.364633E+02
  4.337441E+02
  4.312880E+02
  4.289761E+02
  4.268434E+02
  4.248300E+02
  4.229215E+02
  4.211501E+02
  4.194351E+02
  4.179290E+02
  4.165261E+02
  4.153066E+02
  4.143938E+02
  4.137288E+02
  4.134228E+02
  4.137369E+02
  4.146236E+02
  4.162521E+02
  4.188843E+02
  4.231069E+02
  4.302895E+02
  4.425707E+02
  4.636609E+02
  4.996845E+02
  5.629046E+02
  6.458788E+02
  6.890752E+02
  8.166154E+02
  3.589724E+02
  2.265731E-03
  2.005908E+03
  2.005551E+03
  2.005195E+03
  2.004838E+03
  2.004482E+03
  2.004125E+03
  2.003768E+03
  2.003412E+03
  2.003055E+03
  2.002055E+03
  2.001028E+03
  2.000001E+03
  1.998974E+03
  1.997947E+03
  1.996920E+03
  1.995893E+03
  1.994680E+03
  1.993079E+03
  1.991477E+03
  1.989876E+03
  1.988274E+03
  1.986673E+03
  1.985071E+03
  1.983428E+03
  1.981192E+03
  1.978956E+03
  1.976721E+03
  1.974485E+03
  1.972250E+03
  1.970014E+03
  1.967649E+03
  1.964665E+03
  1.961682E+03
  1.958698E+03
  1.955715E+03
  1.952732E+03
  1.949748E+03
  1.946285E+03
  1.942534E+03
  1.938783E+03
  1.935031E+03
  1.931280E+03
  1.927529E+03
  1.923510E+03
  1.919093E+03
  1.914677E+03
  1.910261E+03
  1.905845E+03
  1.901430E+03
  1.896754E+03
  1.891812E+03
  1.886870E+03
  1.881928E+03
  1.876986E+03
  1.872044E+03
  1.866721E+03
  1.861346E+03
  1.855970E+03
  1.850595E+03
  1.845220E+03
  1.839601E+03
  1.833782E+03
  1.827962E+03
  1.822142E+03
  1.816323E+03
  1.810174E+03
  1.803668E+03
  1.797162E+03
  1.790656E+03
  1.784150E+03
  1.776967E+03
  1.769442E+03
  1.761918E+03
  1.754393E+03
  1.746770E+03
  1.738171E+03
  1.729587E+03
  1.720989E+03
  1.712390E+03
  1.703090E+03
  1.693554E+03
  1.684018E+03
  1.674482E+03
  1.664451E+03
  1.654118E+03
  1.643786E+03
  1.633454E+03
  1.622893E+03
  1.612235E+03
  1.601577E+03
  1.590920E+03
  1.580632E+03
  1.570355E+03
  1.560080E+03
  1.550062E+03
  1.540378E+03
  1.530699E+03
  1.521044E+03
  1.511636E+03
  1.502239E+03
  1.492843E+03
  1.483512E+03
  1.474204E+03
  1.464916E+03
  1.455403E+03
  1.445871E+03
  1.436362E+03
  1.425854E+03
  1.415335E+03
  1.404436E+03
  1.392192E+03
  1.379972E+03
  1.366438E+03
  1.352130E+03
  1.337489E+03
  1.320965E+03
  1.304454E+03
  1.286151E+03
  1.267429E+03
  1.247555E+03
  1.226840E+03
  1.205404E+03
  1.183117E+03
  1.160337E+03
  1.136946E+03
  1.113207E+03
  1.089166E+03
  1.065001E+03
  1.040791E+03
  1.016909E+03
  9.933301E+02
  9.702958E+02
  9.483042E+02
  9.271256E+02
  9.071204E+02
  8.889608E+02
  8.723043E+02
  8.574549E+02
  8.448979E+02
  8.358694E+02
  8.338446E+02
  8.449584E+02
  8.801230E+02
  9.558702E+02
  1.099233E+03
  1.279940E+03
  1.330299E+03
  1.447046E+03
  1.889532E-01
  2.189996E-08
  1.231901E+00
  1.231729E+00
  1.231557E+00
  1.231385E+00
  1.231213E+00
  1.231041E+00
  1.230868E+00
  1.230696E+00
  1.230524E+00
  1.230026E+00
  1.229515E+00
  1.229003E+00
  1.228492E+00
  1.227980E+00
  1.227469E+00
  1.226957E+00
  1.226347E+00
  1.225530E+00
  1.224713E+00
  1.223896E+00
  1.223079E+00
  1.222262E+00
  1.221445E+00
  1.220607E+00
  1.219481E+00
  1.218355E+00
  1.217229E+00
  1.216104E+00
  1.214978E+00
  1.213852E+00
  1.212669E+00
  1.211211E+00
  1.209753E+00
  1.208296E+00
  1.206838E+00
  1.205380E+00
  1.203923E+00
  1.202252E+00
  1.200453E+00
  1.198655E+00
  1.196856E+00
  1.195057E+00
  1.193259E+00
  1.191324E+00
  1.189190E+00
  1.187056E+00
  1.184922E+00
  1.182788E+00
  1.180654E+00
  1.178352E+00
  1.175876E+00
  1.173401E+00
  1.170925E+00
  1.168450E+00
  1.165975E+00
  1.163183E+00
  1.160347E+00
  1.157512E+00
  1.154677E+00
  1.151841E+00
  1.148803E+00
  1.145595E+00
  1.142387E+00
  1.139180E+00
  1.135972E+00
  1.132570E+00
  1.128955E+00
  1.125340E+00
  1.121726E+00
  1.118111E+00
  1.114186E+00
  1.110104E+00
  1.106023E+00
  1.101941E+00
  1.097813E+00
  1.093230E+00
  1.088647E+00
  1.084064E+00
  1.079482E+00
  1.074518E+00
  1.069427E+00
  1.064336E+00
  1.059246E+00
  1.053842E+00
  1.048247E+00
  1.042652E+00
  1.037057E+00
  1.031148E+00
  1.025103E+00
  1.019058E+00
  1.013015E+00
  1.006619E+00
  1.000216E+00
  9.938130E-01
  9.872731E-01
  9.805569E-01
  9.738422E-01
  9.671061E-01
  9.600895E-01
  9.530764E-01
  9.460666E-01
  9.388237E-01
  9.315544E-01
  9.242905E-01
  9.167845E-01
  9.092407E-01
  9.017035E-01
  8.937869E-01
  8.858637E-01
  8.778344E-01
  8.694297E-01
  8.610313E-01
  8.522971E-01
  8.433650E-01
  8.343499E-01
  8.248607E-01
  8.153759E-01
  8.054384E-01
  7.953960E-01
  7.850418E-01
  7.744606E-01
  7.636396E-01
  7.525359E-01
  7.412069E-01
  7.295985E-01
  7.177388E-01
  7.056608E-01
  6.932749E-01
  6.807691E-01
  6.678771E-01
  6.548588E-01
  6.416133E-01
  6.281124E-01
  6.144502E-01
  6.005802E-01
  5.864303E-01
  5.720665E-01
  5.574657E-01
  5.426200E-01
  5.275930E-01
  5.128706E-01
  4.995399E-01
  4.893401E-01
  4.852287E-01
  4.940445E-01
  5.075408E-01
  4.791301E-01
  5.135860E-01
  1.459913E-01
  7.912478E-07
  1.087672E+00
  1.087609E+00
  1.087546E+00
  1.087483E+00
  1.087420E+00
  1.087357E+00
  1.087294E+00
  1.087231E+00
  1.087168E+00
  1.087084E+00
  1.086998E+00
  1.086913E+00
  1.086828E+00
  1.086742E+00
  1.086657E+00
  1.086572E+00
  1.086531E+00
  1.086583E+00
  1.086634E+00
  1.086686E+00
  1.086738E+00
  1.086790E+00
  1.086842E+00
  1.086902E+00
  1.087072E+00
  1.087242E+00
  1.087413E+00
  1.087583E+00
  1.087754E+00
  1.087924E+00
  1.088099E+00
  1.088295E+00
  1.088490E+00
  1.088686E+00
  1.088882E+00
  1.089078E+00
  1.089274E+00
  1.089470E+00
  1.089667E+00
  1.089864E+00
  1.090062E+00
  1.090259E+00
  1.090457E+00
  1.090647E+00
  1.090825E+00
  1.091004E+00
  1.091183E+00
  1.091362E+00
  1.091541E+00
  1.091638E+00
  1.091649E+00
  1.091661E+00
  1.091673E+00
  1.091685E+00
  1.091698E+00
  1.091383E+00
  1.091024E+00
  1.090665E+00
  1.090306E+00
  1.089947E+00
  1.089367E+00
  1.088602E+00
  1.087837E+00
  1.087073E+00
  1.086308E+00
  1.085384E+00
  1.084287E+00
  1.083190E+00
  1.082094E+00
  1.080997E+00
  1.079745E+00
  1.078416E+00
  1.077087E+00
  1.075758E+00
  1.074425E+00
  1.073053E+00
  1.071682E+00
  1.070312E+00
  1.068942E+00
  1.067500E+00
  1.066034E+00
  1.064569E+00
  1.063104E+00
  1.061240E+00
  1.059133E+00
  1.057025E+00
  1.054918E+00
  1.051979E+00
  1.048684E+00
  1.045389E+00
  1.042093E+00
  1.037352E+00
  1.032575E+00
  1.027798E+00
  1.022175E+00
  1.015466E+00
  1.008761E+00
  1.001894E+00
  9.929960E-01
  9.841114E-01
  9.752405E-01
  9.650241E-01
  9.546486E-01
  9.442959E-01
  9.335516E-01
  9.227597E-01
  9.119939E-01
  9.014541E-01
  8.909458E-01
  8.806104E-01
  8.708012E-01
  8.610103E-01
  8.518507E-01
  8.430692E-01
  8.344773E-01
  8.268584E-01
  8.192453E-01
  8.125700E-01
  8.061179E-01
  8.002979E-01
  7.949377E-01
  7.899852E-01
  7.855118E-01
  7.813011E-01
  7.774168E-01
  7.737498E-01
  7.702738E-01
  7.670475E-01
  7.639240E-01
  7.611808E-01
  7.586257E-01
  7.564045E-01
  7.547422E-01
  7.535309E-01
  7.529737E-01
  7.535457E-01
  7.551607E-01
  7.581266E-01
  7.629207E-01
  7.706114E-01
  7.836932E-01
  8.060612E-01
  8.444730E-01
  9.100834E-01
  1.025227E+00
  1.176349E+00
  1.255024E+00
  1.487315E+00
  6.538023E-01
  4.126612E-06
  1.243366E+00
  1.243145E+00
  1.242924E+00
  1.242703E+00
  1.242482E+00
  1.242261E+00
  1.242040E+00
  1.241819E+00
  1.241598E+00
  1.240978E+00
  1.240341E+00
  1.239705E+00
  1.239068E+00
  1.238431E+00
  1.237795E+00
  1.237158E+00
  1.236407E+00
  1.235414E+00
  1.234421E+00
  1.233428E+00
  1.232436E+00
  1.231443E+00
  1.230450E+00
  1.229432E+00
  1.228046E+00
  1.226660E+00
  1.225274E+00
  1.223889E+00
  1.222503E+00
  1.221117E+00
  1.219651E+00
  1.217802E+00
  1.215952E+00
  1.214103E+00
  1.212254E+00
  1.210405E+00
  1.208555E+00
  1.206408E+00
  1.204083E+00
  1.201758E+00
  1.199433E+00
  1.197108E+00
  1.194783E+00
  1.192291E+00
  1.189554E+00
  1.186816E+00
  1.184079E+00
  1.181342E+00
  1.178605E+00
  1.175706E+00
  1.172643E+00
  1.169580E+00
  1.166517E+00
  1.163453E+00
  1.160390E+00
  1.157091E+00
  1.153759E+00
  1.150427E+00
  1.147095E+00
  1.143763E+00
  1.140281E+00
  1.136673E+00
  1.133066E+00
  1.129458E+00
  1.125851E+00
  1.122040E+00
  1.118007E+00
  1.113975E+00
  1.109942E+00
  1.105909E+00
  1.101456E+00
  1.096792E+00
  1.092128E+00
  1.087464E+00
  1.082739E+00
  1.077409E+00
  1.072088E+00
  1.066758E+00
  1.061428E+00
  1.055664E+00
  1.049753E+00
  1.043842E+00
  1.037931E+00
  1.031713E+00
  1.025309E+00
  1.018904E+00
  1.012500E+00
  1.005953E+00
  9.993467E-01
  9.927406E-01
  9.861351E-01
  9.797578E-01
  9.733875E-01
  9.670185E-01
  9.608092E-01
  9.548064E-01
  9.488067E-01
  9.428220E-01
  9.369904E-01
  9.311657E-01
  9.253417E-01
  9.195576E-01
  9.137885E-01
  9.080308E-01
  9.021346E-01
  8.962260E-01
  8.903321E-01
  8.838183E-01
  8.772980E-01
  8.705424E-01
  8.629531E-01
  8.553783E-01
  8.469895E-01
  8.381203E-01
  8.290453E-01
  8.188025E-01
  8.085684E-01
  7.972232E-01
  7.856186E-01
  7.732995E-01
  7.604592E-01
  7.471719E-01
  7.333574E-01
  7.192373E-01
  7.047380E-01
  6.900234E-01
  6.751219E-01
  6.601432E-01
  6.451363E-01
  6.303332E-01
  6.157176E-01
  6.014398E-01
  5.878082E-01
  5.746806E-01
  5.622803E-01
  5.510241E-01
  5.406995E-01
  5.314951E-01
  5.237116E-01
  5.181153E-01
  5.168602E-01
  5.237491E-01
  5.455460E-01
  5.924981E-01
  6.813615E-01
  7.933731E-01
  8.245886E-01
  8.969545E-01
  1.171230E-04
  1.357473E-11
  9.713973E-01
  9.712616E-01
  9.711259E-01
  9.709902E-01
  9.708546E-01
  9.707189E-01
  9.705832E-01
  9.704475E-01
  9.703118E-01
  9.699192E-01
  9.695159E-01
  9.691126E-01
  9.687093E-01
  9.683060E-01
  9.679027E-01
  9.674994E-01
  9.670184E-01
  9.663742E-01
  9.657300E-01
  9.650857E-01
  9.644415E-01
  9.637973E-01
  9.631531E-01
  9.624927E-01
  9.616050E-01
  9.607174E-01
  9.598297E-01
  9.589421E-01
  9.580545E-01
  9.571669E-01
  9.562339E-01
  9.550846E-01
  9.539353E-01
  9.527861E-01
  9.516369E-01
  9.504877E-01
  9.493385E-01
  9.480211E-01
  9.466029E-01
  9.451847E-01
  9.437665E-01
  9.423484E-01
  9.409303E-01
  9.394052E-01
  9.377226E-01
  9.360399E-01
  9.343574E-01
  9.326748E-01
  9.309923E-01
  9.291767E-01
  9.272248E-01
  9.252729E-01
  9.233211E-01
  9.213693E-01
  9.194176E-01
  9.172159E-01
  9.149802E-01
  9.127445E-01
  9.105088E-01
  9.082732E-01
  9.058771E-01
  9.033478E-01
  9.008185E-01
  8.982893E-01
  8.957601E-01
  8.930770E-01
  8.902267E-01
  8.873764E-01
  8.845261E-01
  8.816759E-01
  8.785806E-01
  8.753622E-01
  8.721438E-01
  8.689255E-01
  8.656706E-01
  8.620567E-01
  8.584428E-01
  8.548290E-01
  8.512152E-01
  8.473015E-01
  8.432868E-01
  8.392723E-01
  8.352580E-01
  8.309965E-01
  8.265844E-01
  8.221725E-01
  8.177608E-01
  8.131004E-01
  8.083337E-01
  8.035674E-01
  7.988014E-01
  7.937584E-01
  7.887091E-01
  7.836603E-01
  7.785035E-01
  7.732078E-01
  7.679133E-01
  7.626018E-01
  7.570694E-01
  7.515395E-01
  7.460121E-01
  7.403005E-01
  7.345680E-01
  7.288393E-01
  7.229195E-01
  7.169697E-01
  7.110247E-01
  7.047804E-01
  6.985306E-01
  6.921969E-01
  6.855674E-01
  6.789426E-01
  6.720533E-01
  6.650081E-01
  6.578974E-01
  6.504135E-01
  6.429331E-01
  6.350964E-01
  6.271773E-01
  6.190127E-01
  6.106695E-01
  6.021377E-01
  5.933833E-01
  5.844515E-01
  5.752996E-01
  5.659498E-01
  5.564279E-01
  5.466632E-01
  5.368040E-01
  5.266402E-01
  5.163767E-01
  5.059337E-01
  4.952892E-01
  4.845172E-01
  4.735811E-01
  4.624239E-01
  4.510977E-01
  4.395842E-01
  4.278773E-01
  4.160270E-01
  4.044166E-01
  3.939033E-01
  3.858585E-01
  3.826142E-01
  3.895629E-01
  4.002016E-01
  3.777959E-01
  4.049603E-01
  1.408949E-01
  5.121477E-02
  5.288156E-02
  5.287850E-02
  5.287544E-02
  5.287237E-02
  5.286931E-02
  5.286625E-02
  5.286318E-02
  5.286012E-02
  5.285706E-02
  5.285295E-02
  5.284881E-02
  5.284466E-02
  5.284052E-02
  5.283638E-02
  5.283223E-02
  5.282809E-02
  5.282610E-02
  5.282862E-02
  5.283114E-02
  5.283367E-02
  5.283619E-02
  5.283872E-02
  5.284124E-02
  5.284416E-02
  5.285244E-02
  5.286073E-02
  5.286902E-02
  5.287732E-02
  5.288561E-02
  5.289391E-02
  5.290243E-02
  5.291194E-02
  5.292146E-02
  5.293098E-02
  5.294052E-02
  5.295005E-02
  5.295960E-02
  5.296916E-02
  5.297874E-02
  5.298833E-02
  5.299793E-02
  5.300754E-02
  5.301716E-02
  5.302640E-02
  5.303508E-02
  5.304378E-02
  5.305249E-02
  5.306121E-02
  5.306995E-02
  5.307465E-02
  5.307521E-02
  5.307579E-02
  5.307638E-02
  5.307699E-02
  5.307761E-02
  5.306231E-02
  5.304485E-02
  5.302739E-02
  5.300994E-02
  5.299251E-02
  5.296429E-02
  5.292710E-02
  5.288993E-02
  5.285276E-02
  5.281560E-02
  5.277068E-02
  5.271734E-02
  5.266401E-02
  5.261069E-02
  5.255737E-02
  5.249652E-02
  5.243189E-02
  5.236726E-02
  5.230265E-02
  5.223785E-02
  5.217118E-02
  5.210452E-02
  5.203789E-02
  5.197128E-02
  5.190115E-02
  5.182987E-02
  5.175863E-02
  5.168743E-02
  5.159679E-02
  5.149430E-02
  5.139182E-02
  5.128938E-02
  5.114648E-02
  5.098625E-02
  5.082602E-02
  5.066579E-02
  5.043527E-02
  5.020301E-02
  4.997078E-02
  4.969742E-02
  4.937124E-02
  4.904527E-02
  4.871142E-02
  4.827881E-02
  4.784687E-02
  4.741557E-02
  4.691884E-02
  4.641437E-02
  4.591098E-02
  4.538854E-02
  4.486376E-02
  4.434024E-02
  4.382769E-02
  4.331666E-02
  4.281402E-02
  4.233697E-02
  4.186081E-02
  4.141535E-02
  4.098828E-02
  4.057043E-02
  4.019992E-02
  3.982970E-02
  3.950511E-02
  3.919138E-02
  3.890842E-02
  3.864784E-02
  3.840710E-02
  3.818967E-02
  3.798504E-02
  3.779629E-02
  3.761813E-02
  3.744925E-02
  3.729253E-02
  3.714079E-02
  3.700756E-02
  3.688346E-02
  3.677558E-02
  3.669486E-02
  3.663606E-02
  3.660903E-02
  3.663689E-02
  3.671544E-02
  3.685962E-02
  3.709266E-02
  3.746649E-02
  3.810241E-02
  3.918976E-02
  4.105709E-02
  4.424671E-02
  4.984445E-02
  5.719122E-02
  6.101561E-02
  7.230815E-02
  3.890449E-02
  1.646878E-02
  1.776244E-01
  1.775928E-01
  1.775612E-01
  1.775297E-01
  1.774981E-01
  1.774665E-01
  1.774349E-01
  1.774034E-01
  1.773718E-01
  1.772832E-01
  1.771923E-01
  1.771014E-01
  1.770104E-01
  1.769195E-01
  1.768286E-01
  1.767376E-01
  1.766303E-01
  1.764885E-01
  1.763467E-01
  1.762049E-01
  1.760631E-01
  1.759213E-01
  1.757795E-01
  1.756339E-01
  1.754360E-01
  1.752381E-01
  1.750401E-01
  1.748422E-01
  1.746442E-01
  1.744463E-01
  1.742369E-01
  1.739727E-01
  1.737085E-01
  1.734444E-01
  1.731802E-01
  1.729161E-01
  1.726519E-01
  1.723453E-01
  1.720131E-01
  1.716810E-01
  1.713489E-01
  1.710167E-01
  1.706846E-01
  1.703287E-01
  1.699377E-01
  1.695466E-01
  1.691556E-01
  1.687646E-01
  1.683736E-01
  1.679596E-01
  1.675220E-01
  1.670844E-01
  1.666468E-01
  1.662092E-01
  1.657717E-01
  1.653003E-01
  1.648243E-01
  1.643483E-01
  1.638723E-01
  1.633964E-01
  1.628989E-01
  1.623835E-01
  1.618682E-01
  1.613529E-01
  1.608375E-01
  1.602931E-01
  1.597170E-01
  1.591409E-01
  1.585648E-01
  1.579887E-01
  1.573526E-01
  1.566863E-01
  1.560200E-01
  1.553537E-01
  1.546786E-01
  1.539172E-01
  1.531571E-01
  1.523957E-01
  1.516343E-01
  1.508107E-01
  1.499662E-01
  1.491218E-01
  1.482774E-01
  1.473891E-01
  1.464741E-01
  1.455591E-01
  1.446442E-01
  1.437089E-01
  1.427651E-01
  1.418213E-01
  1.408776E-01
  1.399666E-01
  1.390565E-01
  1.381467E-01
  1.372597E-01
  1.364022E-01
  1.355451E-01
  1.346902E-01
  1.338572E-01
  1.330251E-01
  1.321931E-01
  1.313667E-01
  1.305425E-01
  1.297198E-01
  1.288773E-01
  1.280330E-01
  1.271907E-01
  1.262599E-01
  1.253280E-01
  1.243625E-01
  1.232779E-01
  1.221954E-01
  1.209966E-01
  1.197292E-01
  1.184324E-01
  1.169689E-01
  1.155067E-01
  1.138858E-01
  1.122280E-01
  1.104681E-01
  1.086339E-01
  1.067359E-01
  1.047626E-01
  1.027457E-01
  1.006747E-01
  9.857295E-02
  9.644452E-02
  9.430507E-02
  9.216157E-02
  9.004719E-02
  8.795955E-02
  8.592013E-02
  8.397300E-02
  8.209781E-02
  8.032648E-02
  7.871853E-02
  7.724362E-02
  7.592866E-02
  7.481663E-02
  7.401699E-02
  7.383746E-02
  7.482130E-02
  7.793475E-02
  8.464163E-02
  9.733557E-02
  1.133360E-01
  1.177941E-01
  1.281304E-01
  2.047825E-05
  1.591829E-07
  9.715874E-01
  9.714517E-01
  9.713161E-01
  9.711804E-01
  9.710447E-01
  9.709090E-01
  9.707734E-01
  9.706377E-01
  9.705020E-01
  9.701094E-01
  9.697061E-01
  9.693029E-01
  9.688997E-01
  9.684964E-01
  9.680932E-01
  9.676899E-01
  9.672090E-01
  9.665649E-01
  9.659208E-01
  9.652767E-01
  9.646326E-01
  9.639885E-01
  9.633445E-01
  9.626841E-01
  9.617967E-01