 Title = "ADflow Slice Data"
Variables =  "CoordinateX"  "CoordinateY"  "CoordinateZ"  "XoC"  "YoC"  "ZoC" "VelocityX" "VelocityY" "VelocityZ" "CoefPressure" "Mach" 
Zone T= "Slice_0001 None Relative Regular z = 0.10000000"
 Nodes =          116  Elements=          112  ZONETYPE=FELINESEG
 DATAPACKING=POINT
  9.900000E-01  1.236724E-02  1.000000E-01  9.999933E-01  3.663752E-03  5.609705E-17  3.344544E-02 -2.612785E-02 -2.368704E-04 -8.351765E-03  0.000000E+00
  9.844789E-01  1.399361E-02  1.000000E-01  9.944139E-01  5.307285E-03 -1.402426E-17  2.209948E-02 -6.620013E-03 -2.161734E-04  3.709749E-02  0.000000E+00
  9.782622E-01  1.583167E-02  1.000000E-01  9.881316E-01  7.164749E-03  2.804853E-17  1.172524E-02 -3.426345E-03 -1.714058E-04  7.063571E-03  0.000000E+00
  9.712761E-01  1.791875E-02  1.000000E-01  9.810717E-01  9.273857E-03  0.000000E+00  7.531157E-03 -2.240021E-03 -1.376005E-04 -9.442497E-03  0.000000E+00
  9.634271E-01  2.022440E-02  1.000000E-01  9.731399E-01  1.160384E-02  9.816984E-17  6.970569E-03 -2.016922E-03 -1.218154E-04 -3.310042E-02  0.000000E+00
  9.546204E-01  2.273624E-02  1.000000E-01  9.642402E-01  1.414219E-02  4.207279E-17  8.115882E-03 -2.264145E-03 -1.187099E-04 -6.100975E-02  0.000000E+00
  9.447561E-01  2.543710E-02  1.000000E-01  9.542719E-01  1.687156E-02  5.609705E-17  9.914171E-03 -2.655613E-03 -1.218002E-04 -9.073009E-02  0.000000E+00
  9.337360E-01  2.833150E-02  1.000000E-01  9.431354E-01  1.979651E-02  4.207279E-17  1.189518E-02 -3.052101E-03 -1.272026E-04 -1.227418E-01  0.000000E+00
  9.214586E-01  3.141478E-02  1.000000E-01  9.307285E-01  2.291233E-02  5.609705E-17  1.391197E-02 -3.410427E-03 -1.333269E-04 -1.566092E-01  0.000000E+00
  9.078232E-01  3.468115E-02  1.000000E-01  9.169491E-01  2.621318E-02  4.207279E-17  1.592296E-02 -3.719055E-03 -1.395385E-04 -1.922450E-01  0.000000E+00
  8.927319E-01  3.812111E-02  1.000000E-01  9.016985E-01  2.968944E-02  5.609705E-17  1.786850E-02 -3.953131E-03 -1.453426E-04 -2.273840E-01  0.000000E+00
  8.760894E-01  4.169739E-02  1.000000E-01  8.848804E-01  3.330346E-02  5.609705E-17  1.964025E-02 -4.097418E-03 -1.502440E-04 -2.601810E-01  0.000000E+00
  8.578153E-01  4.539938E-02  1.000000E-01  8.664134E-01  3.704453E-02  5.188977E-16  2.115997E-02 -4.164919E-03 -1.540696E-04 -2.897042E-01  0.000000E+00
  8.378441E-01  4.921847E-02  1.000000E-01  8.462315E-01  4.090393E-02  5.188977E-16  2.243307E-02 -4.187728E-03 -1.569829E-04 -3.164715E-01  0.000000E+00
  8.161333E-01  5.317137E-02  1.000000E-01  8.242915E-01  4.489855E-02  2.804853E-17  2.355277E-02 -4.215234E-03 -1.591740E-04 -3.458863E-01  0.000000E+00
  7.926668E-01  5.729338E-02  1.000000E-01  8.005773E-01  4.906407E-02  5.609705E-17  2.470064E-02 -4.264274E-03 -1.608650E-04 -3.827618E-01  0.000000E+00
  7.674503E-01  6.156633E-02  1.000000E-01  7.750946E-01  5.338211E-02  8.414558E-17  2.604629E-02 -4.291841E-03 -1.622620E-04 -4.255098E-01  0.000000E+00
  7.405094E-01  6.587979E-02  1.000000E-01  7.478694E-01  5.774111E-02  4.908492E-16  2.760184E-02 -4.243997E-03 -1.632878E-04 -4.685364E-01  0.000000E+00
  7.119026E-01  7.010104E-02  1.000000E-01  7.189606E-01  6.200690E-02  4.207279E-17  2.921262E-02 -4.102296E-03 -1.636035E-04 -5.069959E-01  0.000000E+00
  6.817298E-01  7.412866E-02  1.000000E-01  6.884694E-01  6.607704E-02  2.804853E-17  3.068651E-02 -3.888435E-03 -1.629020E-04 -5.401489E-01  0.000000E+00
  6.501347E-01  7.791965E-02  1.000000E-01  6.565408E-01  6.990804E-02  8.414558E-17  3.192676E-02 -3.655271E-03 -1.610392E-04 -5.733106E-01  0.000000E+00
  6.173024E-01  8.149465E-02  1.000000E-01  6.233620E-01  7.352077E-02  5.609705E-17  3.302014E-02 -3.422623E-03 -1.582133E-04 -6.110176E-01  0.000000E+00
  5.834550E-01  8.482325E-02  1.000000E-01  5.891573E-01  7.688451E-02  9.816984E-17  3.415812E-02 -3.154001E-03 -1.548520E-04 -6.523055E-01  0.000000E+00
  5.488457E-01  8.780987E-02  1.000000E-01  5.541828E-01  7.990265E-02  8.414558E-17  3.545476E-02 -2.830907E-03 -1.511183E-04 -6.965615E-01  0.000000E+00
  5.137559E-01  9.038470E-02  1.000000E-01  5.187226E-01  8.250465E-02  1.402426E-16  3.693657E-02 -2.451076E-03 -1.469623E-04 -7.438543E-01  0.000000E+00
  4.784836E-01  9.247910E-02  1.000000E-01  4.830780E-01  8.462116E-02  8.414558E-17  3.860437E-02 -1.996497E-03 -1.423790E-04 -7.927162E-01  0.000000E+00
  4.433339E-01  9.403067E-02  1.000000E-01  4.475573E-01  8.618910E-02  8.414558E-17  4.044651E-02 -1.449705E-03 -1.373835E-04 -8.424894E-01  0.000000E+00
  4.086096E-01  9.499018E-02  1.000000E-01  4.124665E-01  8.715874E-02 -1.402426E-17  4.245921E-02 -8.063702E-04 -1.319257E-04 -8.956123E-01  0.000000E+00
  3.746012E-01  9.534357E-02  1.000000E-01  3.780992E-01  8.751587E-02  9.816984E-17  4.468811E-02 -5.185326E-05 -1.259266E-04 -9.554172E-01  0.000000E+00
  3.415766E-01  9.507918E-02  1.000000E-01  3.447260E-01  8.724869E-02  5.609705E-17  4.724298E-02  8.900657E-04 -1.194572E-04 -1.019632E+00  0.000000E+00
  3.097730E-01  9.414139E-02  1.000000E-01  3.125867E-01  8.630100E-02  4.207279E-17  5.015865E-02  2.112126E-03 -1.126148E-04 -1.081464E+00  0.000000E+00
  2.793901E-01  9.248660E-02  1.000000E-01  2.818832E-01  8.462874E-02  8.414558E-17  5.327604E-02  3.642783E-03 -1.053363E-04 -1.135415E+00  0.000000E+00
  2.505887E-01  9.012273E-02  1.000000E-01  2.527777E-01  8.223992E-02  4.768249E-16  5.631127E-02  5.442062E-03 -9.751407E-05 -1.178351E+00  0.000000E+00
  2.234888E-01  8.711157E-02  1.000000E-01  2.253919E-01  7.919698E-02  5.609705E-17  5.903659E-02  7.487515E-03 -8.929728E-05 -1.204994E+00  0.000000E+00
  1.981749E-01  8.350253E-02  1.000000E-01  1.998108E-01  7.554984E-02  4.207279E-17  6.125050E-02  9.714524E-03 -8.096318E-05 -1.211139E+00  0.000000E+00
  1.746916E-01  7.939567E-02  1.000000E-01  1.760796E-01  7.139964E-02  4.768249E-16  6.278071E-02  1.200643E-02 -7.277287E-05 -1.196081E+00  0.000000E+00
  1.530489E-01  7.489213E-02  1.000000E-01  1.542084E-01  6.684857E-02  5.329220E-16  6.354319E-02  1.422470E-02 -6.493533E-05 -1.163071E+00  0.000000E+00
  1.332206E-01  7.012632E-02  1.000000E-01  1.341709E-01  6.203246E-02  9.816984E-17  6.359012E-02  1.627950E-02 -5.758504E-05 -1.117692E+00  0.000000E+00
  1.151568E-01  6.520313E-02  1.000000E-01  1.159165E-01  5.705730E-02  4.207279E-17  6.307441E-02  1.814955E-02 -5.077870E-05 -1.065959E+00  0.000000E+00
  9.878428E-02  6.022571E-02  1.000000E-01  9.937109E-02  5.202735E-02  5.609705E-17  6.213684E-02  1.983562E-02 -4.444484E-05 -1.013176E+00  0.000000E+00
  8.401632E-02  5.527109E-02  1.000000E-01  8.444726E-02  4.702043E-02  5.609705E-17  6.091511E-02  2.147885E-02 -3.859307E-05 -9.547788E-01  0.000000E+00
  7.076936E-02  5.035835E-02  1.000000E-01  7.106048E-02  4.205584E-02  2.804853E-17  5.930191E-02  2.302307E-02 -3.317127E-05 -8.868884E-01  0.000000E+00
  5.893902E-02  4.554475E-02  1.000000E-01  5.910528E-02  3.719144E-02  9.816984E-17  5.708369E-02  2.429653E-02 -2.814208E-05 -8.059941E-01  0.000000E+00
  4.842597E-02  4.085765E-02  1.000000E-01  4.848126E-02  3.245486E-02 -1.402426E-17  5.410270E-02  2.508555E-02 -2.352154E-05 -7.129196E-01  0.000000E+00
  3.911374E-02  3.635735E-02  1.000000E-01  3.907075E-02  2.790706E-02  2.804853E-17  5.029399E-02  2.515721E-02 -1.924955E-05 -6.207773E-01  0.000000E+00
  3.088812E-02  3.208453E-02  1.000000E-01  3.075831E-02  2.358915E-02  2.804853E-17  4.574964E-02  2.445638E-02 -1.521752E-05 -5.478574E-01  0.000000E+00
  2.363417E-02  2.807710E-02  1.000000E-01  2.342780E-02  1.953942E-02  1.262184E-16  4.060632E-02  2.319325E-02 -1.143585E-05 -4.892637E-01  0.000000E+00
  1.726952E-02  2.431167E-02  1.000000E-01  1.699597E-02  1.573424E-02  4.207279E-17  3.469763E-02  2.173047E-02 -8.281827E-06 -3.928270E-01  0.000000E+00
  1.179184E-02  2.064677E-02  1.000000E-01  1.146047E-02  1.203066E-02  2.804853E-17  2.730433E-02  1.871912E-02 -5.786597E-06 -3.049042E-01  0.000000E+00
  7.008801E-03  1.726209E-02  1.000000E-01  6.626952E-03  8.610260E-03  1.121941E-16  1.842647E-02  1.407813E-02 -3.659884E-06 -2.393645E-01  0.000000E+00
  9.900000E-01  1.195332E-02  1.000000E-01  9.999933E-01  3.245459E-03  5.609705E-17  6.581036E-02  7.045408E-03  1.628118E-04  2.949168E-02  0.000000E+00
  9.900000E-01  1.199022E-02  1.000000E-01  9.999933E-01  3.282744E-03  8.414558E-17  4.431370E-02 -3.197599E-03  3.894373E-05 -1.443953E-01  0.000000E+00
  9.900000E-01  1.204607E-02  1.000000E-01  9.999933E-01  3.339187E-03  5.609705E-17  3.918126E-03 -5.333645E-02 -1.130686E-04 -9.590523E-02  0.000000E+00
  9.900000E-01  1.211969E-02  1.000000E-01  9.999933E-01  3.413589E-03  5.609705E-17 -1.271641E-02 -4.554022E-02 -2.174607E-04 -4.250099E-02  0.000000E+00
  9.900000E-01  1.220087E-02  1.000000E-01  9.999933E-01  3.495622E-03  8.414558E-17 -8.039423E-03 -4.535346E-03 -2.310591E-04 -5.584347E-02  0.000000E+00
  9.900000E-01  1.227450E-02  1.000000E-01  9.999933E-01  3.570025E-03  8.414558E-17  6.381370E-03 -1.896414E-03 -1.918098E-04 -8.550210E-02  0.000000E+00
  9.900000E-01  1.233035E-02  1.000000E-01  9.999933E-01  3.626467E-03  5.609705E-17  2.688905E-02 -2.884472E-02 -2.040526E-04 -1.007737E-01  0.000000E+00
  9.900000E-01  1.236724E-02  1.000000E-01  9.999933E-01  3.663752E-03  8.414558E-17  3.344544E-02 -2.612785E-02 -2.368704E-04 -8.351765E-03  0.000000E+00
  7.008801E-03  5.960753E-03  1.000000E-01  6.626952E-03 -2.810357E-03  9.816984E-17  2.045467E-02 -4.415087E-03  2.712544E-05  6.029393E-01  0.000000E+00
  1.236474E-02  4.899544E-03  1.000000E-01  1.203942E-02 -3.882767E-03  0.000000E+00  2.220823E-02 -3.275599E-03  3.054897E-05  6.172429E-01  0.000000E+00
  1.851796E-02  4.239094E-03  1.000000E-01  1.825759E-02 -4.550187E-03  1.262184E-16  2.450152E-02 -2.125813E-03  3.335317E-05  4.900822E-01  0.000000E+00
  2.549652E-02  3.788204E-03  1.000000E-01  2.530980E-02 -5.005837E-03  7.012132E-17  2.630782E-02 -1.215956E-03  3.693428E-05  4.279817E-01  0.000000E+00
  3.337042E-02  3.559743E-03  1.000000E-01  3.326680E-02 -5.236709E-03 -9.816984E-17  2.768128E-02 -5.174397E-04  4.039706E-05  4.037315E-01  0.000000E+00
  4.221327E-02  3.477146E-03  1.000000E-01  4.220299E-02 -5.320178E-03  5.609705E-17  2.859323E-02 -5.384987E-05  4.319176E-05  3.857425E-01  0.000000E+00
  5.211509E-02  3.526414E-03  1.000000E-01  5.220932E-02 -5.270389E-03 -5.609705E-17  2.904292E-02  2.834652E-04  4.541234E-05  3.660859E-01  0.000000E+00
  6.316987E-02  3.685357E-03  1.000000E-01  6.338078E-02 -5.109769E-03  2.804853E-17  2.922884E-02  4.848178E-04  4.739167E-05  3.514001E-01  0.000000E+00
  7.547353E-02  3.913882E-03  1.000000E-01  7.581430E-02 -4.878832E-03  1.262184E-16  2.929474E-02  5.979370E-04  4.929226E-05  3.388899E-01  0.000000E+00
  8.912494E-02  4.213955E-03  1.000000E-01  8.960979E-02 -4.575592E-03  0.000000E+00  2.926536E-02  6.867660E-04  5.118551E-05  3.253150E-01  0.000000E+00
  1.042203E-01  4.587549E-03  1.000000E-01  1.048645E-01 -4.198055E-03  5.609705E-17  2.913679E-02  7.676284E-04  5.312728E-05  3.121238E-01  0.000000E+00
  1.208505E-01  5.049252E-03  1.000000E-01  1.216702E-01 -3.731479E-03  9.816984E-17  2.891553E-02  8.332984E-04  5.514277E-05  3.008181E-01  0.000000E+00
  1.390959E-01  5.591254E-03  1.000000E-01  1.401082E-01 -3.183756E-03  5.188977E-16  2.862571E-02  8.725347E-04  5.723994E-05  2.917578E-01  0.000000E+00
  1.590234E-01  6.210116E-03  1.000000E-01  1.602460E-01 -2.558362E-03  4.908492E-16  2.829386E-02  8.936293E-04  5.941315E-05  2.835761E-01  0.000000E+00
  1.806810E-01  6.901739E-03  1.000000E-01  1.821322E-01 -1.859440E-03  8.414558E-17  2.798066E-02  8.880656E-04  6.169259E-05  2.765405E-01  0.000000E+00
  2.040935E-01  7.636005E-03  1.000000E-01  2.057918E-01 -1.117424E-03  2.804853E-17  2.776459E-02  8.501938E-04  6.411677E-05  2.702542E-01  0.000000E+00
  2.292572E-01  8.383001E-03  1.000000E-01  2.312211E-01 -3.625432E-04  1.262184E-16  2.771225E-02  7.822830E-04  6.673023E-05  2.633074E-01  0.000000E+00
  2.561364E-01  9.097803E-03  1.000000E-01  2.583840E-01  3.598032E-04  5.469463E-16  2.784919E-02  6.884572E-04  6.958200E-05  2.546534E-01  0.000000E+00
  2.846592E-01  9.744409E-03  1.000000E-01  2.872078E-01  1.013234E-03  5.609705E-17  2.810557E-02  6.033417E-04  7.265648E-05  2.426928E-01  0.000000E+00
  3.147147E-01  1.034759E-02  1.000000E-01  3.175806E-01  1.622782E-03  9.816984E-17  2.830804E-02  5.922663E-04  7.583936E-05  2.268487E-01  0.000000E+00
  3.461514E-01  1.102526E-02  1.000000E-01  3.493491E-01  2.307608E-03  5.609705E-17  2.824357E-02  7.157579E-04  7.893685E-05  2.091529E-01  0.000000E+00
  3.787768E-01  1.196989E-02  1.000000E-01  3.823189E-01  3.262207E-03  5.609705E-17  2.778743E-02  9.648688E-04  8.178317E-05  1.950478E-01  0.000000E+00
  4.123613E-01  1.333036E-02  1.000000E-01  4.162578E-01  4.637032E-03  4.207279E-17  2.700983E-02  1.239798E-03  8.437147E-05  1.921002E-01  0.000000E+00
  4.466470E-01  1.508975E-02  1.000000E-01  4.509053E-01  6.414988E-03  8.414558E-17  2.607898E-02  1.458196E-03  8.672607E-05  1.996926E-01  0.000000E+00
  4.813557E-01  1.718543E-02  1.000000E-01  4.859804E-01  8.532792E-03  5.609705E-17  2.516222E-02  1.542929E-03  8.892487E-05  2.127313E-01  0.000000E+00
  5.162084E-01  1.936023E-02  1.000000E-01  5.212010E-01  1.073055E-02  5.609705E-17  2.442314E-02  1.391397E-03  9.121879E-05  2.367965E-01  0.000000E+00
  5.509355E-01  2.112545E-02  1.000000E-01  5.562947E-01  1.251440E-02  8.414558E-17  2.348030E-02  1.390861E-03  9.271502E-05  2.434322E-01  0.000000E+00
  5.851877E-01  2.344047E-02  1.000000E-01  5.909083E-01  1.485385E-02  5.609705E-17  2.208991E-02  1.587750E-03  9.328233E-05  2.414898E-01  0.000000E+00
  6.187009E-01  2.601826E-02  1.000000E-01  6.247752E-01  1.745885E-02  8.414558E-17  2.058110E-02  1.568275E-03  9.372505E-05  2.697884E-01  0.000000E+00
  6.512484E-01  2.846168E-02  1.000000E-01  6.576663E-01  1.992806E-02  0.000000E+00  1.903602E-02  1.407058E-03  9.356399E-05  3.050810E-01  0.000000E+00
  6.826050E-01  3.072275E-02  1.000000E-01  6.893538E-01  2.221299E-02  5.609705E-17  1.743694E-02  1.219912E-03  9.255861E-05  3.318847E-01  0.000000E+00
  7.125788E-01  3.274104E-02  1.000000E-01  7.196440E-01  2.425259E-02  9.816984E-17  1.585816E-02  1.021417E-03  9.100421E-05  3.560129E-01  0.000000E+00
  7.410206E-01  3.447537E-02  1.000000E-01  7.483860E-01  2.600522E-02  4.768249E-16  1.447956E-02  7.893273E-04  8.937861E-05  3.823985E-01  0.000000E+00
  7.678340E-01  3.574288E-02  1.000000E-01  7.754824E-01  2.728611E-02  1.402426E-16  1.353002E-02  4.870984E-04  8.823912E-05  4.101270E-01  0.000000E+00
  7.929606E-01  3.634047E-02  1.000000E-01  8.008742E-01  2.789001E-02  5.609705E-17  1.315230E-02  1.108349E-04  8.793986E-05  4.322435E-01  0.000000E+00
  8.163626E-01  3.616788E-02  1.000000E-01  8.245232E-01  2.771559E-02  8.414558E-17  1.337031E-02 -3.347652E-04  8.864797E-05  4.442945E-01  0.000000E+00
  8.380221E-01  3.524955E-02  1.000000E-01  8.464113E-01  2.678758E-02  5.469463E-16  1.411105E-02 -8.273701E-04  9.035355E-05  4.447826E-01  0.000000E+00
  8.579484E-01  3.377288E-02  1.000000E-01  8.665480E-01  2.529532E-02  5.188977E-16  1.524294E-02 -1.343967E-03  9.288424E-05  4.356768E-01  0.000000E+00
  8.761825E-01  3.192552E-02  1.000000E-01  8.849745E-01  2.342846E-02  5.609705E-17  1.661264E-02 -1.876446E-03  9.590965E-05  4.214030E-01  0.000000E+00
  8.927902E-01  2.986878E-02  1.000000E-01  9.017575E-01  2.135001E-02  8.414558E-17  1.806026E-02 -2.404428E-03  9.898067E-05  4.042118E-01  0.000000E+00
  9.078551E-01  2.773030E-02  1.000000E-01  9.169814E-01  1.918896E-02  2.804853E-17  1.943917E-02 -2.887593E-03  1.016943E-04  3.848013E-01  0.000000E+00
  9.214730E-01  2.562028E-02  1.000000E-01  9.307430E-01  1.705667E-02  9.816984E-17  2.064935E-02 -3.295577E-03  1.037950E-04  3.643157E-01  0.000000E+00
  9.337443E-01  2.360544E-02  1.000000E-01  9.431438E-01  1.502057E-02  5.609705E-17  2.169268E-02 -3.659569E-03  1.052515E-04  3.449875E-01  0.000000E+00
  9.447684E-01  2.169638E-02  1.000000E-01  9.542843E-01  1.309136E-02  5.609705E-17  2.273169E-02 -4.080801E-03  1.064139E-04  3.275650E-01  0.000000E+00
  9.546409E-01  1.986288E-02  1.000000E-01  9.642610E-01  1.123850E-02  1.262184E-16  2.418566E-02 -4.704708E-03  1.085528E-04  3.100696E-01  0.000000E+00
  9.634551E-01  1.807486E-02  1.000000E-01  9.731682E-01  9.431612E-03  5.609705E-17  2.693641E-02 -5.701838E-03  1.148923E-04  2.875371E-01  0.000000E+00
  9.713058E-01  1.635053E-02  1.000000E-01  9.811018E-01  7.689085E-03  5.609705E-17  3.255474E-02 -7.338832E-03  1.312053E-04  2.535154E-01  0.000000E+00
  9.782892E-01  1.474139E-02  1.000000E-01  9.881589E-01  6.062959E-03  4.207279E-17  4.273475E-02 -1.009742E-02  1.616550E-04  2.091849E-01  0.000000E+00
  9.844933E-01  1.326988E-02  1.000000E-01  9.944284E-01  4.575920E-03  5.609705E-17  5.630696E-02 -1.328198E-02  1.925441E-04  1.807415E-01  0.000000E+00
  9.900000E-01  1.195332E-02  1.000000E-01  9.999933E-01  3.245459E-03  8.414558E-17  6.581036E-02  7.045408E-03  1.628118E-04  2.949168E-02  0.000000E+00
  7.008801E-03  1.726209E-02  1.000000E-01  6.626952E-03  8.610260E-03  9.816984E-17  1.842647E-02  1.407813E-02 -3.659884E-06 -2.393645E-01  0.000000E+00
  5.701244E-03  1.612007E-02  1.000000E-01  5.305594E-03  7.456191E-03  5.609705E-17  1.149744E-02  9.693226E-03 -1.131024E-06 -2.722982E-01  0.000000E+00
  3.721537E-03  1.439049E-02  1.000000E-01  3.304992E-03  5.708354E-03  8.414558E-17  1.231391E-02  1.120678E-02  3.072085E-06 -4.809968E-01  0.000000E+00
  1.120163E-03  1.210355E-02  1.000000E-01  6.761615E-04  3.397274E-03  9.816984E-17  1.015514E-02  1.886599E-02  1.019038E-05  1.020876E-01  0.000000E+00
  4.510637E-04  8.741758E-03  1.000000E-01  0.000000E+00  0.000000E+00  0.000000E+00  5.160488E-03  1.019038E-02  1.755800E-05  1.071936E+00  0.000000E+00
  3.160124E-03  7.221386E-03  1.000000E-01  2.737653E-03 -1.536419E-03  4.207279E-17  1.203354E-02 -5.251584E-03  2.108024E-05  1.025187E+00  0.000000E+00
  5.423594E-03  6.315848E-03  1.000000E-01  5.025013E-03 -2.451515E-03 -1.402426E-17  1.933107E-02 -6.378075E-03  2.324758E-05  6.148955E-01  0.000000E+00
  7.008801E-03  5.960753E-03  1.000000E-01  6.626952E-03 -2.810357E-03  1.121941E-16  2.045467E-02 -4.415087E-03  2.712544E-05  6.029393E-01  0.000000E+00
    1    2
    2    3
    3    4
    4    5
    5    6
    6    7
    7    8
    8    9
    9   10
   10   11
   11   12
   12   13
   13   14
   14   15
   15   16
   16   17
   17   18
   18   19
   19   20
   20   21
   21   22
   22   23
   23   24
   24   25
   25   26
   26   27
   27   28
   28   29
   29   30
   30   31
   31   32
   32   33
   33   34
   34   35
   35   36
   36   37
   37   38
   38   39
   39   40
   40   41
   41   42
   42   43
   43   44
   44   45
   45   46
   46   47
   47   48
   48   49
   49   50
   51   52
   52   53
   53   54
   54   55
   55   56
   56   57
   57   58
   59   60
   60   61
   61   62
   62   63
   63   64
   64   65
   65   66
   66   67
   67   68
   68   69
   69   70
   70   71
   71   72
   72   73
   73   74
   74   75
   75   76
   76   77
   77   78
   78   79
   79   80
   80   81
   81   82
   82   83
   83   84
   84   85
   85   86
   86   87
   87   88
   88   89
   89   90
   90   91
   91   92
   92   93
   93   94
   94   95
   95   96
   96   97
   97   98
   98   99
   99  100
  100  101
  101  102
  102  103
  103  104
  104  105
  105  106
  106  107
  107  108
  109  110
  110  111
  111  112
  112  113
  113  114
  114  115
  115  116
Zone T= "Slice_0002 None Relative Regular z = 0.36666667"
 Nodes =          116  Elements=          112  ZONETYPE=FELINESEG
 DATAPACKING=POINT
  9.900000E-01  1.236322E-02  3.666667E-01  9.999933E-01  3.659685E-03  1.121941E-16  3.287312E-02 -2.587426E-02 -7.978326E-04 -8.091819E-03  0.000000E+00
  9.844789E-01  1.399064E-02  3.666667E-01  9.944139E-01  5.304279E-03  5.609705E-17  2.196652E-02 -6.583199E-03 -7.277694E-04  3.775813E-02  0.000000E+00
  9.782622E-01  1.582981E-02  3.666667E-01  9.881316E-01  7.162863E-03  1.682912E-16  1.180115E-02 -3.450141E-03 -5.792180E-04  7.709277E-03  0.000000E+00
  9.712761E-01  1.791806E-02  3.666667E-01  9.810718E-01  9.273151E-03  1.121941E-16  7.668528E-03 -2.281489E-03 -4.668051E-04 -8.841904E-03  0.000000E+00
  9.634271E-01  2.022485E-02  3.666667E-01  9.731399E-01  1.160429E-02  1.121941E-16  7.123665E-03 -2.061927E-03 -4.139722E-04 -3.251961E-02  0.000000E+00
  9.546204E-01  2.273774E-02  3.666667E-01  9.642403E-01  1.414370E-02  1.121941E-16  8.277561E-03 -2.309960E-03 -4.030657E-04 -6.039197E-02  0.000000E+00
  9.447561E-01  2.543950E-02  3.666667E-01  9.542719E-01  1.687398E-02  5.609705E-17  1.008561E-02 -2.702124E-03 -4.126630E-04 -9.002608E-02  0.000000E+00
  9.337360E-01  2.833460E-02  3.666667E-01  9.431355E-01  1.979964E-02  0.000000E+00  1.208117E-02 -3.100219E-03 -4.300024E-04 -1.219085E-01  0.000000E+00
  9.214586E-01  3.141833E-02  3.666667E-01  9.307285E-01  2.291591E-02  0.000000E+00  1.411873E-02 -3.461229E-03 -4.498146E-04 -1.556004E-01  0.000000E+00
  9.078232E-01  3.468485E-02  3.666667E-01  9.169491E-01  2.621691E-02  2.804853E-16  1.614928E-02 -3.771743E-03 -4.697334E-04 -1.910138E-01  0.000000E+00
  8.927319E-01  3.812462E-02  3.666667E-01  9.016986E-01  2.969299E-02  5.609705E-17  1.810469E-02 -4.004912E-03 -4.878739E-04 -2.258883E-01  0.000000E+00
  8.760894E-01  4.170036E-02  3.666667E-01  8.848804E-01  3.330647E-02  0.000000E+00  1.987746E-02 -4.146119E-03 -5.026382E-04 -2.583834E-01  0.000000E+00
  8.578153E-01  4.540146E-02  3.666667E-01  8.664134E-01  3.704663E-02  3.057289E-14  2.139417E-02 -4.209970E-03 -5.136018E-04 -2.875804E-01  0.000000E+00
  8.378441E-01  4.921936E-02  3.666667E-01  8.462315E-01  4.090483E-02  3.074119E-14  2.266312E-02 -4.229448E-03 -5.214003E-04 -3.140101E-01  0.000000E+00
  8.161333E-01  5.317087E-02  3.666667E-01  8.242915E-01  4.489804E-02  1.121941E-16  2.377853E-02 -4.254372E-03 -5.267150E-04 -3.430727E-01  0.000000E+00
  7.926668E-01  5.729142E-02  3.666667E-01  8.005773E-01  4.906209E-02  1.121941E-16  2.492274E-02 -4.301478E-03 -5.303297E-04 -3.795794E-01  0.000000E+00
  7.674503E-01  6.156301E-02  3.666667E-01  7.750946E-01  5.337877E-02  1.682912E-16  2.626623E-02 -4.327240E-03 -5.329968E-04 -4.219460E-01  0.000000E+00
  7.405094E-01  6.587545E-02  3.666667E-01  7.478694E-01  5.773672E-02  3.062899E-14  2.782133E-02 -4.277384E-03 -5.345816E-04 -4.645995E-01  0.000000E+00
  7.119026E-01  7.009623E-02  3.666667E-01  7.189606E-01  6.200205E-02  1.682912E-16  2.943319E-02 -4.133535E-03 -5.341079E-04 -5.027324E-01  0.000000E+00
  6.817298E-01  7.412414E-02  3.666667E-01  6.884694E-01  6.607247E-02  5.609705E-17  3.090974E-02 -3.917595E-03 -5.306503E-04 -5.356214E-01  0.000000E+00
  6.501347E-01  7.791606E-02  3.666667E-01  6.565409E-01  6.990442E-02  5.609705E-17  3.215467E-02 -3.682541E-03 -5.237139E-04 -5.685443E-01  0.000000E+00
  6.173024E-01  8.149213E-02  3.666667E-01  6.233620E-01  7.351823E-02  1.121941E-16  3.325512E-02 -3.448090E-03 -5.138520E-04 -6.059938E-01  0.000000E+00
  5.834550E-01  8.482161E-02  3.666667E-01  5.891573E-01  7.688285E-02  5.609705E-17  3.440311E-02 -3.177513E-03 -5.023770E-04 -6.470018E-01  0.000000E+00
  5.488457E-01  8.780890E-02  3.666667E-01  5.541828E-01  7.990167E-02  2.804853E-16  3.571341E-02 -2.852236E-03 -4.897844E-04 -6.909634E-01  0.000000E+00
  5.137559E-01  9.038419E-02  3.666667E-01  5.187226E-01  8.250414E-02  1.121941E-16  3.721271E-02 -2.469898E-03 -4.758883E-04 -7.379516E-01  0.000000E+00
  4.784836E-01  9.247887E-02  3.666667E-01  4.830780E-01  8.462093E-02  2.243882E-16  3.890085E-02 -2.012197E-03 -4.606374E-04 -7.865055E-01  0.000000E+00
  4.433339E-01  9.403059E-02  3.666667E-01  4.475573E-01  8.618903E-02  5.609705E-17  4.076440E-02 -1.461389E-03 -4.440505E-04 -8.359723E-01  0.000000E+00
  4.086096E-01  9.499016E-02  3.666667E-01  4.124665E-01  8.715873E-02  1.121941E-16  4.279816E-02 -8.130617E-04 -4.259477E-04 -8.887836E-01  0.000000E+00
  3.746012E-01  9.534357E-02  3.666667E-01  3.780992E-01  8.751587E-02  5.609705E-17  4.504769E-02 -5.253459E-05 -4.060705E-04 -9.482541E-01  0.000000E+00
  3.415766E-01  9.507918E-02  3.666667E-01  3.447260E-01  8.724869E-02  1.682912E-16  4.762346E-02  8.969334E-04 -3.846652E-04 -1.012110E+00  0.000000E+00
  3.097730E-01  9.414139E-02  3.666667E-01  3.125867E-01  8.630100E-02  2.243882E-16  5.055930E-02  2.128666E-03 -3.620830E-04 -1.073588E+00  0.000000E+00
  2.793901E-01  9.248660E-02  3.666667E-01  2.818832E-01  8.462874E-02  5.609705E-17  5.369307E-02  3.670952E-03 -3.381787E-04 -1.127226E+00  0.000000E+00
  2.505887E-01  9.012273E-02  3.666667E-01  2.527777E-01  8.223992E-02  3.057289E-14  5.673931E-02  5.483101E-03 -3.126826E-04 -1.169926E+00  0.000000E+00
  2.234888E-01  8.711157E-02  3.666667E-01  2.253919E-01  7.919698E-02  2.243882E-16  5.947322E-02  7.542654E-03 -2.861179E-04 -1.196438E+00  0.000000E+00
  1.981749E-01  8.350253E-02  3.666667E-01  1.998108E-01  7.554984E-02  1.121941E-16  6.169287E-02  9.784522E-03 -2.593565E-04 -1.202573E+00  0.000000E+00
  1.746916E-01  7.939567E-02  3.666667E-01  1.760796E-01  7.139964E-02  3.068509E-14  6.322468E-02  1.209127E-02 -2.331923E-04 -1.187613E+00  0.000000E+00
  1.530489E-01  7.489213E-02  3.666667E-01  1.542084E-01  6.684857E-02  3.074119E-14  6.398649E-02  1.432397E-02 -2.082540E-04 -1.154764E+00  0.000000E+00
  1.332206E-01  7.012632E-02  3.666667E-01  1.341709E-01  6.203246E-02  5.609705E-17  6.403072E-02  1.639241E-02 -1.849249E-04 -1.109550E+00  0.000000E+00
  1.151568E-01  6.520313E-02  3.666667E-01  1.159165E-01  5.705730E-02  2.243882E-16  6.351031E-02  1.827514E-02 -1.633449E-04 -1.057941E+00  0.000000E+00
  9.878428E-02  6.022571E-02  3.666667E-01  9.937110E-02  5.202735E-02  1.682912E-16  6.256611E-02  1.997283E-02 -1.432557E-04 -1.005225E+00  0.000000E+00
  8.401632E-02  5.527109E-02  3.666667E-01  8.444726E-02  4.702043E-02 -1.121941E-16  6.133611E-02  2.162748E-02 -1.246530E-04 -9.468509E-01  0.000000E+00
  7.076936E-02  5.035835E-02  3.666667E-01  7.106048E-02  4.205584E-02  5.609705E-17  5.971316E-02  2.318295E-02 -1.073633E-04 -8.789718E-01  0.000000E+00
  5.893902E-02  4.554475E-02  3.666667E-01  5.910528E-02  3.719144E-02  5.609705E-17  5.748451E-02  2.446739E-02 -9.127198E-05 -7.980812E-01  0.000000E+00
  4.842597E-02  4.085765E-02  3.666667E-01  4.848126E-02  3.245486E-02  1.121941E-16  5.449364E-02  2.526716E-02 -7.644400E-05 -7.049619E-01  0.000000E+00
  3.911374E-02  3.635735E-02  3.666667E-01  3.907075E-02  2.790706E-02  1.121941E-16  5.067697E-02  2.534920E-02 -6.271178E-05 -6.126631E-01  0.000000E+00
  3.088812E-02  3.208453E-02  3.666667E-01  3.075831E-02  2.358915E-02  2.243882E-16  4.612769E-02  2.465889E-02 -4.972212E-05 -5.394466E-01  0.000000E+00
  2.363417E-02  2.807710E-02  3.666667E-01  2.342780E-02  1.953942E-02  1.682912E-16  4.097963E-02  2.340678E-02 -3.746111E-05 -4.803992E-01  0.000000E+00
  1.726952E-02  2.431167E-02  3.666667E-01  1.699597E-02  1.573425E-02  3.365823E-16  3.505778E-02  2.195727E-02 -2.710394E-05 -3.831037E-01  0.000000E+00
  1.179184E-02  2.064677E-02  3.666667E-01  1.146047E-02  1.203066E-02  2.804853E-16  2.764252E-02  1.895146E-02 -1.895747E-05 -2.937730E-01  0.000000E+00
  7.008801E-03  1.726209E-02  3.666667E-01  6.626952E-03  8.610261E-03  1.121941E-16  1.874974E-02  1.433257E-02 -1.222936E-05 -2.269456E-01  0.000000E+00
  9.900000E-01  1.194879E-02  3.666667E-01  9.999933E-01  3.240884E-03  1.682912E-16  6.449691E-02  6.542160E-03  5.265230E-04  2.869761E-02  0.000000E+00
  9.900000E-01  1.198573E-02  3.666667E-01  9.999933E-01  3.278214E-03  1.121941E-16  4.450050E-02 -4.249813E-03  1.096650E-04 -1.430753E-01  0.000000E+00
  9.900000E-01  1.204165E-02  3.666667E-01  9.999933E-01  3.334725E-03  1.121941E-16  6.376723E-03 -5.390696E-02 -4.080019E-04 -9.432293E-02  0.000000E+00
  9.900000E-01  1.211537E-02  3.666667E-01  9.999933E-01  3.409218E-03  1.121941E-16 -1.052680E-02 -4.612180E-02 -7.598423E-04 -4.195922E-02  0.000000E+00
  9.900000E-01  1.219664E-02  3.666667E-01  9.999933E-01  3.491351E-03 -5.609705E-17 -7.262307E-03 -5.016828E-03 -7.949383E-04 -5.511878E-02  0.000000E+00
  9.900000E-01  1.227036E-02  3.666667E-01  9.999933E-01  3.565843E-03  0.000000E+00  6.249197E-03 -1.910348E-03 -6.544628E-04 -8.553171E-02  0.000000E+00
  9.900000E-01  1.232628E-02  3.666667E-01  9.999933E-01  3.622354E-03  2.243882E-16  2.622955E-02 -2.859760E-02 -6.909688E-04 -1.005555E-01  0.000000E+00
  9.900000E-01  1.236322E-02  3.666667E-01  9.999933E-01  3.659685E-03  1.682912E-16  3.287312E-02 -2.587426E-02 -7.978326E-04 -8.091819E-03  0.000000E+00
  7.008801E-03  5.960753E-03  3.666667E-01  6.626952E-03 -2.810357E-03  2.243882E-16  2.077344E-02 -4.482342E-03  8.758906E-05  5.967375E-01  0.000000E+00
  1.236474E-02  4.899544E-03  3.666667E-01  1.203942E-02 -3.882767E-03  1.121941E-16  2.256395E-02 -3.329126E-03  9.867317E-05  6.108752E-01  0.000000E+00
  1.851796E-02  4.239094E-03  3.666667E-01  1.825759E-02 -4.550187E-03  0.000000E+00  2.488747E-02 -2.158799E-03  1.077946E-04  4.840964E-01  0.000000E+00
  2.549652E-02  3.788204E-03  3.666667E-01  2.530980E-02 -5.005837E-03  1.121941E-16  2.670934E-02 -1.234706E-03  1.194623E-04  4.224225E-01  0.000000E+00
  3.337042E-02  3.559743E-03  3.666667E-01  3.326680E-02 -5.236709E-03  1.682912E-16  2.807890E-02 -5.251382E-04  1.307454E-04  3.985839E-01  0.000000E+00
  4.221327E-02  3.477146E-03  3.666667E-01  4.220299E-02 -5.320178E-03  1.121941E-16  2.897551E-02 -5.472417E-05  1.398563E-04  3.810190E-01  0.000000E+00
  5.211509E-02  3.526414E-03  3.666667E-01  5.220932E-02 -5.270389E-03  0.000000E+00  2.940735E-02  2.869363E-04  1.470839E-04  3.616942E-01  0.000000E+00
  6.316987E-02  3.685357E-03  3.666667E-01  6.338078E-02 -5.109769E-03  1.682912E-16  2.957864E-02  4.905532E-04  1.535135E-04  3.472741E-01  0.000000E+00