 Title= "ADflow Lift Distribution Data"
Variables = "eta" "CoordinateX" "CoordinateY" "CoordinateZ" "Lift" "Drag" "Moment" "Normalized Lift" "Normalized Drag" "Normalized Moment" "CL" "CD" "CM" "CLp" "CDp" "CMp" "CLv" "CDv" "CMv" "Elliptical" "thickness" "twist" "chord" "fx" "fy" "fz" 
Zone T= "LiftDist_01 allWalls: : z normal"
 I=          150
 DATAPACKING=BLOCK
  0.000000E+00
  6.711405E-03
  1.342281E-02
  2.013422E-02
  2.684563E-02
  3.355704E-02
  4.026845E-02
  4.697986E-02
  5.369127E-02
  6.040268E-02
  6.711409E-02
  7.382550E-02
  8.053691E-02
  8.724832E-02
  9.395973E-02
  1.006711E-01
  1.073825E-01
  1.140940E-01
  1.208054E-01
  1.275168E-01
  1.342282E-01
  1.409396E-01
  1.476510E-01
  1.543624E-01
  1.610738E-01
  1.677852E-01
  1.744966E-01
  1.812081E-01
  1.879195E-01
  1.946309E-01
  2.013423E-01
  2.080537E-01
  2.147651E-01
  2.214765E-01
  2.281879E-01
  2.348993E-01
  2.416107E-01
  2.483221E-01
  2.550336E-01
  2.617450E-01
  2.684564E-01
  2.751678E-01
  2.818792E-01
  2.885906E-01
  2.953020E-01
  3.020134E-01
  3.087248E-01
  3.154362E-01
  3.221476E-01
  3.288591E-01
  3.355705E-01
  3.422819E-01
  3.489933E-01
  3.557047E-01
  3.624161E-01
  3.691275E-01
  3.758389E-01
  3.825503E-01
  3.892617E-01
  3.959732E-01
  4.026846E-01
  4.093960E-01
  4.161074E-01
  4.228188E-01
  4.295302E-01
  4.362416E-01
  4.429530E-01
  4.496644E-01
  4.563758E-01
  4.630872E-01
  4.697987E-01
  4.765101E-01
  4.832215E-01
  4.899329E-01
  4.966443E-01
  5.033557E-01
  5.100671E-01
  5.167785E-01
  5.234899E-01
  5.302013E-01
  5.369128E-01
  5.436242E-01
  5.503356E-01
  5.570470E-01
  5.637584E-01
  5.704698E-01
  5.771812E-01
  5.838926E-01
  5.906040E-01
  5.973154E-01
  6.040268E-01
  6.107383E-01
  6.174497E-01
  6.241611E-01
  6.308725E-01
  6.375839E-01
  6.442953E-01
  6.510067E-01
  6.577181E-01
  6.644295E-01
  6.711409E-01
  6.778524E-01
  6.845638E-01
  6.912752E-01
  6.979866E-01
  7.046980E-01
  7.114094E-01
  7.181208E-01
  7.248322E-01
  7.315436E-01
  7.382550E-01
  7.449664E-01
  7.516779E-01
  7.583893E-01
  7.651007E-01
  7.718121E-01
  7.785235E-01
  7.852349E-01
  7.919463E-01
  7.986577E-01
  8.053691E-01
  8.120805E-01
  8.187919E-01
  8.255034E-01
  8.322148E-01
  8.389262E-01
  8.456376E-01
  8.523490E-01
  8.590604E-01
  8.657718E-01
  8.724832E-01
  8.791946E-01
  8.859060E-01
  8.926175E-01
  8.993289E-01
  9.060403E-01
  9.127517E-01
  9.194631E-01
  9.261745E-01
  9.328859E-01
  9.395973E-01
  9.463087E-01
  9.530201E-01
  9.597315E-01
  9.664430E-01
  9.731544E-01
  9.798658E-01
  9.865772E-01
  9.932886E-01
  1.000000E+00
  0.000000E+00
  0.000000E+00
  0.000000E+00
  0.000000E+00
  0.000000E+00
  0.000000E+00
  0.000000E+00
  0.000000E+00
  0.000000E+00
  0.000000E+00
  0.000000E+00
  0.000000E+00
  0.000000E+00
  0.000000E+00
  0.000000E+00
  0.000000E+00
  0.000000E+00
  0.000000E+00
  0.000000E+00
  0.000000E+00
  0.000000E+00
  0.000000E+00
  0.000000E+00
  0.000000E+00
  0.000000E+00
  0.000000E+00
  0.000000E+00
  0.000000E+00
  0.000000E+00
  0.000000E+00
  0.000000E+00
  0.000000E+00
  0.000000E+00
  0.000000E+00
  0.000000E+00
  0.000000E+00
  0.000000E+00
  0.000000E+00
  0.000000E+00
  0.000000E+00
  0.000000E+00
  0.000000E+00
  0.000000E+00
  0.000000E+00
  0.000000E+00
  0.000000E+00
  0.000000E+00
  0.000000E+00
  0.000000E+00
  0.000000E+00
  0.000000E+00
  0.000000E+00
  0.000000E+00
  0.000000E+00
  0.000000E+00
  0.000000E+00
  0.000000E+00
  0.000000E+00
  0.000000E+00
  0.000000E+00
  0.000000E+00
  0.000000E+00
  0.000000E+00
  0.000000E+00
  0.000000E+00
  0.000000E+00
  0.000000E+00
  0.000000E+00
  0.000000E+00
  0.000000E+00
  0.000000E+00
  0.000000E+00
  0.000000E+00
  0.000000E+00
  0.000000E+00
  0.000000E+00
  0.000000E+00
  0.000000E+00
  0.000000E+00
  0.000000E+00
  0.000000E+00
  0.000000E+00
  0.000000E+00
  0.000000E+00
  0.000000E+00
  0.000000E+00
  0.000000E+00
  0.000000E+00
  0.000000E+00
  0.000000E+00
  0.000000E+00
  0.000000E+00
  0.000000E+00
  0.000000E+00
  0.000000E+00
  0.000000E+00
  0.000000E+00
  0.000000E+00
  0.000000E+00
  0.000000E+00
  0.000000E+00
  0.000000E+00
  0.000000E+00
  0.000000E+00
  0.000000E+00
  0.000000E+00
  0.000000E+00
  0.000000E+00
  0.000000E+00
  0.000000E+00
  0.000000E+00
  0.000000E+00
  0.000000E+00
  0.000000E+00
  0.000000E+00
  0.000000E+00
  0.000000E+00
  0.000000E+00
  0.000000E+00
  0.000000E+00
  0.000000E+00
  0.000000E+00
  0.000000E+00
  0.000000E+00
  0.000000E+00
  0.000000E+00
  0.000000E+00
  0.000000E+00
  0.000000E+00
  0.000000E+00
  0.000000E+00
  0.000000E+00
  0.000000E+00
  0.000000E+00
  0.000000E+00
  0.000000E+00
  0.000000E+00
  0.000000E+00
  0.000000E+00
  0.000000E+00
  0.000000E+00
  0.000000E+00
  0.000000E+00
  0.000000E+00
  0.000000E+00
  0.000000E+00
  0.000000E+00
  0.000000E+00
  0.000000E+00
  0.000000E+00
  0.000000E+00
  0.000000E+00
  0.000000E+00
  0.000000E+00
  0.000000E+00
  0.000000E+00
  0.000000E+00
  0.000000E+00
  0.000000E+00
  0.000000E+00
  0.000000E+00
  0.000000E+00
  0.000000E+00
  0.000000E+00
  0.000000E+00
  0.000000E+00
  0.000000E+00
  0.000000E+00
  0.000000E+00
  0.000000E+00
  0.000000E+00
  0.000000E+00
  0.000000E+00
  0.000000E+00
  0.000000E+00
  0.000000E+00
  0.000000E+00
  0.000000E+00
  0.000000E+00
  0.000000E+00
  0.000000E+00
  0.000000E+00
  0.000000E+00
  0.000000E+00
  0.000000E+00
  0.000000E+00
  0.000000E+00
  0.000000E+00
  0.000000E+00
  0.000000E+00
  0.000000E+00
  0.000000E+00
  0.000000E+00
  0.000000E+00
  0.000000E+00
  0.000000E+00
  0.000000E+00
  0.000000E+00
  0.000000E+00
  0.000000E+00
  0.000000E+00
  0.000000E+00
  0.000000E+00
  0.000000E+00
  0.000000E+00
  0.000000E+00
  0.000000E+00
  0.000000E+00
  0.000000E+00
  0.000000E+00
  0.000000E+00
  0.000000E+00
  0.000000E+00
  0.000000E+00
  0.000000E+00
  0.000000E+00
  0.000000E+00
  0.000000E+00
  0.000000E+00
  0.000000E+00
  0.000000E+00
  0.000000E+00
  0.000000E+00
  0.000000E+00
  0.000000E+00
  0.000000E+00
  0.000000E+00
  0.000000E+00
  0.000000E+00
  0.000000E+00
  0.000000E+00
  0.000000E+00
  0.000000E+00
  0.000000E+00
  0.000000E+00
  0.000000E+00
  0.000000E+00
  0.000000E+00
  0.000000E+00
  0.000000E+00
  0.000000E+00
  0.000000E+00
  0.000000E+00
  0.000000E+00
  0.000000E+00
  0.000000E+00
  0.000000E+00
  0.000000E+00
  0.000000E+00
  0.000000E+00
  0.000000E+00
  0.000000E+00
  0.000000E+00
  0.000000E+00
  0.000000E+00
  0.000000E+00
  0.000000E+00
  0.000000E+00
  0.000000E+00
  0.000000E+00
  0.000000E+00
  0.000000E+00
  0.000000E+00
  0.000000E+00
  0.000000E+00
  0.000000E+00
  0.000000E+00
  0.000000E+00
  0.000000E+00
  0.000000E+00
  0.000000E+00
  0.000000E+00
  0.000000E+00
  0.000000E+00
  0.000000E+00
  0.000000E+00
  0.000000E+00
  0.000000E+00
  0.000000E+00
  0.000000E+00
  0.000000E+00
  0.000000E+00
  0.000000E+00
  0.000000E+00
  0.000000E+00
  0.000000E+00
  0.000000E+00
  0.000000E+00
  0.000000E+00
  0.000000E+00
  0.000000E+00
  0.000000E+00
  0.000000E+00
  0.000000E+00
  0.000000E+00
  0.000000E+00
  0.000000E+00
  0.000000E+00
  0.000000E+00
  0.000000E+00
  1.000000E-08
  1.691809E-02
  3.383618E-02
  5.075427E-02
  6.767237E-02
  8.459046E-02
  1.015085E-01
  1.184266E-01
  1.353447E-01
  1.522628E-01
  1.691809E-01
  1.860990E-01
  2.030171E-01
  2.199352E-01
  2.368533E-01
  2.537714E-01
  2.706895E-01
  2.876076E-01
  3.045256E-01
  3.214437E-01
  3.383618E-01
  3.552799E-01
  3.721980E-01
  3.891161E-01
  4.060342E-01
  4.229523E-01
  4.398704E-01
  4.567885E-01
  4.737066E-01
  4.906247E-01
  5.075427E-01
  5.244608E-01
  5.413789E-01
  5.582970E-01
  5.752151E-01
  5.921332E-01
  6.090513E-01
  6.259694E-01
  6.428875E-01
  6.598056E-01
  6.767237E-01
  6.936418E-01
  7.105598E-01
  7.274779E-01
  7.443960E-01
  7.613141E-01
  7.782322E-01
  7.951503E-01
  8.120684E-01
  8.289865E-01
  8.459046E-01
  8.628227E-01
  8.797408E-01
  8.966589E-01
  9.135769E-01
  9.304950E-01
  9.474131E-01
  9.643312E-01
  9.812493E-01
  9.981674E-01
  1.015085E+00
  1.032004E+00
  1.048922E+00
  1.065840E+00
  1.082758E+00
  1.099676E+00
  1.116594E+00
  1.133512E+00
  1.150430E+00
  1.167348E+00
  1.184266E+00
  1.201185E+00
  1.218103E+00
  1.235021E+00
  1.251939E+00
  1.268857E+00
  1.285775E+00
  1.302693E+00
  1.319611E+00
  1.336529E+00
  1.353447E+00
  1.370365E+00
  1.387284E+00
  1.404202E+00
  1.421120E+00
  1.438038E+00
  1.454956E+00
  1.471874E+00
  1.488792E+00
  1.505710E+00
  1.522628E+00
  1.539546E+00
  1.556464E+00
  1.573383E+00
  1.590301E+00
  1.607219E+00
  1.624137E+00
  1.641055E+00
  1.657973E+00
  1.674891E+00
  1.691809E+00
  1.708727E+00
  1.725645E+00
  1.742563E+00
  1.759482E+00
  1.776400E+00
  1.793318E+00
  1.810236E+00
  1.827154E+00
  1.844072E+00
  1.860990E+00
  1.877908E+00
  1.894826E+00
  1.911744E+00
  1.928662E+00
  1.945581E+00
  1.962499E+00
  1.979417E+00
  1.996335E+00
  2.013253E+00
  2.030171E+00
  2.047089E+00
  2.064007E+00
  2.080925E+00
  2.097843E+00
  2.114761E+00
  2.131680E+00
  2.148598E+00
  2.165516E+00
  2.182434E+00
  2.199352E+00
  2.216270E+00
  2.233188E+00
  2.250106E+00
  2.267024E+00
  2.283942E+00
  2.300860E+00
  2.317779E+00
  2.334697E+00
  2.351615E+00
  2.368533E+00
  2.385451E+00
  2.402369E+00
  2.419287E+00
  2.436205E+00
  2.453123E+00
  2.470041E+00
  2.486959E+00
  2.503878E+00
  2.520796E+00
  1.098295E+04
  1.098142E+04
  1.097990E+04
  1.097837E+04
  1.097684E+04
  1.097531E+04
  1.097378E+04
  1.097226E+04
  1.097073E+04
  1.096630E+04
  1.096176E+04
  1.095722E+04
  1.095267E+04
  1.094813E+04
  1.094359E+04
  1.093904E+04
  1.093362E+04
  1.092636E+04
  1.091909E+04
  1.091183E+04
  1.090457E+04
  1.089730E+04
  1.089004E+04
  1.088259E+04
  1.087256E+04
  1.086254E+04
  1.085252E+04
  1.084249E+04
  1.083247E+04
  1.082244E+04
  1.081190E+04
  1.079888E+04
  1.078587E+04
  1.077286E+04
  1.075985E+04
  1.074683E+04
  1.073382E+04
  1.071886E+04
  1.070274E+04
  1.068662E+04
  1.067050E+04
  1.065438E+04
  1.063825E+04
  1.062088E+04
  1.060165E+04
  1.058243E+04
  1.056321E+04
  1.054399E+04
  1.052476E+04
  1.050397E+04
  1.048157E+04
  1.045917E+04
  1.043676E+04
  1.041436E+04
  1.039196E+04
  1.036662E+04
  1.034088E+04
  1.031514E+04
  1.028939E+04
  1.026365E+04
  1.023604E+04
  1.020688E+04
  1.017773E+04
  1.014857E+04
  1.011941E+04
  1.008851E+04
  1.005572E+04
  1.002293E+04
  9.990146E+03
  9.957359E+03
  9.921886E+03
  9.885062E+03
  9.848239E+03
  9.811417E+03
  9.774200E+03
  9.733108E+03
  9.692017E+03
  9.650926E+03
  9.609836E+03
  9.565521E+03
  9.520121E+03
  9.474723E+03
  9.429326E+03
  9.381265E+03
  9.331580E+03
  9.281897E+03
  9.232217E+03
  9.179806E+03
  9.126229E+03
  9.072656E+03
  9.019086E+03
  8.962358E+03
  8.905558E+03
  8.848764E+03
  8.790685E+03
  8.730953E+03
  8.671236E+03
  8.611312E+03
  8.548702E+03
  8.486122E+03
  8.423571E+03
  8.358774E+03
  8.293718E+03
  8.228708E+03
  8.161407E+03
  8.093745E+03
  8.026137E+03
  7.955010E+03
  7.883815E+03
  7.811641E+03
  7.736009E+03
  7.660433E+03
  7.581772E+03
  7.501293E+03
  7.420049E+03
  7.334452E+03
  7.248895E+03
  7.159205E+03
  7.068560E+03
  6.975116E+03
  6.879635E+03
  6.782036E+03
  6.681938E+03
  6.579894E+03
  6.475431E+03
  6.368870E+03
  6.260482E+03
  6.149586E+03
  6.037713E+03
  5.922728E+03
  5.806728E+03
  5.688906E+03
  5.569034E+03
  5.447858E+03
  5.324999E+03
  5.199848E+03
  5.072946E+03
  4.944137E+03
  4.813438E+03
  4.681628E+03
  4.553423E+03
  4.438892E+03
  4.354128E+03
  4.326183E+03
  4.416433E+03
  4.548540E+03
  4.294454E+03
  4.580488E+03
  1.331938E+03
  7.351511E-03
  5.977205E+02
  5.976841E+02
  5.976478E+02
  5.976114E+02
  5.975751E+02
  5.975387E+02
  5.975024E+02
  5.974660E+02
  5.974297E+02
  5.973780E+02
  5.973257E+02
  5.972734E+02
  5.972211E+02
  5.971689E+02
  5.971166E+02
  5.970643E+02
  5.970350E+02
  5.970537E+02
  5.970725E+02
  5.970912E+02
  5.971100E+02
  5.971288E+02
  5.971476E+02
  5.971704E+02
  5.972488E+02
  5.973272E+02
  5.974057E+02
  5.974842E+02
  5.975627E+02
  5.976413E+02
  5.977211E+02
  5.978069E+02
  5.978927E+02
  5.979786E+02
  5.980645E+02
  5.981506E+02
  5.982367E+02
  5.983189E+02
  5.983990E+02
  5.984792E+02
  5.985595E+02
  5.986399E+02
  5.987205E+02
  5.987958E+02
  5.988633E+02
  5.989310E+02
  5.989989E+02
  5.990670E+02
  5.991353E+02
  5.991615E+02
  5.991448E+02
  5.991282E+02
  5.991119E+02
  5.990958E+02
  5.990799E+02
  5.988965E+02
  5.986905E+02
  5.984846E+02
  5.982789E+02
  5.980733E+02
  5.977502E+02
  5.973294E+02
  5.969087E+02
  5.964882E+02
  5.960679E+02
  5.955563E+02
  5.949456E+02
  5.943350E+02
  5.937245E+02
  5.931142E+02
  5.923997E+02
  5.916327E+02
  5.908660E+02
  5.900994E+02
  5.893257E+02
  5.884805E+02
  5.876355E+02
  5.867907E+02
  5.859463E+02
  5.850092E+02
  5.840412E+02
  5.830735E+02
  5.821062E+02
  5.808846E+02
  5.795077E+02
  5.781308E+02
  5.767541E+02
  5.749003E+02
  5.728422E+02
  5.707839E+02
  5.687254E+02
  5.658625E+02
  5.629798E+02
  5.600975E+02
  5.567515E+02
  5.528102E+02
  5.488717E+02
  5.448469E+02
  5.397362E+02
  5.346336E+02
  5.295388E+02
  5.237853E+02
  5.179553E+02
  5.121378E+02
  5.062294E+02
  5.003165E+02
  4.944173E+02
  4.888098E+02
  4.832241E+02
  4.777726E+02
  4.727454E+02
  4.677267E+02
  4.631566E+02
  4.588541E+02
  4.546767E+02
  4.511543E+02
  4.476339E+02
  4.447254E+02
  4.419621E+02
  4.395910E+02
  4.375060E+02
  4.356380E+02
  4.340259E+02
  4.325055E+02
  4.310992E+02
  4.297216E+02
  4.283707E+02
  4.270262E+02
  4.256886E+02
  4.243842E+02
  4.231274E+02
  4.219515E+02
  4.209732E+02
  4.201792E+02
  4.196671E+02
  4.196993E+02
  4.202683E+02
  4.215568E+02
  4.238523E+02
  4.277915E+02
  4.348310E+02
  4.472009E+02
  4.687456E+02
  5.058063E+02
  5.710641E+02
  6.566023E+02
  6.991646E+02
  8.237778E+02
  3.681716E+02
  2.359306E-03
  2.005347E+03
  2.004987E+03
  2.004627E+03
  2.004266E+03
  2.003906E+03
  2.003546E+03
  2.003185E+03
  2.002825E+03
  2.002465E+03
  2.001451E+03
  2.000409E+03
  1.999368E+03
  1.998327E+03
  1.997286E+03
  1.996245E+03
  1.995203E+03
  1.993971E+03
  1.992337E+03
  1.990704E+03
  1.989070E+03
  1.987437E+03
  1.985803E+03
  1.984169E+03
  1.982491E+03
  1.980192E+03
  1.977893E+03
  1.975594E+03
  1.973295E+03
  1.970996E+03
  1.968697E+03
  1.966259E+03
  1.963160E+03
  1.960060E+03
  1.956960E+03
  1.953861E+03
  1.950761E+03
  1.947662E+03
  1.944028E+03
  1.940074E+03
  1.936120E+03
  1.932166E+03
  1.928213E+03
  1.924259E+03
  1.919984E+03
  1.915236E+03
  1.910488E+03
  1.905740E+03
  1.900992E+03
  1.896245E+03
  1.891157E+03
  1.885722E+03
  1.880287E+03
  1.874851E+03
  1.869416E+03
  1.863982E+03
  1.858024E+03
  1.851996E+03
  1.845967E+03
  1.839939E+03
  1.833910E+03
  1.827580E+03
  1.820999E+03
  1.814418E+03
  1.807838E+03
  1.801257E+03
  1.794347E+03
  1.787081E+03
  1.779815E+03
  1.772548E+03
  1.765282E+03
  1.757443E+03
  1.749293E+03
  1.741143E+03
  1.732992E+03
  1.724764E+03
  1.715773E+03
  1.706782E+03
  1.697790E+03
  1.688799E+03
  1.679295E+03
  1.669619E+03
  1.659943E+03
  1.650267E+03
  1.640216E+03
  1.629937E+03
  1.619659E+03
  1.609380E+03
  1.598924E+03
  1.588391E+03
  1.577859E+03
  1.567329E+03
  1.557097E+03
  1.546875E+03
  1.536656E+03
  1.526607E+03
  1.516780E+03
  1.506959E+03
  1.497140E+03
  1.487296E+03
  1.477465E+03
  1.467644E+03
  1.457566E+03
  1.447481E+03
  1.437415E+03
  1.426825E+03
  1.416161E+03
  1.405520E+03
  1.393551E+03
  1.381559E+03
  1.369118E+03
  1.355097E+03
  1.341097E+03
  1.325626E+03
  1.309285E+03
  1.292581E+03
  1.273835E+03
  1.255102E+03
  1.234500E+03
  1.213461E+03
  1.191285E+03
  1.168279E+03
  1.144619E+03
  1.120188E+03
  1.095378E+03
  1.070100E+03
  1.044669E+03
  1.019106E+03
  9.937247E+02
  9.684185E+02
  9.438904E+02
  9.198287E+02
  8.966055E+02
  8.747764E+02
  8.539815E+02
  8.346458E+02
  8.175176E+02
  8.021559E+02
  7.889103E+02
  7.783192E+02
  7.717631E+02
  7.729398E+02
  7.881710E+02
  8.286802E+02
  9.112682E+02
  1.062667E+03
  1.250533E+03
  1.301766E+03
  1.404547E+03
 -3.497192E+00
  2.287246E-08
  1.233152E+00
  1.232980E+00
  1.232808E+00
  1.232637E+00
  1.232465E+00
  1.232294E+00
  1.232122E+00
  1.231951E+00
  1.231779E+00
  1.231282E+00
  1.230772E+00
  1.230262E+00
  1.229752E+00
  1.229242E+00
  1.228732E+00
  1.228221E+00
  1.227613E+00
  1.226797E+00
  1.225982E+00
  1.225166E+00
  1.224350E+00
  1.223535E+00
  1.222719E+00
  1.221883E+00
  1.220757E+00
  1.219632E+00
  1.218506E+00
  1.217381E+00
  1.216255E+00
  1.215130E+00
  1.213946E+00
  1.212485E+00
  1.211024E+00
  1.209563E+00
  1.208101E+00
  1.206640E+00
  1.205179E+00
  1.203500E+00
  1.201690E+00
  1.199880E+00
  1.198069E+00
  1.196259E+00
  1.194449E+00
  1.192498E+00
  1.190340E+00
  1.188182E+00
  1.186023E+00
  1.183865E+00
  1.181707E+00
  1.179372E+00
  1.176857E+00
  1.174341E+00
  1.171826E+00
  1.169311E+00
  1.166796E+00
  1.163951E+00
  1.161060E+00
  1.158170E+00
  1.155280E+00
  1.152390E+00
  1.149290E+00
  1.146016E+00
  1.142742E+00
  1.139468E+00
  1.136194E+00
  1.132725E+00
  1.129043E+00
  1.125362E+00
  1.121681E+00
  1.117999E+00
  1.114016E+00
  1.109882E+00
  1.105748E+00
  1.101613E+00
  1.097434E+00
  1.092821E+00
  1.088207E+00
  1.083593E+00
  1.078980E+00
  1.074004E+00
  1.068907E+00
  1.063810E+00
  1.058712E+00
  1.053316E+00
  1.047738E+00
  1.042159E+00
  1.036581E+00
  1.030697E+00
  1.024681E+00
  1.018666E+00
  1.012651E+00
  1.006282E+00
  9.999044E-01
  9.935277E-01
  9.870066E-01
  9.803001E-01
  9.735951E-01
  9.668669E-01
  9.598372E-01
  9.528107E-01
  9.457876E-01
  9.385123E-01
  9.312079E-01
  9.239086E-01
  9.163522E-01
  9.087551E-01
  9.011642E-01
  8.931781E-01
  8.851845E-01
  8.770808E-01
  8.685891E-01
  8.601034E-01
  8.512715E-01
  8.422354E-01
  8.331134E-01
  8.235028E-01
  8.138965E-01
  8.038263E-01
  7.936487E-01
  7.831569E-01
  7.724364E-01
  7.614781E-01
  7.502393E-01
  7.387819E-01
  7.270530E-01
  7.150884E-01
  7.029188E-01
  6.904676E-01
  6.779066E-01
  6.649962E-01
  6.519719E-01
  6.387430E-01
  6.252839E-01
  6.116785E-01
  5.978840E-01
  5.838321E-01
  5.695838E-01
  5.551213E-01
  5.404465E-01
  5.256471E-01
  5.112524E-01
  4.983930E-01
  4.888758E-01
  4.857382E-01
  4.958714E-01
  5.107042E-01
  4.821757E-01
  5.142912E-01
  1.495483E-01
  8.254181E-07
  1.088508E+00
  1.088442E+00
  1.088375E+00
  1.088309E+00
  1.088243E+00
  1.088177E+00
  1.088111E+00
  1.088044E+00
  1.087978E+00
  1.087884E+00
  1.087789E+00
  1.087694E+00
  1.087598E+00
  1.087503E+00
  1.087408E+00
  1.087313E+00
  1.087259E+00
  1.087294E+00
  1.087328E+00
  1.087362E+00
  1.087396E+00
  1.087430E+00
  1.087465E+00
  1.087506E+00
  1.087649E+00
  1.087792E+00
  1.087935E+00
  1.088077E+00
  1.088220E+00
  1.088364E+00
  1.088509E+00
  1.088665E+00
  1.088821E+00
  1.088978E+00
  1.089134E+00
  1.089291E+00
  1.089448E+00
  1.089598E+00
  1.089743E+00
  1.089889E+00
  1.090036E+00
  1.090182E+00
  1.090329E+00
  1.090466E+00
  1.090589E+00
  1.090712E+00
  1.090836E+00
  1.090960E+00
  1.091084E+00
  1.091132E+00
  1.091102E+00
  1.091071E+00
  1.091042E+00
  1.091012E+00
  1.090983E+00
  1.090649E+00
  1.090274E+00
  1.089899E+00
  1.089525E+00
  1.089150E+00
  1.088562E+00
  1.087796E+00
  1.087029E+00
  1.086264E+00
  1.085498E+00
  1.084567E+00
  1.083454E+00
  1.082342E+00
  1.081231E+00
  1.080119E+00
  1.078818E+00
  1.077421E+00
  1.076025E+00
  1.074629E+00
  1.073220E+00
  1.071681E+00
  1.070142E+00
  1.068604E+00
  1.067066E+00
  1.065359E+00
  1.063596E+00
  1.061834E+00
  1.060073E+00
  1.057848E+00
  1.055340E+00
  1.052833E+00
  1.050326E+00
  1.046950E+00
  1.043202E+00
  1.039454E+00
  1.035705E+00
  1.030491E+00
  1.025242E+00
  1.019993E+00
  1.013899E+00
  1.006722E+00
  9.995493E-01
  9.922197E-01
  9.829127E-01
  9.736203E-01
  9.643422E-01
  9.538646E-01
  9.432475E-01
  9.326533E-01
  9.218935E-01
  9.111256E-01
  9.003826E-01
  8.901706E-01
  8.799986E-01
  8.700708E-01
  8.609159E-01
  8.517762E-01
  8.434537E-01
  8.356184E-01
  8.280109E-01
  8.215963E-01
  8.151854E-01
  8.098886E-01
  8.048565E-01
  8.005384E-01
  7.967414E-01
  7.933397E-01
  7.904038E-01
  7.876350E-01
  7.850740E-01
  7.825653E-01
  7.801052E-01
  7.776566E-01
  7.752207E-01
  7.728454E-01
  7.705566E-01
  7.684151E-01
  7.666336E-01
  7.651877E-01
  7.642550E-01
  7.643136E-01
  7.653500E-01
  7.676964E-01
  7.718766E-01
  7.790503E-01
  7.918700E-01
  8.143968E-01
  8.536318E-01
  9.211230E-01
  1.039964E+00
  1.195737E+00
  1.273247E+00
  1.500180E+00
  6.704767E-01
  4.296528E-06
  1.261442E+00
  1.261216E+00
  1.260989E+00
  1.260762E+00
  1.260536E+00
  1.260309E+00
  1.260083E+00
  1.259856E+00
  1.259629E+00
  1.258991E+00
  1.258336E+00
  1.257681E+00
  1.257026E+00
  1.256371E+00
  1.255717E+00
  1.255062E+00
  1.254286E+00
  1.253259E+00
  1.252231E+00
  1.251204E+00
  1.250176E+00
  1.249148E+00
  1.248121E+00
  1.247065E+00
  1.245619E+00
  1.244173E+00
  1.242727E+00
  1.241280E+00
  1.239834E+00
  1.238388E+00
  1.236855E+00
  1.234905E+00
  1.232955E+00
  1.231005E+00
  1.229055E+00
  1.227106E+00
  1.225156E+00
  1.222870E+00
  1.220383E+00
  1.217896E+00
  1.215409E+00
  1.212922E+00
  1.210435E+00
  1.207746E+00
  1.204759E+00
  1.201772E+00
  1.198786E+00
  1.195799E+00
  1.192813E+00
  1.189612E+00
  1.186193E+00
  1.182774E+00
  1.179355E+00
  1.175937E+00
  1.172518E+00
  1.168770E+00
  1.164978E+00
  1.161186E+00
  1.157394E+00
  1.153602E+00
  1.149620E+00
  1.145480E+00
  1.141341E+00
  1.137201E+00
  1.133062E+00
  1.128715E+00
  1.124144E+00
  1.119574E+00
  1.115003E+00
  1.110432E+00
  1.105501E+00
  1.100374E+00
  1.095247E+00
  1.090121E+00
  1.084945E+00
  1.079289E+00
  1.073633E+00
  1.067977E+00
  1.062321E+00
  1.056343E+00
  1.050256E+00
  1.044169E+00
  1.038083E+00
  1.031761E+00
  1.025295E+00
  1.018829E+00
  1.012364E+00
  1.005786E+00
  9.991606E-01
  9.925358E-01
  9.859114E-01
  9.794755E-01
  9.730456E-01
  9.666169E-01
  9.602959E-01
  9.541146E-01
  9.479365E-01
  9.417598E-01
  9.355681E-01
  9.293836E-01
  9.232062E-01
  9.168662E-01
  9.105226E-01
  9.041906E-01
  8.975291E-01
  8.908211E-01
  8.841275E-01
  8.765987E-01
  8.690553E-01
  8.612291E-01
  8.524091E-01
  8.436029E-01
  8.338710E-01
  8.235918E-01
  8.130845E-01
  8.012927E-01
  7.895085E-01
  7.765491E-01
  7.633145E-01
  7.493649E-01
  7.348937E-01
  7.200106E-01
  7.046422E-01
  6.890360E-01
  6.731353E-01
  6.571381E-01
  6.410577E-01
  6.250920E-01
  6.091734E-01
  5.937443E-01
  5.786085E-01
  5.640002E-01
  5.502688E-01
  5.371880E-01
  5.250251E-01
  5.142508E-01
  5.045877E-01
  4.962557E-01
  4.895934E-01
  4.854694E-01
  4.862096E-01
  4.957906E-01
  5.212725E-01
  5.732236E-01
  6.684597E-01
  7.866345E-01
  8.188621E-01
  8.835151E-01
 -2.199872E-03
  1.438768E-11
  9.725471E-01
  9.724118E-01
  9.722765E-01
  9.721412E-01
  9.720059E-01
  9.718706E-01
  9.717353E-01
  9.716000E-01
  9.714647E-01
  9.710731E-01
  9.706708E-01
  9.702685E-01
  9.698662E-01
  9.694640E-01
  9.690617E-01
  9.686594E-01
  9.681795E-01
  9.675363E-01
  9.668932E-01
  9.662500E-01
  9.656069E-01
  9.649637E-01
  9.643206E-01
  9.636611E-01
  9.627736E-01
  9.618860E-01
  9.609984E-01
  9.601109E-01
  9.592233E-01
  9.583358E-01
  9.574023E-01
  9.562501E-01
  9.550979E-01
  9.539457E-01
  9.527936E-01
  9.516415E-01
  9.504894E-01
  9.491651E-01
  9.477376E-01
  9.463101E-01
  9.448827E-01
  9.434553E-01
  9.420279E-01
  9.404895E-01
  9.387874E-01
  9.370853E-01
  9.353832E-01
  9.336813E-01
  9.319793E-01
  9.301381E-01
  9.281545E-01
  9.261709E-01
  9.241873E-01
  9.222038E-01
  9.202204E-01
  9.179764E-01
  9.156970E-01
  9.134175E-01
  9.111381E-01
  9.088588E-01
  9.064141E-01
  9.038320E-01
  9.012500E-01
  8.986680E-01
  8.960861E-01
  8.933501E-01
  8.904466E-01
  8.875432E-01
  8.846398E-01
  8.817365E-01
  8.785952E-01
  8.753345E-01
  8.720737E-01
  8.688131E-01
  8.655174E-01
  8.618786E-01
  8.582398E-01
  8.546011E-01
  8.509624E-01
  8.470381E-01
  8.430177E-01
  8.389974E-01
  8.349773E-01
  8.307212E-01
  8.263213E-01
  8.219216E-01
  8.175220E-01
  8.128808E-01
  8.081364E-01
  8.033923E-01
  7.986486E-01
  7.936254E-01
  7.885957E-01
  7.835667E-01
  7.784240E-01
  7.731351E-01
  7.678475E-01
  7.625414E-01
  7.569977E-01
  7.514565E-01
  7.459176E-01
  7.401796E-01
  7.344184E-01
  7.286610E-01
  7.227005E-01
  7.167076E-01
  7.107194E-01
  7.044194E-01
  6.981132E-01
  6.917202E-01
  6.850212E-01
  6.783269E-01
  6.713598E-01
  6.642320E-01
  6.570365E-01
  6.494562E-01
  6.418795E-01
  6.339376E-01
  6.259112E-01
  6.176375E-01
  6.091837E-01
  6.005427E-01
  5.916807E-01
  5.826463E-01
  5.733979E-01
  5.639636E-01
  5.543675E-01
  5.445491E-01
  5.346440E-01
  5.244631E-01
  5.141920E-01
  5.037594E-01
  4.931448E-01
  4.824145E-01
  4.715347E-01
  4.604517E-01
  4.492134E-01
  4.378059E-01
  4.262309E-01
  4.145572E-01
  4.032026E-01
  3.930587E-01
  3.855504E-01
  3.830731E-01
  3.910614E-01
  4.027556E-01
  3.802536E-01
  4.055765E-01
  1.443499E-01
  5.342609E-02
  5.292851E-02
  5.292530E-02
  5.292208E-02
  5.291886E-02
  5.291564E-02
  5.291242E-02
  5.290921E-02
  5.290599E-02
  5.290277E-02
  5.289820E-02
  5.289357E-02
  5.288894E-02
  5.288432E-02
  5.287969E-02
  5.287507E-02
  5.287044E-02
  5.286784E-02
  5.286951E-02
  5.287117E-02
  5.287284E-02
  5.287451E-02
  5.287618E-02
  5.287785E-02
  5.287987E-02
  5.288682E-02
  5.289377E-02
  5.290073E-02
  5.290768E-02
  5.291464E-02
  5.292161E-02
  5.292868E-02
  5.293629E-02
  5.294389E-02
  5.295151E-02
  5.295913E-02
  5.296676E-02
  5.297439E-02
  5.298168E-02
  5.298878E-02
  5.299589E-02
  5.300302E-02
  5.301015E-02
  5.301729E-02
  5.302397E-02
  5.302996E-02
  5.303596E-02
  5.304199E-02
  5.304802E-02
  5.305408E-02
  5.305641E-02
  5.305494E-02
  5.305348E-02
  5.305204E-02
  5.305062E-02
  5.304922E-02
  5.303299E-02
  5.301475E-02
  5.299652E-02
  5.297831E-02
  5.296011E-02
  5.293150E-02
  5.289424E-02
  5.285700E-02
  5.281976E-02
  5.278254E-02
  5.273724E-02
  5.268316E-02
  5.262910E-02
  5.257504E-02
  5.252100E-02
  5.245772E-02
  5.238981E-02
  5.232191E-02
  5.225403E-02
  5.218551E-02
  5.211066E-02
  5.203583E-02
  5.196102E-02
  5.188624E-02
  5.180325E-02
  5.171752E-02
  5.163182E-02
  5.154615E-02
  5.143796E-02
  5.131601E-02
  5.119408E-02
  5.107215E-02
  5.090799E-02
  5.072574E-02
  5.054346E-02
  5.036117E-02
  5.010767E-02
  4.985241E-02
  4.959718E-02
  4.930091E-02
  4.895192E-02
  4.860319E-02
  4.824681E-02
  4.779428E-02
  4.734245E-02
  4.689132E-02
  4.638183E-02
  4.586555E-02
  4.535036E-02
  4.482710E-02
  4.430343E-02
  4.378096E-02
  4.328431E-02
  4.278958E-02
  4.230672E-02
  4.186146E-02
  4.141693E-02
  4.101214E-02
  4.063107E-02
  4.026108E-02
  3.994913E-02
  3.963736E-02
  3.937981E-02
  3.913514E-02
  3.892522E-02
  3.874065E-02
  3.857533E-02
  3.843267E-02
  3.829814E-02
  3.817373E-02
  3.805186E-02
  3.793235E-02
  3.781339E-02
  3.769504E-02
  3.757962E-02
  3.746839E-02
  3.736430E-02
  3.727769E-02
  3.720738E-02
  3.716199E-02
  3.716479E-02
  3.721509E-02
  3.732908E-02
  3.753220E-02
  3.788085E-02
  3.850400E-02
  3.959912E-02
  4.150660E-02
  4.478793E-02
  5.056594E-02
  5.813959E-02
  6.190772E-02
  7.294090E-02
  3.990091E-02
  1.714593E-02
  1.775747E-01
  1.775428E-01
  1.775109E-01
  1.774790E-01
  1.774471E-01
  1.774152E-01
  1.773833E-01
  1.773514E-01
  1.773195E-01
  1.772297E-01
  1.771375E-01
  1.770453E-01
  1.769531E-01
  1.768610E-01
  1.767688E-01
  1.766766E-01
  1.765675E-01
  1.764228E-01
  1.762782E-01
  1.761335E-01
  1.759889E-01
  1.758443E-01
  1.756996E-01
  1.755510E-01
  1.753475E-01
  1.751439E-01
  1.749404E-01
  1.747368E-01
  1.745333E-01
  1.743297E-01
  1.741138E-01
  1.738394E-01
  1.735649E-01
  1.732905E-01
  1.730161E-01
  1.727416E-01
  1.724672E-01
  1.721454E-01
  1.717953E-01
  1.714453E-01
  1.710952E-01
  1.707451E-01
  1.703950E-01
  1.700165E-01
  1.695961E-01
  1.691757E-01
  1.687553E-01
  1.683349E-01
  1.679145E-01
  1.674640E-01
  1.669828E-01
  1.665015E-01
  1.660202E-01
  1.655390E-01
  1.650577E-01
  1.645302E-01
  1.639964E-01
  1.634626E-01
  1.629288E-01
  1.623950E-01
  1.618344E-01
  1.612517E-01
  1.606690E-01
  1.600862E-01
  1.595035E-01
  1.588917E-01
  1.582482E-01
  1.576048E-01
  1.569613E-01
  1.563179E-01
  1.556238E-01
  1.549020E-01
  1.541803E-01
  1.534586E-01
  1.527300E-01
  1.519338E-01
  1.511376E-01
  1.503414E-01
  1.495451E-01
  1.487035E-01
  1.478467E-01
  1.469898E-01
  1.461330E-01
  1.452429E-01
  1.443327E-01
  1.434224E-01
  1.425122E-01
  1.415863E-01
  1.406536E-01
  1.397210E-01
  1.387884E-01
  1.378824E-01
  1.369773E-01
  1.360724E-01
  1.351826E-01
  1.343125E-01
  1.334428E-01
  1.325734E-01
  1.317019E-01
  1.308313E-01
  1.299617E-01
  1.290692E-01
  1.281761E-01
  1.272847E-01
  1.263467E-01
  1.254022E-01
  1.244597E-01
  1.233995E-01
  1.223373E-01
  1.212353E-01
  1.199934E-01
  1.187534E-01
  1.173831E-01
  1.159359E-01
  1.144565E-01
  1.127965E-01
  1.111375E-01
  1.093132E-01
  1.074503E-01
  1.054867E-01
  1.034498E-01
  1.013549E-01
  9.919178E-02
  9.699519E-02
  9.475713E-02
  9.250549E-02
  9.024211E-02
  8.799485E-02
  8.575418E-02
  8.358237E-02
  8.145182E-02
  7.939548E-02
  7.746253E-02
  7.562110E-02
  7.390883E-02
  7.239199E-02
  7.103154E-02
  6.985842E-02
  6.892031E-02
  6.833947E-02
  6.844331E-02
  6.979162E-02
  7.337817E-02
  8.069061E-02
  9.409589E-02
  1.107298E-01
  1.152652E-01
  1.243647E-01
 -3.790112E-04
  1.662224E-07
  9.727380E-01
  9.726027E-01
  9.724674E-01
  9.723321E-01
  9.721968E-01
  9.720615E-01
  9.719263E-01
  9.717910E-01
  9.716557E-01
  9.712640E-01
  9.708618E-01
  9.704596E-01
  9.700574E-01
  9.696551E-01
  9.692529E-01
  9.688507E-01
  9.683708E-01
  9.677278E-01
  9.670848E-01
  9.664417E-01
  9.657987E-01
  9.651557E-01
  9.645127E-01
  9.638534E-01
  9.629660E-01