 Title= "ADflow Lift Distribution Data"
Variables = "eta" "CoordinateX" "CoordinateY" "CoordinateZ" "Lift" "Drag" "Moment" "Normalized Lift" "Normalized Drag" "Normalized Moment" "CL" "CD" "CM" "CLp" "CDp" "CMp" "CLv" "CDv" "CMv" "Elliptical" "thickness" "twist" "chord" "fx" "fy" "fz" 
Zone T= "LiftDist_01 allWalls: : z normal"
 I=          150
 DATAPACKING=BLOCK
  0.000000E+00
  6.711405E-03
  1.342281E-02
  2.013422E-02
  2.684563E-02
  3.355704E-02
  4.026845E-02
  4.697986E-02
  5.369127E-02
  6.040268E-02
  6.711409E-02
  7.382550E-02
  8.053691E-02
  8.724832E-02
  9.395973E-02
  1.006711E-01
  1.073825E-01
  1.140940E-01
  1.208054E-01
  1.275168E-01
  1.342282E-01
  1.409396E-01
  1.476510E-01
  1.543624E-01
  1.610738E-01
  1.677852E-01
  1.744966E-01
  1.812081E-01
  1.879195E-01
  1.946309E-01
  2.013423E-01
  2.080537E-01
  2.147651E-01
  2.214765E-01
  2.281879E-01
  2.348993E-01
  2.416107E-01
  2.483221E-01
  2.550336E-01
  2.617450E-01
  2.684564E-01
  2.751678E-01
  2.818792E-01
  2.885906E-01
  2.953020E-01
  3.020134E-01
  3.087248E-01
  3.154362E-01
  3.221476E-01
  3.288591E-01
  3.355705E-01
  3.422819E-01
  3.489933E-01
  3.557047E-01
  3.624161E-01
  3.691275E-01
  3.758389E-01
  3.825503E-01
  3.892617E-01
  3.959732E-01
  4.026846E-01
  4.093960E-01
  4.161074E-01
  4.228188E-01
  4.295302E-01
  4.362416E-01
  4.429530E-01
  4.496644E-01
  4.563758E-01
  4.630872E-01
  4.697987E-01
  4.765101E-01
  4.832215E-01
  4.899329E-01
  4.966443E-01
  5.033557E-01
  5.100671E-01
  5.167785E-01
  5.234899E-01
  5.302013E-01
  5.369128E-01
  5.436242E-01
  5.503356E-01
  5.570470E-01
  5.637584E-01
  5.704698E-01
  5.771812E-01
  5.838926E-01
  5.906040E-01
  5.973154E-01
  6.040268E-01
  6.107383E-01
  6.174497E-01
  6.241611E-01
  6.308725E-01
  6.375839E-01
  6.442953E-01
  6.510067E-01
  6.577181E-01
  6.644295E-01
  6.711409E-01
  6.778524E-01
  6.845638E-01
  6.912752E-01
  6.979866E-01
  7.046980E-01
  7.114094E-01
  7.181208E-01
  7.248322E-01
  7.315436E-01
  7.382550E-01
  7.449664E-01
  7.516779E-01
  7.583893E-01
  7.651007E-01
  7.718121E-01
  7.785235E-01
  7.852349E-01
  7.919463E-01
  7.986577E-01
  8.053691E-01
  8.120805E-01
  8.187919E-01
  8.255034E-01
  8.322148E-01
  8.389262E-01
  8.456376E-01
  8.523490E-01
  8.590604E-01
  8.657718E-01
  8.724832E-01
  8.791946E-01
  8.859060E-01
  8.926175E-01
  8.993289E-01
  9.060403E-01
  9.127517E-01
  9.194631E-01
  9.261745E-01
  9.328859E-01
  9.395973E-01
  9.463087E-01
  9.530201E-01
  9.597315E-01
  9.664430E-01
  9.731544E-01
  9.798658E-01
  9.865772E-01
  9.932886E-01
  1.000000E+00
  0.000000E+00
  0.000000E+00
  0.000000E+00
  0.000000E+00
  0.000000E+00
  0.000000E+00
  0.000000E+00
  0.000000E+00
  0.000000E+00
  0.000000E+00
  0.000000E+00
  0.000000E+00
  0.000000E+00
  0.000000E+00
  0.000000E+00
  0.000000E+00
  0.000000E+00
  0.000000E+00
  0.000000E+00
  0.000000E+00
  0.000000E+00
  0.000000E+00
  0.000000E+00
  0.000000E+00
  0.000000E+00
  0.000000E+00
  0.000000E+00
  0.000000E+00
  0.000000E+00
  0.000000E+00
  0.000000E+00
  0.000000E+00
  0.000000E+00
  0.000000E+00
  0.000000E+00
  0.000000E+00
  0.000000E+00
  0.000000E+00
  0.000000E+00
  0.000000E+00
  0.000000E+00
  0.000000E+00
  0.000000E+00
  0.000000E+00
  0.000000E+00
  0.000000E+00
  0.000000E+00
  0.000000E+00
  0.000000E+00
  0.000000E+00
  0.000000E+00
  0.000000E+00
  0.000000E+00
  0.000000E+00
  0.000000E+00
  0.000000E+00
  0.000000E+00
  0.000000E+00
  0.000000E+00
  0.000000E+00
  0.000000E+00
  0.000000E+00
  0.000000E+00
  0.000000E+00
  0.000000E+00
  0.000000E+00
  0.000000E+00
  0.000000E+00
  0.000000E+00
  0.000000E+00
  0.000000E+00
  0.000000E+00
  0.000000E+00
  0.000000E+00
  0.000000E+00
  0.000000E+00
  0.000000E+00
  0.000000E+00
  0.000000E+00
  0.000000E+00
  0.000000E+00
  0.000000E+00
  0.000000E+00
  0.000000E+00
  0.000000E+00
  0.000000E+00
  0.000000E+00
  0.000000E+00
  0.000000E+00
  0.000000E+00
  0.000000E+00
  0.000000E+00
  0.000000E+00
  0.000000E+00
  0.000000E+00
  0.000000E+00
  0.000000E+00
  0.000000E+00
  0.000000E+00
  0.000000E+00
  0.000000E+00
  0.000000E+00
  0.000000E+00
  0.000000E+00
  0.000000E+00
  0.000000E+00
  0.000000E+00
  0.000000E+00
  0.000000E+00
  0.000000E+00
  0.000000E+00
  0.000000E+00
  0.000000E+00
  0.000000E+00
  0.000000E+00
  0.000000E+00
  0.000000E+00
  0.000000E+00
  0.000000E+00
  0.000000E+00
  0.000000E+00
  0.000000E+00
  0.000000E+00
  0.000000E+00
  0.000000E+00
  0.000000E+00
  0.000000E+00
  0.000000E+00
  0.000000E+00
  0.000000E+00
  0.000000E+00
  0.000000E+00
  0.000000E+00
  0.000000E+00
  0.000000E+00
  0.000000E+00
  0.000000E+00
  0.000000E+00
  0.000000E+00
  0.000000E+00
  0.000000E+00
  0.000000E+00
  0.000000E+00
  0.000000E+00
  0.000000E+00
  0.000000E+00
  0.000000E+00
  0.000000E+00
  0.000000E+00
  0.000000E+00
  0.000000E+00
  0.000000E+00
  0.000000E+00
  0.000000E+00
  0.000000E+00
  0.000000E+00
  0.000000E+00
  0.000000E+00
  0.000000E+00
  0.000000E+00
  0.000000E+00
  0.000000E+00
  0.000000E+00
  0.000000E+00
  0.000000E+00
  0.000000E+00
  0.000000E+00
  0.000000E+00
  0.000000E+00
  0.000000E+00
  0.000000E+00
  0.000000E+00
  0.000000E+00
  0.000000E+00
  0.000000E+00
  0.000000E+00
  0.000000E+00
  0.000000E+00
  0.000000E+00
  0.000000E+00
  0.000000E+00
  0.000000E+00
  0.000000E+00
  0.000000E+00
  0.000000E+00
  0.000000E+00
  0.000000E+00
  0.000000E+00
  0.000000E+00
  0.000000E+00
  0.000000E+00
  0.000000E+00
  0.000000E+00
  0.000000E+00
  0.000000E+00
  0.000000E+00
  0.000000E+00
  0.000000E+00
  0.000000E+00
  0.000000E+00
  0.000000E+00
  0.000000E+00
  0.000000E+00
  0.000000E+00
  0.000000E+00
  0.000000E+00
  0.000000E+00
  0.000000E+00
  0.000000E+00
  0.000000E+00
  0.000000E+00
  0.000000E+00
  0.000000E+00
  0.000000E+00
  0.000000E+00
  0.000000E+00
  0.000000E+00
  0.000000E+00
  0.000000E+00
  0.000000E+00
  0.000000E+00
  0.000000E+00
  0.000000E+00
  0.000000E+00
  0.000000E+00
  0.000000E+00
  0.000000E+00
  0.000000E+00
  0.000000E+00
  0.000000E+00
  0.000000E+00
  0.000000E+00
  0.000000E+00
  0.000000E+00
  0.000000E+00
  0.000000E+00
  0.000000E+00
  0.000000E+00
  0.000000E+00
  0.000000E+00
  0.000000E+00
  0.000000E+00
  0.000000E+00
  0.000000E+00
  0.000000E+00
  0.000000E+00
  0.000000E+00
  0.000000E+00
  0.000000E+00
  0.000000E+00
  0.000000E+00
  0.000000E+00
  0.000000E+00
  0.000000E+00
  0.000000E+00
  0.000000E+00
  0.000000E+00
  0.000000E+00
  0.000000E+00
  0.000000E+00
  0.000000E+00
  0.000000E+00
  0.000000E+00
  0.000000E+00
  0.000000E+00
  0.000000E+00
  0.000000E+00
  0.000000E+00
  0.000000E+00
  0.000000E+00
  0.000000E+00
  0.000000E+00
  0.000000E+00
  0.000000E+00
  0.000000E+00
  0.000000E+00
  0.000000E+00
  0.000000E+00
  0.000000E+00
  0.000000E+00
  0.000000E+00
  0.000000E+00
  0.000000E+00
  0.000000E+00
  0.000000E+00
  0.000000E+00
  0.000000E+00
  0.000000E+00
  0.000000E+00
  0.000000E+00
  0.000000E+00
  0.000000E+00
  0.000000E+00
  0.000000E+00
  0.000000E+00
  0.000000E+00
  0.000000E+00
  0.000000E+00
  0.000000E+00
  0.000000E+00
  1.000000E-08
  1.691809E-02
  3.383618E-02
  5.075427E-02
  6.767237E-02
  8.459046E-02
  1.015085E-01
  1.184266E-01
  1.353447E-01
  1.522628E-01
  1.691809E-01
  1.860990E-01
  2.030171E-01
  2.199352E-01
  2.368533E-01
  2.537714E-01
  2.706895E-01
  2.876076E-01
  3.045256E-01
  3.214437E-01
  3.383618E-01
  3.552799E-01
  3.721980E-01
  3.891161E-01
  4.060342E-01
  4.229523E-01
  4.398704E-01
  4.567885E-01
  4.737066E-01
  4.906247E-01
  5.075427E-01
  5.244608E-01
  5.413789E-01
  5.582970E-01
  5.752151E-01
  5.921332E-01
  6.090513E-01
  6.259694E-01
  6.428875E-01
  6.598056E-01
  6.767237E-01
  6.936418E-01
  7.105598E-01
  7.274779E-01
  7.443960E-01
  7.613141E-01
  7.782322E-01
  7.951503E-01
  8.120684E-01
  8.289865E-01
  8.459046E-01
  8.628227E-01
  8.797408E-01
  8.966589E-01
  9.135769E-01
  9.304950E-01
  9.474131E-01
  9.643312E-01
  9.812493E-01
  9.981674E-01
  1.015085E+00
  1.032004E+00
  1.048922E+00
  1.065840E+00
  1.082758E+00
  1.099676E+00
  1.116594E+00
  1.133512E+00
  1.150430E+00
  1.167348E+00
  1.184266E+00
  1.201185E+00
  1.218103E+00
  1.235021E+00
  1.251939E+00
  1.268857E+00
  1.285775E+00
  1.302693E+00
  1.319611E+00
  1.336529E+00
  1.353447E+00
  1.370365E+00
  1.387284E+00
  1.404202E+00
  1.421120E+00
  1.438038E+00
  1.454956E+00
  1.471874E+00
  1.488792E+00
  1.505710E+00
  1.522628E+00
  1.539546E+00
  1.556464E+00
  1.573383E+00
  1.590301E+00
  1.607219E+00
  1.624137E+00
  1.641055E+00
  1.657973E+00
  1.674891E+00
  1.691809E+00
  1.708727E+00
  1.725645E+00
  1.742563E+00
  1.759482E+00
  1.776400E+00
  1.793318E+00
  1.810236E+00
  1.827154E+00
  1.844072E+00
  1.860990E+00
  1.877908E+00
  1.894826E+00
  1.911744E+00
  1.928662E+00
  1.945581E+00
  1.962499E+00
  1.979417E+00
  1.996335E+00
  2.013253E+00
  2.030171E+00
  2.047089E+00
  2.064007E+00
  2.080925E+00
  2.097843E+00
  2.114761E+00
  2.131680E+00
  2.148598E+00
  2.165516E+00
  2.182434E+00
  2.199352E+00
  2.216270E+00
  2.233188E+00
  2.250106E+00
  2.267024E+00
  2.283942E+00
  2.300860E+00
  2.317779E+00
  2.334697E+00
  2.351615E+00
  2.368533E+00
  2.385451E+00
  2.402369E+00
  2.419287E+00
  2.436205E+00
  2.453123E+00
  2.470041E+00
  2.486959E+00
  2.503878E+00
  2.520796E+00
  1.096280E+04
  1.096140E+04
  1.096001E+04
  1.095861E+04
  1.095722E+04
  1.095582E+04
  1.095443E+04
  1.095304E+04
  1.095164E+04
  1.094763E+04
  1.094351E+04
  1.093938E+04
  1.093526E+04
  1.093114E+04
  1.092702E+04
  1.092289E+04
  1.091798E+04
  1.091139E+04
  1.090481E+04
  1.089823E+04
  1.089164E+04
  1.088506E+04
  1.087847E+04
  1.087172E+04
  1.086255E+04
  1.085339E+04
  1.084422E+04
  1.083505E+04
  1.082589E+04
  1.081672E+04
  1.080704E+04
  1.079489E+04
  1.078275E+04
  1.077060E+04
  1.075846E+04
  1.074631E+04
  1.073417E+04
  1.071984E+04
  1.070420E+04
  1.068856E+04
  1.067293E+04
  1.065729E+04
  1.064165E+04
  1.062440E+04
  1.060475E+04
  1.058510E+04
  1.056545E+04
  1.054581E+04
  1.052616E+04
  1.050437E+04
  1.048037E+04
  1.045638E+04
  1.043239E+04
  1.040841E+04
  1.038442E+04
  1.035648E+04
  1.032799E+04
  1.029952E+04
  1.027105E+04
  1.024258E+04
  1.021169E+04
  1.017879E+04
  1.014590E+04
  1.011302E+04
  1.008015E+04
  1.004542E+04
  1.000868E+04
  9.971956E+03
  9.935238E+03
  9.898530E+03
  9.859830E+03
  9.820131E+03
  9.780442E+03
  9.740760E+03
  9.700861E+03
  9.658765E+03
  9.616673E+03
  9.574585E+03
  9.532501E+03
  9.488868E+03
  9.444712E+03
  9.400557E+03
  9.356403E+03
  9.311160E+03
  9.265251E+03
  9.219344E+03
  9.173438E+03
  9.126239E+03
  9.078491E+03
  9.030747E+03
  8.983007E+03
  8.933014E+03
  8.882976E+03
  8.832950E+03
  8.781671E+03
  8.728783E+03
  8.675917E+03
  8.622807E+03
  8.566463E+03
  8.510156E+03
  8.453885E+03
  8.394128E+03
  8.333949E+03
  8.273819E+03
  8.209840E+03
  8.145219E+03
  8.080653E+03
  8.010931E+03
  7.941080E+03
  7.869925E+03
  7.794222E+03
  7.718568E+03
  7.639093E+03
  7.557359E+03
  7.474708E+03
  7.386899E+03
  7.299126E+03
  7.206628E+03
  7.113034E+03
  7.016404E+03
  6.917566E+03
  6.816555E+03
  6.712982E+03
  6.607441E+03
  6.499455E+03
  6.389366E+03
  6.277449E+03
  6.163058E+03
  6.047710E+03
  5.929343E+03
  5.810010E+03
  5.688932E+03
  5.565889E+03
  5.441588E+03
  5.315651E+03
  5.187466E+03
  5.057600E+03
  4.925967E+03
  4.792731E+03
  4.659018E+03
  4.530177E+03
  4.416878E+03
  4.335923E+03
  4.315162E+03
  4.417160E+03
  4.561913E+03
  4.312360E+03
  4.618544E+03
  1.308021E+03
  7.209793E-03
  5.923103E+02
  5.922589E+02
  5.922075E+02
  5.921562E+02
  5.921048E+02
  5.920534E+02
  5.920021E+02
  5.919507E+02
  5.918993E+02
  5.918004E+02
  5.916995E+02
  5.915986E+02
  5.914977E+02
  5.913969E+02
  5.912960E+02
  5.911951E+02
  5.911021E+02
  5.910257E+02
  5.909493E+02
  5.908729E+02
  5.907965E+02
  5.907201E+02
  5.906437E+02
  5.905668E+02
  5.904830E+02
  5.903993E+02
  5.903155E+02
  5.902318E+02
  5.901481E+02
  5.900643E+02
  5.899678E+02
  5.898101E+02
  5.896525E+02
  5.894949E+02
  5.893373E+02
  5.891798E+02
  5.890222E+02
  5.888133E+02
  5.885737E+02
  5.883341E+02
  5.880947E+02
  5.878552E+02
  5.876159E+02
  5.873731E+02
  5.871254E+02
  5.868780E+02
  5.866307E+02
  5.863838E+02
  5.861370E+02
  5.859573E+02
  5.858464E+02
  5.857363E+02
  5.856270E+02
  5.855185E+02
  5.854107E+02
  5.855182E+02
  5.856567E+02
  5.857971E+02
  5.859393E+02
  5.860833E+02
  5.863418E+02
  5.866965E+02
  5.870543E+02
  5.874150E+02
  5.877787E+02
  5.881658E+02
  5.885786E+02
  5.889950E+02
  5.894150E+02
  5.898385E+02
  5.901261E+02
  5.903467E+02
  5.905703E+02
  5.907972E+02
  5.909790E+02
  5.906914E+02
  5.904055E+02
  5.901213E+02
  5.898387E+02
  5.890013E+02
  5.879770E+02
  5.869530E+02
  5.859292E+02
  5.844439E+02
  5.826768E+02
  5.809093E+02
  5.791416E+02
  5.769324E+02
  5.745344E+02
  5.721367E+02
  5.697392E+02
  5.667932E+02
  5.638353E+02
  5.608793E+02
  5.576591E+02
  5.541003E+02
  5.505462E+02
  5.469480E+02
  5.427592E+02
  5.385790E+02
  5.344072E+02
  5.298550E+02
  5.252620E+02
  5.206799E+02
  5.159913E+02
  5.112931E+02
  5.066059E+02
  5.019863E+02
  4.973782E+02
  4.928236E+02
  4.884270E+02
  4.840372E+02
  4.798484E+02
  4.757801E+02
  4.717744E+02
  4.680877E+02
  4.644033E+02
  4.610174E+02
  4.577030E+02
  4.546173E+02
  4.516981E+02
  4.489427E+02
  4.463796E+02
  4.438970E+02
  4.415141E+02
  4.391728E+02
  4.368678E+02
  4.346168E+02
  4.323874E+02
  4.302871E+02
  4.282683E+02
  4.263971E+02
  4.248064E+02
  4.234481E+02
  4.224350E+02
  4.220410E+02
  4.222333E+02
  4.232037E+02
  4.252562E+02
  4.290707E+02
  4.361830E+02
  4.488959E+02
  4.711510E+02
  5.094212E+02
  5.765406E+02
  6.638123E+02
  7.068427E+02
  8.339144E+02
  3.789979E+02
  2.362348E-03
  2.009780E+03
  2.009529E+03
  2.009277E+03
  2.009026E+03
  2.008775E+03
  2.008524E+03
  2.008273E+03
  2.008021E+03
  2.007770E+03
  2.007072E+03
  2.006356E+03
  2.005640E+03
  2.004924E+03
  2.004207E+03
  2.003491E+03
  2.002775E+03
  2.001918E+03
  2.000765E+03
  1.999612E+03
  1.998459E+03
  1.997306E+03
  1.996153E+03
  1.995000E+03
  1.993806E+03
  1.992028E+03
  1.990250E+03
  1.988472E+03
  1.986694E+03
  1.984916E+03
  1.983138E+03
  1.981193E+03
  1.978453E+03
  1.975713E+03
  1.972972E+03
  1.970232E+03
  1.967492E+03
  1.964751E+03
  1.961139E+03
  1.957004E+03
  1.952869E+03
  1.948734E+03
  1.944599E+03
  1.940464E+03
  1.935565E+03
  1.929539E+03
  1.923514E+03
  1.917489E+03
  1.911464E+03
  1.905439E+03
  1.898282E+03
  1.889968E+03
  1.881654E+03
  1.873341E+03
  1.865029E+03
  1.856717E+03
  1.846321E+03
  1.835643E+03
  1.824967E+03
  1.814292E+03
  1.803618E+03
  1.791891E+03
  1.779258E+03
  1.766627E+03
  1.753998E+03
  1.741372E+03
  1.728250E+03
  1.714588E+03
  1.700929E+03
  1.687273E+03
  1.673619E+03
  1.660099E+03
  1.646647E+03
  1.633198E+03
  1.619750E+03
  1.606430E+03
  1.594346E+03
  1.582263E+03
  1.570180E+03
  1.558098E+03
  1.547525E+03
  1.537460E+03
  1.527394E+03
  1.517328E+03
  1.508513E+03
  1.500462E+03
  1.492411E+03
  1.484360E+03
  1.477454E+03
  1.471039E+03
  1.464625E+03
  1.458212E+03
  1.452932E+03
  1.447683E+03
  1.442438E+03
  1.437403E+03
  1.432643E+03
  1.427888E+03
  1.423108E+03
  1.417965E+03
  1.412831E+03
  1.407709E+03
  1.401623E+03
  1.395423E+03
  1.389237E+03
  1.381598E+03
  1.373714E+03
  1.365837E+03
  1.355617E+03
  1.345331E+03
  1.334382E+03
  1.321141E+03
  1.307916E+03
  1.292713E+03
  1.276338E+03
  1.259485E+03
  1.239989E+03
  1.220504E+03
  1.198625E+03
  1.176185E+03
  1.152322E+03
  1.127422E+03
  1.101773E+03
  1.075241E+03
  1.048347E+03
  1.021004E+03
  9.936025E+02
  9.661500E+02
  9.390643E+02
  9.121265E+02
  8.862593E+02
  8.609642E+02
  8.366984E+02
  8.140342E+02
  7.925224E+02
  7.726109E+02
  7.550631E+02
  7.394034E+02
  7.260300E+02
  7.155736E+02
  7.096433E+02
  7.123487E+02
  7.303986E+02
  7.755157E+02
  8.650021E+02
  1.026119E+03
  1.225580E+03
  1.286623E+03
  1.397479E+03
 -5.324381E+00
  2.248808E-08
  1.232054E+00
  1.231897E+00
  1.231741E+00
  1.231584E+00
  1.231427E+00
  1.231271E+00
  1.231114E+00
  1.230957E+00
  1.230801E+00
  1.230350E+00
  1.229886E+00
  1.229423E+00
  1.228960E+00
  1.228496E+00
  1.228033E+00
  1.227570E+00
  1.227017E+00
  1.226277E+00
  1.225537E+00
  1.224797E+00
  1.224058E+00
  1.223318E+00
  1.222578E+00
  1.221818E+00
  1.220788E+00
  1.219758E+00
  1.218728E+00
  1.217698E+00
  1.216668E+00
  1.215638E+00
  1.214549E+00
  1.213184E+00
  1.211820E+00
  1.210455E+00
  1.209090E+00
  1.207725E+00
  1.206360E+00
  1.204749E+00
  1.202992E+00
  1.201235E+00
  1.199477E+00
  1.197720E+00
  1.195963E+00
  1.194023E+00
  1.191815E+00
  1.189607E+00
  1.187399E+00
  1.185191E+00
  1.182983E+00
  1.180534E+00
  1.177837E+00
  1.175141E+00
  1.172445E+00
  1.169749E+00
  1.167054E+00
  1.163913E+00
  1.160712E+00
  1.157512E+00
  1.154312E+00
  1.151113E+00
  1.147641E+00
  1.143944E+00
  1.140247E+00
  1.136552E+00
  1.132858E+00
  1.128955E+00
  1.124826E+00
  1.120699E+00
  1.116572E+00
  1.112447E+00
  1.108097E+00
  1.103636E+00
  1.099175E+00
  1.094716E+00
  1.090232E+00
  1.085501E+00
  1.080770E+00
  1.076040E+00
  1.071310E+00
  1.066407E+00
  1.061444E+00
  1.056482E+00
  1.051520E+00
  1.046435E+00
  1.041276E+00
  1.036116E+00
  1.030957E+00
  1.025653E+00
  1.020286E+00
  1.014921E+00
  1.009556E+00
  1.003937E+00
  9.983136E-01
  9.926913E-01
  9.869283E-01
  9.809846E-01
  9.750432E-01
  9.690744E-01
  9.627422E-01
  9.564141E-01
  9.500901E-01
  9.433743E-01
  9.366111E-01
  9.298534E-01
  9.226632E-01
  9.154007E-01
  9.081444E-01
  9.003087E-01
  8.924585E-01
  8.844617E-01
  8.759538E-01
  8.674515E-01
  8.585197E-01
  8.493340E-01
  8.400452E-01
  8.301768E-01
  8.203125E-01
  8.099171E-01
  7.993986E-01
  7.885387E-01
  7.774309E-01
  7.660787E-01
  7.544387E-01
  7.425774E-01
  7.304415E-01
  7.180691E-01
  7.054913E-01
  6.926355E-01
  6.796720E-01
  6.663694E-01
  6.529581E-01
  6.393508E-01
  6.255226E-01
  6.115530E-01
  5.973996E-01
  5.829936E-01
  5.683985E-01
  5.536050E-01
  5.386312E-01
  5.236038E-01
  5.091240E-01
  4.963909E-01
  4.872929E-01
  4.849596E-01
  4.964226E-01
  5.126907E-01
  4.846448E-01
  5.190552E-01
  1.470020E-01
  8.102728E-07
  1.079850E+00
  1.079757E+00
  1.079663E+00
  1.079569E+00
  1.079476E+00
  1.079382E+00
  1.079288E+00
  1.079195E+00
  1.079101E+00
  1.078921E+00
  1.078737E+00
  1.078553E+00
  1.078369E+00
  1.078185E+00
  1.078001E+00
  1.077817E+00
  1.077648E+00
  1.077508E+00
  1.077369E+00
  1.077230E+00
  1.077091E+00
  1.076951E+00
  1.076812E+00
  1.076672E+00
  1.076519E+00
  1.076366E+00
  1.076214E+00
  1.076061E+00
  1.075908E+00
  1.075756E+00
  1.075580E+00
  1.075292E+00
  1.075005E+00
  1.074718E+00
  1.074430E+00
  1.074143E+00
  1.073856E+00
  1.073475E+00
  1.073038E+00
  1.072601E+00
  1.072165E+00
  1.071728E+00
  1.071292E+00
  1.070849E+00
  1.070398E+00
  1.069947E+00
  1.069496E+00
  1.069046E+00
  1.068596E+00
  1.068268E+00
  1.068066E+00
  1.067865E+00
  1.067666E+00
  1.067468E+00
  1.067272E+00
  1.067468E+00
  1.067720E+00
  1.067976E+00
  1.068235E+00
  1.068498E+00
  1.068969E+00
  1.069616E+00
  1.070268E+00
  1.070926E+00
  1.071589E+00
  1.072295E+00
  1.073047E+00
  1.073806E+00
  1.074572E+00
  1.075344E+00
  1.075868E+00
  1.076270E+00
  1.076678E+00
  1.077092E+00
  1.077423E+00
  1.076899E+00
  1.076378E+00
  1.075860E+00
  1.075344E+00
  1.073818E+00
  1.071950E+00
  1.070083E+00
  1.068217E+00
  1.065509E+00
  1.062287E+00
  1.059065E+00
  1.055842E+00
  1.051815E+00
  1.047443E+00
  1.043072E+00
  1.038701E+00
  1.033330E+00
  1.027937E+00
  1.022548E+00
  1.016677E+00
  1.010189E+00
  1.003710E+00
  9.971497E-01
  9.895130E-01
  9.818920E-01
  9.742864E-01
  9.659871E-01
  9.576135E-01
  9.492599E-01
  9.407120E-01
  9.321466E-01
  9.236014E-01
  9.151792E-01
  9.067781E-01
  8.984746E-01
  8.904591E-01
  8.824560E-01
  8.748194E-01
  8.674024E-01
  8.600996E-01
  8.533781E-01
  8.466611E-01
  8.404883E-01
  8.344457E-01
  8.288201E-01
  8.234980E-01
  8.184746E-01
  8.138018E-01
  8.092758E-01
  8.049314E-01
  8.006629E-01
  7.964607E-01
  7.923569E-01
  7.882925E-01
  7.844632E-01
  7.807829E-01
  7.773714E-01
  7.744713E-01
  7.719951E-01
  7.701480E-01
  7.694297E-01
  7.697802E-01
  7.715495E-01
  7.752914E-01
  7.822456E-01
  7.952123E-01
  8.183893E-01
  8.589630E-01
  9.287340E-01
  1.051100E+00
  1.210207E+00
  1.288656E+00
  1.520323E+00
  6.909572E-01
  4.306834E-06
  1.295573E+00
  1.295411E+00
  1.295249E+00
  1.295087E+00
  1.294925E+00
  1.294763E+00
  1.294601E+00
  1.294439E+00
  1.294277E+00
  1.293827E+00
  1.293366E+00
  1.292904E+00
  1.292442E+00
  1.291981E+00
  1.291519E+00
  1.291057E+00
  1.290505E+00
  1.289761E+00
  1.289018E+00
  1.288275E+00
  1.287532E+00
  1.286789E+00
  1.286045E+00
  1.285275E+00
  1.284129E+00
  1.282983E+00
  1.281837E+00
  1.280691E+00
  1.279545E+00
  1.278399E+00
  1.277145E+00
  1.275378E+00
  1.273612E+00
  1.271845E+00
  1.270079E+00
  1.268312E+00
  1.266546E+00
  1.264217E+00
  1.261552E+00
  1.258886E+00
  1.256220E+00
  1.253555E+00
  1.250889E+00
  1.247731E+00
  1.243847E+00
  1.239963E+00
  1.236079E+00
  1.232195E+00
  1.228311E+00
  1.223697E+00
  1.218338E+00
  1.212979E+00
  1.207620E+00
  1.202261E+00
  1.196903E+00
  1.190202E+00
  1.183318E+00
  1.176436E+00
  1.169554E+00
  1.162674E+00
  1.155114E+00
  1.146970E+00
  1.138828E+00
  1.130687E+00
  1.122548E+00
  1.114089E+00
  1.105282E+00
  1.096477E+00
  1.087674E+00
  1.078872E+00
  1.070157E+00
  1.061485E+00
  1.052815E+00
  1.044146E+00
  1.035560E+00
  1.027770E+00
  1.019981E+00
  1.012192E+00
  1.004404E+00
  9.975878E-01
  9.910992E-01
  9.846104E-01
  9.781214E-01
  9.724391E-01
  9.672492E-01
  9.620592E-01
  9.568693E-01
  9.524174E-01
  9.482819E-01
  9.441472E-01
  9.400130E-01
  9.366096E-01
  9.332262E-01
  9.298446E-01
  9.265993E-01
  9.235305E-01
  9.204653E-01
  9.173842E-01
  9.140685E-01
  9.107594E-01
  9.074571E-01
  9.035342E-01
  8.995371E-01
  8.955497E-01
  8.906253E-01
  8.855428E-01
  8.804654E-01
  8.738770E-01
  8.672466E-01
  8.601880E-01
  8.516526E-01
  8.431276E-01
  8.333273E-01
  8.227709E-01
  8.119071E-01
  7.993395E-01
  7.867786E-01
  7.726749E-01
  7.582092E-01
  7.428263E-01
  7.267751E-01
  7.102407E-01
  6.931372E-01
  6.758006E-01
  6.581743E-01
  6.405101E-01
  6.228133E-01
  6.053529E-01
  5.879879E-01
  5.713130E-01
  5.550069E-01
  5.393644E-01
  5.247543E-01
  5.108870E-01
  4.980514E-01
  4.867395E-01
  4.766447E-01
  4.680237E-01
  4.612832E-01
  4.574603E-01
  4.592043E-01
  4.708399E-01
  4.999239E-01
  5.576099E-01
  6.614716E-01
  7.900507E-01
  8.294014E-01
  9.008628E-01
 -3.432278E-03
  1.449659E-11
  9.707622E-01
  9.706388E-01
  9.705154E-01
  9.703919E-01
  9.702685E-01
  9.701450E-01
  9.700216E-01
  9.698982E-01
  9.697747E-01
  9.694193E-01
  9.690542E-01
  9.686892E-01
  9.683242E-01
  9.679591E-01
  9.675941E-01
  9.672290E-01
  9.667937E-01
  9.662107E-01
  9.656277E-01
  9.650447E-01
  9.644617E-01
  9.638787E-01
  9.632957E-01
  9.626975E-01
  9.618859E-01
  9.610743E-01
  9.602627E-01
  9.594511E-01
  9.586395E-01
  9.578279E-01
  9.569704E-01
  9.558951E-01
  9.548197E-01
  9.537443E-01
  9.526689E-01
  9.515936E-01
  9.505182E-01
  9.492495E-01
  9.478650E-01
  9.464805E-01
  9.450960E-01
  9.437115E-01
  9.423270E-01
  9.407989E-01
  9.390594E-01
  9.373199E-01
  9.355804E-01
  9.338410E-01
  9.321016E-01
  9.301719E-01
  9.280476E-01
  9.259235E-01
  9.237996E-01
  9.216758E-01
  9.195522E-01
  9.170779E-01
  9.145561E-01
  9.120347E-01
  9.095138E-01
  9.069932E-01
  9.042579E-01
  9.013444E-01
  8.984316E-01
  8.955195E-01
  8.926080E-01
  8.895324E-01
  8.862784E-01
  8.830252E-01
  8.797727E-01
  8.765210E-01
  8.730928E-01
  8.695761E-01
  8.660601E-01
  8.625447E-01
  8.590100E-01
  8.552810E-01
  8.515523E-01
  8.478240E-01
  8.440959E-01
  8.402311E-01
  8.363202E-01
  8.324095E-01
  8.284987E-01
  8.244920E-01
  8.204268E-01
  8.163616E-01
  8.122966E-01
  8.081176E-01
  8.038902E-01
  7.996632E-01
  7.954365E-01
  7.910111E-01
  7.865815E-01
  7.821530E-01
  7.776137E-01
  7.729322E-01
  7.682525E-01
  7.635511E-01
  7.585635E-01
  7.535791E-01
  7.485977E-01
  7.433074E-01
  7.379796E-01
  7.326559E-01
  7.269911E-01
  7.212691E-01
  7.155518E-01
  7.093776E-01
  7.031918E-01
  6.968904E-01
  6.901863E-01
  6.834865E-01
  6.764483E-01
  6.692102E-01
  6.618908E-01
  6.541151E-01
  6.463425E-01
  6.381518E-01
  6.298641E-01
  6.213077E-01
  6.125559E-01
  6.036118E-01
  5.944409E-01
  5.850956E-01
  5.755339E-01
  5.657858E-01
  5.558757E-01
  5.457464E-01
  5.355321E-01
  5.250503E-01
  5.144827E-01
  5.037604E-01
  4.928640E-01
  4.818560E-01
  4.707029E-01
  4.593507E-01
  4.478493E-01
  4.361915E-01
  4.243915E-01
  4.125493E-01
  4.011384E-01
  3.911036E-01
  3.839328E-01
  3.820918E-01
  3.911204E-01
  4.039345E-01
  3.818348E-01
  4.089420E-01
  1.417563E-01
  5.238151E-02
  5.244944E-02
  5.244489E-02
  5.244034E-02
  5.243579E-02
  5.243124E-02
  5.242669E-02
  5.242215E-02
  5.241760E-02
  5.241305E-02
  5.240429E-02
  5.239536E-02
  5.238642E-02
  5.237749E-02
  5.236856E-02
  5.235962E-02
  5.235069E-02
  5.234246E-02
  5.233569E-02
  5.232893E-02
  5.232216E-02
  5.231540E-02
  5.230863E-02
  5.230187E-02
  5.229506E-02
  5.228765E-02
  5.228023E-02
  5.227282E-02
  5.226541E-02
  5.225800E-02
  5.225058E-02
  5.224204E-02
  5.222808E-02
  5.221413E-02
  5.220018E-02
  5.218623E-02
  5.217228E-02
  5.215834E-02
  5.213985E-02
  5.211864E-02
  5.209743E-02
  5.207623E-02
  5.205504E-02
  5.203385E-02
  5.201237E-02
  5.199045E-02
  5.196855E-02
  5.194668E-02
  5.192482E-02
  5.190299E-02
  5.188709E-02
  5.187729E-02
  5.186756E-02
  5.185790E-02
  5.184831E-02
  5.183878E-02
  5.184832E-02
  5.186060E-02
  5.187304E-02
  5.188564E-02
  5.189840E-02
  5.192129E-02
  5.195269E-02
  5.198435E-02
  5.201627E-02
  5.204844E-02
  5.208269E-02
  5.211919E-02
  5.215601E-02
  5.219313E-02
  5.223057E-02
  5.225595E-02
  5.227540E-02
  5.229512E-02
  5.231511E-02
  5.233111E-02
  5.230556E-02
  5.228016E-02
  5.225490E-02
  5.222978E-02
  5.215556E-02
  5.206480E-02
  5.197407E-02
  5.188335E-02
  5.175181E-02
  5.159532E-02
  5.143881E-02
  5.128227E-02
  5.108667E-02
  5.087438E-02
  5.066210E-02
  5.044985E-02
  5.018907E-02
  4.992723E-02
  4.966556E-02
  4.938050E-02
  4.906548E-02
  4.875087E-02
  4.843234E-02
  4.806153E-02
  4.769148E-02
  4.732215E-02
  4.691912E-02
  4.651248E-02
  4.610679E-02
  4.569164E-02
  4.527563E-02
  4.486058E-02
  4.445149E-02
  4.404341E-02
  4.364007E-02
  4.325071E-02
  4.286195E-02
  4.249099E-02
  4.213071E-02
  4.177597E-02
  4.144949E-02
  4.112322E-02
  4.082340E-02
  4.052992E-02
  4.025669E-02
  3.999822E-02
  3.975426E-02
  3.952733E-02
  3.930753E-02
  3.909656E-02
  3.888926E-02
  3.868517E-02
  3.848586E-02
  3.828844E-02
  3.810242E-02
  3.792363E-02
  3.775788E-02
  3.761695E-02
  3.749659E-02
  3.740678E-02
  3.737177E-02
  3.738866E-02
  3.747444E-02
  3.765601E-02
  3.799359E-02
  3.862316E-02
  3.974862E-02
  4.171899E-02
  4.510738E-02
  5.105018E-02
  5.877726E-02
  6.258686E-02
  7.383769E-02
  4.107374E-02
  1.716323E-02
  1.779672E-01
  1.779450E-01
  1.779227E-01
  1.779005E-01
  1.778783E-01
  1.778560E-01
  1.778338E-01
  1.778115E-01
  1.777893E-01
  1.777275E-01
  1.776641E-01
  1.776006E-01
  1.775372E-01
  1.774738E-01
  1.774104E-01
  1.773470E-01
  1.772711E-01
  1.771690E-01
  1.770669E-01
  1.769648E-01
  1.768627E-01
  1.767606E-01
  1.766585E-01
  1.765528E-01
  1.763953E-01
  1.762379E-01
  1.760805E-01
  1.759231E-01
  1.757656E-01
  1.756082E-01
  1.754360E-01
  1.751933E-01
  1.749507E-01
  1.747080E-01
  1.744654E-01
  1.742228E-01
  1.739801E-01
  1.736603E-01
  1.732941E-01
  1.729280E-01
  1.725619E-01
  1.721958E-01
  1.718296E-01
  1.713958E-01
  1.708623E-01
  1.703288E-01
  1.697954E-01
  1.692619E-01
  1.687284E-01
  1.680947E-01
  1.673585E-01
  1.666224E-01
  1.658864E-01
  1.651503E-01
  1.644143E-01
  1.634939E-01
  1.625484E-01
  1.616030E-01
  1.606578E-01
  1.597126E-01
  1.586742E-01
  1.575554E-01
  1.564369E-01
  1.553186E-01
  1.542004E-01
  1.530383E-01
  1.518284E-01
  1.506187E-01
  1.494092E-01
  1.482000E-01
  1.470026E-01
  1.458112E-01
  1.446200E-01
  1.434289E-01
  1.422492E-01
  1.411789E-01
  1.401087E-01
  1.390386E-01
  1.379685E-01
  1.370320E-01
  1.361406E-01
  1.352491E-01
  1.343576E-01
  1.335770E-01
  1.328641E-01
  1.321512E-01
  1.314382E-01
  1.308268E-01
  1.302588E-01
  1.296910E-01
  1.291232E-01
  1.286559E-01
  1.281914E-01
  1.277271E-01
  1.272815E-01
  1.268603E-01
  1.264395E-01
  1.260165E-01
  1.255613E-01
  1.251070E-01
  1.246536E-01
  1.241150E-01
  1.235661E-01
  1.230185E-01
  1.223421E-01
  1.216440E-01
  1.209466E-01
  1.200415E-01
  1.191307E-01
  1.181610E-01
  1.169884E-01
  1.158172E-01
  1.144709E-01
  1.130207E-01
  1.115283E-01
  1.098019E-01
  1.080764E-01
  1.061391E-01
  1.041520E-01
  1.020390E-01
  9.983415E-02
  9.756298E-02
  9.521362E-02
  9.283224E-02
  9.041105E-02
  8.798466E-02
  8.555375E-02
  8.315530E-02
  8.076992E-02
  7.847930E-02
  7.623931E-02
  7.409045E-02
  7.208339E-02
  7.017835E-02
  6.841499E-02
  6.686091E-02
  6.547400E-02
  6.428952E-02
  6.336333E-02
  6.283789E-02
  6.307709E-02
  6.467499E-02
  6.866955E-02
  7.659277E-02
  9.085845E-02
  1.085190E-01
  1.139231E-01
  1.237377E-01
 -5.770276E-04
  1.633833E-07
  9.709484E-01
  9.708250E-01
  9.707015E-01
  9.705781E-01
  9.704546E-01
  9.703312E-01
  9.702077E-01
  9.700843E-01
  9.699609E-01
  9.696054E-01
  9.692404E-01
  9.688754E-01
  9.685104E-01
  9.681453E-01
  9.677803E-01
  9.674153E-01
  9.669800E-01
  9.663970E-01
  9.658141E-01
  9.652312E-01
  9.646482E-01
  9.640653E-01
  9.634824E-01
  9.628842E-01
  9.620727E-01