 Title = "ADflow Slice Data"
Variables =  "CoordinateX"  "CoordinateY"  "CoordinateZ"  "XoC"  "YoC"  "ZoC" "VelocityX" "VelocityY" "VelocityZ" "CoefPressure" "Mach" 
Zone T= "Slice_0001 None Absolute Regular z = 0.50000000"
 Nodes =          192  Elements=          184  ZONETYPE=FELINESEG
 DATAPACKING=POINT
  5.653940E-01 -7.107980E-04  5.000000E-01  5.711040E-01 -7.889566E-04  0.000000E+00  9.370951E-03  5.938225E-04 -4.286805E-19  1.664776E-01  0.000000E+00
  5.859770E-01  6.427266E-04  5.000000E-01  5.918948E-01  5.782374E-04  0.000000E+00  9.134563E-03  6.213615E-04 -4.430927E-20  1.724172E-01  0.000000E+00
  6.063060E-01  2.073744E-03  5.000000E-01  6.124291E-01  2.023707E-03  0.000000E+00  8.866896E-03  6.376773E-04 -5.127433E-19  1.848162E-01  0.000000E+00
  6.263240E-01  3.544507E-03  5.000000E-01  6.326493E-01  3.509323E-03  0.000000E+00  8.604884E-03  6.308220E-04 -4.680424E-19  2.006372E-01  0.000000E+00
  6.459860E-01  4.982849E-03  5.000000E-01  6.525099E-01  4.962191E-03  0.000000E+00  8.374871E-03  5.977973E-04  4.688031E-19  2.173468E-01  0.000000E+00
  6.652460E-01  6.322209E-03  5.000000E-01  6.719644E-01  6.315078E-03  0.000000E+00  8.173657E-03  5.516802E-04  1.070768E-18  2.319091E-01  0.000000E+00
  6.840650E-01  7.550336E-03  5.000000E-01  6.909734E-01  7.555607E-03  0.000000E+00  7.967088E-03  5.147089E-04  3.485207E-19  2.419075E-01  0.000000E+00
  7.024070E-01  8.721599E-03  5.000000E-01  7.095007E-01  8.738699E-03  0.000000E+00  7.718762E-03  4.933084E-04 -5.805756E-19  2.497468E-01  0.000000E+00
  7.202400E-01  9.864263E-03  5.000000E-01  7.275138E-01  9.892903E-03  0.000000E+00  7.416404E-03  4.750666E-04 -3.757180E-19  2.603145E-01  0.000000E+00
  7.375350E-01  1.097328E-02  5.000000E-01  7.449834E-01  1.101312E-02  0.000000E+00  7.071291E-03  4.490676E-04 -9.972472E-19  2.748989E-01  0.000000E+00
  7.542690E-01  1.202546E-02  5.000000E-01  7.618864E-01  1.207593E-02  0.000000E+00  6.711272E-03  4.118165E-04 -6.488105E-19  2.919982E-01  0.000000E+00
  7.704220E-01  1.298965E-02  5.000000E-01  7.782026E-01  1.304985E-02  0.000000E+00  6.374142E-03  3.638553E-04  4.144109E-19  3.093621E-01  0.000000E+00
  7.859770E-01  1.383467E-02  5.000000E-01  7.939147E-01  1.390340E-02  0.000000E+00  6.106607E-03  2.984198E-04 -2.245097E-19  3.266123E-01  0.000000E+00
  8.009220E-01  1.448318E-02  5.000000E-01  8.090106E-01  1.455847E-02  0.000000E+00  5.956187E-03  2.055775E-04 -5.252047E-19  3.438133E-01  0.000000E+00
  8.152480E-01  1.484819E-02  5.000000E-01  8.234813E-01  1.492716E-02  0.000000E+00  5.942852E-03  9.290802E-05  1.518797E-19  3.564971E-01  0.000000E+00
  8.289490E-01  1.492550E-02  5.000000E-01  8.373206E-01  1.500525E-02  0.000000E+00  6.049694E-03 -2.310526E-05  4.472886E-19  3.608868E-01  0.000000E+00
  8.420260E-01  1.475442E-02  5.000000E-01  8.505297E-01  1.483245E-02  0.000000E+00  6.243951E-03 -1.345604E-04  6.458672E-19  3.587936E-01  0.000000E+00
  8.544790E-01  1.438513E-02  5.000000E-01  8.631085E-01  1.445943E-02  0.000000E+00  6.492927E-03 -2.390766E-04  7.120522E-19  3.532009E-01  0.000000E+00
  8.663160E-01  1.386825E-02  5.000000E-01  8.750650E-01  1.393733E-02  0.000000E+00  6.767158E-03 -3.351238E-04  5.199425E-19  3.456573E-01  0.000000E+00
  8.775420E-01  1.324928E-02  5.000000E-01  8.864044E-01  1.331210E-02  0.000000E+00  7.041103E-03 -4.206773E-04  8.615604E-19  3.369003E-01  0.000000E+00
  8.881660E-01  1.256732E-02  5.000000E-01  8.971357E-01  1.262325E-02  0.000000E+00  7.295346E-03 -4.937526E-04  8.857608E-19  3.275376E-01  0.000000E+00
  8.981970E-01  1.185448E-02  5.000000E-01  9.072680E-01  1.190322E-02  0.000000E+00  7.519683E-03 -5.555479E-04  4.904016E-20  3.183448E-01  0.000000E+00
  9.076460E-01  1.113081E-02  5.000000E-01  9.168124E-01  1.117224E-02  0.000000E+00  7.715462E-03 -6.122108E-04 -4.952431E-19  3.102209E-01  0.000000E+00
  9.165220E-01  1.040282E-02  5.000000E-01  9.257780E-01  1.043690E-02  0.000000E+00  7.891937E-03 -6.695002E-04 -1.714314E-19  3.031867E-01  0.000000E+00
  9.165220E-01  1.040282E-02  5.000000E-01  9.257780E-01  1.043690E-02  0.000000E+00  7.891937E-03 -6.695002E-04 -1.714314E-19  3.031867E-01  0.000000E+00
  9.248360E-01  9.674468E-03  5.000000E-01  9.341760E-01  9.701191E-03  0.000000E+00  8.059139E-03 -7.292672E-04 -1.187149E-19  2.964470E-01  0.000000E+00
  9.325990E-01  8.949940E-03  5.000000E-01  9.420174E-01  8.969346E-03  0.000000E+00  8.225347E-03 -7.922352E-04 -3.203363E-20  2.895596E-01  0.000000E+00
  9.398210E-01  8.233207E-03  5.000000E-01  9.493123E-01  8.245375E-03  0.000000E+00  8.397734E-03 -8.592797E-04  3.333381E-19  2.824360E-01  0.000000E+00
  9.465130E-01  7.528277E-03  5.000000E-01  9.560719E-01  7.533326E-03  0.000000E+00  8.582447E-03 -9.311751E-04  8.371255E-19  2.749708E-01  0.000000E+00
  9.526870E-01  6.839326E-03  5.000000E-01  9.623083E-01  6.837417E-03  0.000000E+00  8.784258E-03 -1.008529E-03  1.232310E-18  2.670217E-01  0.000000E+00
  9.583540E-01  6.170852E-03  5.000000E-01  9.680325E-01  6.162192E-03  0.000000E+00  9.006635E-03 -1.091754E-03  7.524317E-19  2.584643E-01  0.000000E+00
  9.635240E-01  5.527723E-03  5.000000E-01  9.732547E-01  5.512568E-03  0.000000E+00  9.252266E-03 -1.180928E-03 -4.162753E-19  2.491821E-01  0.000000E+00
  9.682080E-01  4.915092E-03  5.000000E-01  9.779860E-01  4.893750E-03  0.000000E+00  9.524724E-03 -1.276294E-03 -1.386147E-18  2.391269E-01  0.000000E+00
  9.724140E-01  4.338404E-03  5.000000E-01  9.822345E-01  4.311238E-03  0.000000E+00  9.830891E-03 -1.378382E-03 -1.418362E-18  2.282979E-01  0.000000E+00
  9.761510E-01  3.803219E-03  5.000000E-01  9.860092E-01  3.770648E-03  0.000000E+00  1.018117E-02 -1.487652E-03 -1.138479E-18  2.166666E-01  0.000000E+00
  9.794290E-01  3.315022E-03  5.000000E-01  9.893203E-01  3.277520E-03  0.000000E+00  1.058253E-02 -1.604623E-03 -1.095853E-18  2.042471E-01  0.000000E+00
  9.822540E-01  2.879232E-03  5.000000E-01  9.921739E-01  2.837330E-03  0.000000E+00  1.102024E-02 -1.727376E-03 -7.102625E-19  1.912942E-01  0.000000E+00
  9.846330E-01  2.500889E-03  5.000000E-01  9.945769E-01  2.455165E-03  0.000000E+00  1.143880E-02 -1.844531E-03  6.521696E-19  1.790594E-01  0.000000E+00
  9.865710E-01  2.184568E-03  5.000000E-01  9.965345E-01  2.135650E-03  0.000000E+00  1.170324E-02 -1.921471E-03  1.884856E-18  1.664011E-01  0.000000E+00
  9.880740E-01  1.934196E-03  5.000000E-01  9.980526E-01  1.882750E-03  0.000000E+00  1.159454E-02 -1.949585E-03 -1.925498E-18  1.471101E-01  0.000000E+00
  9.891450E-01  1.752979E-03  5.000000E-01  9.991345E-01  1.699702E-03  0.000000E+00  1.178864E-02 -2.086749E-03 -2.396163E-17  1.481392E-01  0.000000E+00
  9.897860E-01  1.643294E-03  5.000000E-01  9.997819E-01  1.588909E-03  0.000000E+00  1.516313E-02 -2.120196E-03 -7.158931E-17  1.955438E-01  0.000000E+00
  9.900000E-01  1.606566E-03  5.000000E-01  9.999981E-01  1.551811E-03  0.000000E+00  1.057927E-02 -4.502392E-03 -7.772594E-17 -4.824135E-02  0.000000E+00
  9.900000E-01  1.685277E-03  5.000000E-01  9.999981E-01  1.631316E-03  0.000000E+00  1.059850E-03 -1.487483E-02  3.875773E-18 -1.861132E-01  0.000000E+00
  9.900000E-01  1.763997E-03  5.000000E-01  9.999981E-01  1.710831E-03  0.000000E+00 -5.271467E-04 -1.397392E-02  8.282181E-17 -1.035572E-02  0.000000E+00
  9.900000E-01  1.842717E-03  5.000000E-01  9.999981E-01  1.790347E-03  0.000000E+00 -2.981840E-04  2.391454E-03  9.781731E-17 -1.511235E-02  0.000000E+00
  9.900000E-01  1.921427E-03  5.000000E-01  9.999981E-01  1.869852E-03  0.000000E+00  7.085022E-04  3.814651E-03  1.270654E-16 -1.325843E-01  0.000000E+00
  9.900000E-01  2.000148E-03  5.000000E-01  9.999981E-01  1.949367E-03  0.000000E+00  5.862912E-03 -2.641096E-03  1.670182E-16 -3.930602E-02  0.000000E+00
  9.900000E-01  2.000148E-03  5.000000E-01  9.999981E-01  1.949367E-03  0.000000E+00  5.862912E-03 -2.641096E-03  1.670182E-16 -3.930602E-02  0.000000E+00
  9.897900E-01  2.046448E-03  5.000000E-01  9.997860E-01  1.996135E-03  0.000000E+00  7.632352E-03 -2.011166E-03  1.207794E-16  1.017041E-01  0.000000E+00
  9.891580E-01  2.185316E-03  5.000000E-01  9.991476E-01  2.136405E-03  0.000000E+00  4.723884E-03 -9.769899E-04  4.097962E-17  5.975606E-02  0.000000E+00
  9.881040E-01  2.416585E-03  5.000000E-01  9.980830E-01  2.370011E-03  0.000000E+00  3.956377E-03 -8.655133E-04  4.435941E-18  5.018060E-02  0.000000E+00
  9.866260E-01  2.739989E-03  5.000000E-01  9.965900E-01  2.696680E-03  0.000000E+00  3.763051E-03 -8.275131E-04 -3.783782E-18  5.193837E-02  0.000000E+00
  9.847200E-01  3.155143E-03  5.000000E-01  9.946648E-01  3.116027E-03  0.000000E+00  3.682744E-03 -7.994155E-04 -3.488477E-18  4.663067E-02  0.000000E+00
  9.823820E-01  3.661492E-03  5.000000E-01  9.923032E-01  3.627489E-03  0.000000E+00  3.738127E-03 -8.062406E-04 -2.201496E-18  3.854651E-02  0.000000E+00
  9.796080E-01  4.258263E-03  5.000000E-01  9.895012E-01  4.230287E-03  0.000000E+00  3.905618E-03 -8.366451E-04 -7.351020E-19  2.964653E-02  0.000000E+00
  9.763910E-01  4.944497E-03  5.000000E-01  9.862517E-01  4.923452E-03  0.000000E+00  4.142740E-03 -8.795473E-04  7.135189E-19  1.941693E-02  0.000000E+00
  9.727270E-01  5.718838E-03  5.000000E-01  9.825507E-01  5.705613E-03  0.000000E+00  4.421552E-03 -9.289808E-04  9.477165E-19  7.759192E-03  0.000000E+00
  9.686070E-01  6.579745E-03  5.000000E-01  9.783891E-01  6.575214E-03  0.000000E+00  4.725637E-03 -9.809605E-04  8.303889E-19 -5.091064E-03  0.000000E+00
  9.640240E-01  7.525212E-03  5.000000E-01  9.737598E-01  7.530230E-03  0.000000E+00  5.046158E-03 -1.033096E-03  6.671639E-19 -1.898221E-02  0.000000E+00
  9.589680E-01  8.552891E-03  5.000000E-01  9.686527E-01  8.568287E-03  0.000000E+00  5.379401E-03 -1.084210E-03 -7.330425E-20 -3.378107E-02  0.000000E+00
  9.534310E-01  9.659937E-03  5.000000E-01  9.630598E-01  9.686514E-03  0.000000E+00  5.723735E-03 -1.133576E-03 -4.679885E-19 -4.935291E-02  0.000000E+00
  9.474030E-01  1.084308E-02  5.000000E-01  9.569709E-01  1.088161E-02  0.000000E+00  6.077304E-03 -1.180200E-03  4.094351E-19 -6.547306E-02  0.000000E+00
  9.408720E-01  1.209860E-02  5.000000E-01  9.503740E-01  1.214980E-02  0.000000E+00  6.436826E-03 -1.223119E-03  8.836318E-19 -8.196956E-02  0.000000E+00
  9.338280E-01  1.342226E-02  5.000000E-01  9.432588E-01  1.348684E-02  0.000000E+00  6.798059E-03 -1.261347E-03  6.338986E-19 -9.868084E-02  0.000000E+00
  9.262600E-01  1.480947E-02  5.000000E-01  9.356144E-01  1.488805E-02  0.000000E+00  7.155922E-03 -1.293577E-03  2.198022E-19 -1.153656E-01  0.000000E+00
  9.181550E-01  1.625504E-02  5.000000E-01  9.274275E-01  1.634822E-02  0.000000E+00  7.504220E-03 -1.318595E-03  2.882043E-19 -1.318301E-01  0.000000E+00
  9.095020E-01  1.775354E-02  5.000000E-01  9.186871E-01  1.786186E-02  0.000000E+00  7.835897E-03 -1.335179E-03  6.224967E-19 -1.477595E-01  0.000000E+00
  9.002880E-01  1.929896E-02  5.000000E-01  9.093801E-01  1.942288E-02  0.000000E+00  8.142423E-03 -1.342242E-03 -7.454259E-19 -1.626167E-01  0.000000E+00
  8.905020E-01  2.088508E-02  5.000000E-01  8.994953E-01  2.102502E-02  0.000000E+00  8.413771E-03 -1.340217E-03 -1.241770E-18 -1.760569E-01  0.000000E+00
  8.801320E-01  2.250883E-02  5.000000E-01  8.890205E-01  2.266517E-02  0.000000E+00  8.641314E-03 -1.331413E-03  1.842245E-19 -1.881386E-01  0.000000E+00
  8.691700E-01  2.417091E-02  5.000000E-01  8.779478E-01  2.434403E-02  0.000000E+00  8.821165E-03 -1.318358E-03  4.017638E-20 -1.990658E-01  0.000000E+00
  8.691700E-01  2.417091E-02  5.000000E-01  8.779478E-01  2.434403E-02  0.000000E+00  8.821165E-03 -1.318358E-03  4.017638E-20 -1.990658E-01  0.000000E+00
  8.576080E-01  2.587426E-02  5.000000E-01  8.662691E-01  2.606459E-02  0.000000E+00  8.954967E-03 -1.303347E-03 -1.343184E-18 -2.089632E-01  0.000000E+00
  8.454380E-01  2.762425E-02  5.000000E-01  8.539762E-01  2.783225E-02  0.000000E+00  9.049179E-03 -1.289576E-03 -1.162617E-18 -2.180188E-01  0.000000E+00
  8.326580E-01  2.942947E-02  5.000000E-01  8.410671E-01  2.965570E-02  0.000000E+00  9.115480E-03 -1.280984E-03 -4.145544E-20 -2.267259E-01  0.000000E+00
  8.192630E-01  3.130248E-02  5.000000E-01  8.275368E-01  3.154762E-02  0.000000E+00  9.171896E-03 -1.282259E-03 -4.629984E-19 -2.363708E-01  0.000000E+00
  8.052550E-01  3.326017E-02  5.000000E-01  8.133873E-01  3.352508E-02  0.000000E+00  9.244301E-03 -1.297270E-03 -1.162975E-18 -2.489652E-01  0.000000E+00
  7.906370E-01  3.531920E-02  5.000000E-01  7.986217E-01  3.560492E-02  0.000000E+00  9.364746E-03 -1.324982E-03 -1.250846E-18 -2.658566E-01  0.000000E+00
  7.754120E-01  3.748250E-02  5.000000E-01  7.832430E-01  3.779006E-02  0.000000E+00  9.561697E-03 -1.359303E-03 -2.360775E-18 -2.869461E-01  0.000000E+00
  7.595880E-01  3.973310E-02  5.000000E-01  7.672591E-01  4.006339E-02  0.000000E+00  9.848423E-03 -1.393896E-03 -3.028541E-18 -3.116614E-01  0.000000E+00
  7.431760E-01  4.204461E-02  5.000000E-01  7.506814E-01  4.239824E-02  0.000000E+00  1.022043E-02 -1.423623E-03 -1.213918E-18 -3.393685E-01  0.000000E+00
  7.261880E-01  4.438513E-02  5.000000E-01  7.335218E-01  4.476240E-02  0.000000E+00  1.065917E-02 -1.442513E-03  1.545541E-18 -3.687304E-01  0.000000E+00
  7.086430E-01  4.671843E-02  5.000000E-01  7.157997E-01  4.711926E-02  0.000000E+00  1.113539E-02 -1.444298E-03  4.729995E-19 -3.975502E-01  0.000000E+00
  6.905640E-01  4.900720E-02  5.000000E-01  6.975381E-01  4.943114E-02  0.000000E+00  1.161350E-02 -1.426096E-03 -4.750816E-19 -4.237725E-01  0.000000E+00
  6.719770E-01  5.122232E-02  5.000000E-01  6.787634E-01  5.166864E-02  0.000000E+00  1.205973E-02 -1.392645E-03 -1.608923E-19 -4.472405E-01  0.000000E+00
  6.529150E-01  5.335534E-02  5.000000E-01  6.595088E-01  5.382320E-02  0.000000E+00  1.245602E-02 -1.351909E-03  2.412175E-19 -4.693252E-01  0.000000E+00
  6.334180E-01  5.540756E-02  5.000000E-01  6.398149E-01  5.589615E-02  0.000000E+00  1.280664E-02 -1.306542E-03  1.558496E-19 -4.910854E-01  0.000000E+00
  6.135280E-01  5.737372E-02  5.000000E-01  6.197241E-01  5.788217E-02  0.000000E+00  1.312803E-02 -1.255834E-03  4.239010E-20 -5.132653E-01  0.000000E+00
  5.932910E-01  5.924588E-02  5.000000E-01  5.992827E-01  5.977323E-02  0.000000E+00  1.343769E-02 -1.198904E-03  1.481634E-18 -5.361063E-01  0.000000E+00
  5.727570E-01  6.101158E-02  5.000000E-01  5.785413E-01  6.155676E-02  0.000000E+00  1.374804E-02 -1.133516E-03  6.180920E-19 -5.584351E-01  0.000000E+00
  5.519810E-01  6.265361E-02  5.000000E-01  5.575555E-01  6.321537E-02  0.000000E+00  1.406119E-02 -1.058044E-03  1.594579E-19 -5.786339E-01  0.000000E+00
  5.310180E-01  6.415423E-02  5.000000E-01  5.363808E-01  6.473115E-02  0.000000E+00  1.436895E-02 -9.784640E-04  3.809680E-19 -5.976889E-01  0.000000E+00
  5.099250E-01  6.551748E-02  5.000000E-01  5.150748E-01  6.610817E-02  0.000000E+00  1.466903E-02 -9.048884E-04 -3.033359E-19 -6.191763E-01  0.000000E+00
  4.887640E-01  6.676046E-02  5.000000E-01  4.937001E-01  6.736370E-02  0.000000E+00  1.498329E-02 -8.330345E-04 -3.231124E-19 -6.442348E-01  0.000000E+00
  4.675910E-01  6.787293E-02  5.000000E-01  4.723132E-01  6.848741E-02  0.000000E+00  1.534095E-02 -7.473450E-04  4.421030E-20 -6.707141E-01  0.000000E+00
  7.860720E-05 -5.351529E-04  5.000000E-01  7.940614E-05 -6.115376E-04  0.000000E+00 -6.182448E-03  2.365065E-02 -9.669663E-17  9.016951E-01  0.000000E+00
  3.989240E-04 -1.245100E-03  5.000000E-01  4.029579E-04 -1.328654E-03  0.000000E+00 -4.868943E-03  9.498492E-03 -9.278390E-17  1.092359E+00  0.000000E+00
  1.196920E-03 -2.107907E-03  5.000000E-01  1.209013E-03 -2.200175E-03  0.000000E+00  8.885361E-04 -2.608701E-05 -5.662015E-17  1.058886E+00  0.000000E+00
  2.563580E-03 -3.012324E-03  5.000000E-01  2.589475E-03 -3.113726E-03  0.000000E+00  6.616869E-03 -3.518591E-03 -2.166970E-17  9.065777E-01  0.000000E+00
  4.492740E-03 -3.905659E-03  5.000000E-01  4.538118E-03 -4.016083E-03  0.000000E+00  1.012694E-02 -4.089453E-03  7.406259E-19  7.717978E-01  0.000000E+00
  6.952190E-03 -4.779355E-03  5.000000E-01  7.022406E-03 -4.898602E-03  0.000000E+00  1.197173E-02 -3.879400E-03  4.912938E-18  6.773172E-01  0.000000E+00
  9.910730E-03 -5.654299E-03  5.000000E-01  1.001082E-02 -5.782383E-03  0.000000E+00  1.303839E-02 -3.628487E-03 -6.182592E-19  6.050165E-01  0.000000E+00
  1.334950E-02 -6.555930E-03  5.000000E-01  1.348432E-02 -6.693119E-03  0.000000E+00  1.376972E-02 -3.371024E-03 -3.709362E-18  5.343965E-01  0.000000E+00
  1.728780E-02 -7.456759E-03  5.000000E-01  1.746240E-02 -7.603046E-03  0.000000E+00  1.423872E-02 -2.966349E-03 -3.912688E-18  4.572071E-01  0.000000E+00
  2.175590E-02 -8.298646E-03  5.000000E-01  2.197562E-02 -8.453434E-03  0.000000E+00  1.442852E-02 -2.426570E-03 -2.979948E-18  3.863929E-01  0.000000E+00
  2.676920E-02 -9.038948E-03  5.000000E-01  2.703955E-02 -9.201213E-03  0.000000E+00  1.439651E-02 -1.878298E-03 -8.474034E-19  3.361144E-01  0.000000E+00
  3.232800E-02 -9.666462E-03  5.000000E-01  3.265449E-02 -9.835065E-03  0.000000E+00  1.423944E-02 -1.416279E-03  3.067723E-19  3.071397E-01  0.000000E+00
  3.842930E-02 -1.019038E-02  5.000000E-01  3.881741E-02 -1.036428E-02  0.000000E+00  1.402874E-02 -1.066513E-03  2.223005E-19  2.914106E-01  0.000000E+00
  4.507220E-02 -1.062927E-02  5.000000E-01  4.552739E-02 -1.080760E-02  0.000000E+00  1.381876E-02 -8.327763E-04  3.277408E-20  2.827983E-01  0.000000E+00
  5.225680E-02 -1.101947E-02  5.000000E-01  5.278455E-02 -1.120174E-02  0.000000E+00  1.365921E-02 -7.064962E-04  1.187542E-19  2.778986E-01  0.000000E+00
  5.998640E-02 -1.139953E-02  5.000000E-01  6.059221E-02 -1.158564E-02  0.000000E+00  1.355969E-02 -6.413434E-04  2.176124E-19  2.708450E-01  0.000000E+00
  6.827110E-02 -1.177694E-02  5.000000E-01  6.896058E-02 -1.196686E-02  0.000000E+00  1.349095E-02 -5.897284E-04 -2.317709E-19  2.586703E-01  0.000000E+00
  7.712280E-02 -1.214740E-02  5.000000E-01  7.790167E-02 -1.234106E-02  0.000000E+00  1.342773E-02 -5.398206E-04 -3.006508E-19  2.446443E-01  0.000000E+00
  8.655260E-02 -1.251019E-02  5.000000E-01  8.742671E-02 -1.270751E-02  0.000000E+00  1.335696E-02 -4.910301E-04 -9.146275E-20  2.314889E-01  0.000000E+00
  9.657140E-02 -1.286141E-02  5.000000E-01  9.754669E-02 -1.306228E-02  0.000000E+00  1.326484E-02 -4.340793E-04  1.845077E-21  2.186593E-01  0.000000E+00
  1.071900E-01 -1.318439E-02  5.000000E-01  1.082725E-01 -1.338852E-02  0.000000E+00  1.314739E-02 -3.671819E-04  2.575030E-19  2.063117E-01  0.000000E+00
  1.184180E-01 -1.346928E-02  5.000000E-01  1.196139E-01 -1.367629E-02  0.000000E+00  1.302715E-02 -3.068095E-04  3.286288E-19  1.965685E-01  0.000000E+00
  1.302610E-01 -1.372586E-02  5.000000E-01  1.315765E-01 -1.393546E-02  0.000000E+00  1.293827E-02 -2.679604E-04  3.077085E-19  1.894889E-01  0.000000E+00
  1.427230E-01 -1.397190E-02  5.000000E-01  1.441644E-01 -1.418398E-02  0.000000E+00  1.290221E-02 -2.534083E-04  4.499596E-21  1.828524E-01  0.000000E+00
  1.427230E-01 -1.397190E-02  5.000000E-01  1.441644E-01 -1.418398E-02  0.000000E+00  1.290221E-02 -2.534083E-04  4.499596E-21  1.828524E-01  0.000000E+00
  1.558070E-01 -1.422783E-02  5.000000E-01  1.573805E-01 -1.444250E-02  0.000000E+00  1.291386E-02 -2.527482E-04 -7.975812E-20  1.741022E-01  0.000000E+00
  1.695140E-01 -1.449693E-02  5.000000E-01  1.712259E-01 -1.471432E-02  0.000000E+00  1.294261E-02 -2.463574E-04  7.537858E-20  1.618198E-01  0.000000E+00
  1.838420E-01 -1.476142E-02  5.000000E-01  1.856986E-01 -1.498147E-02  0.000000E+00  1.294967E-02 -2.164720E-04  3.372927E-19  1.470069E-01  0.000000E+00
  1.987870E-01 -1.498545E-02  5.000000E-01  2.007946E-01 -1.520777E-02  0.000000E+00  1.290571E-02 -1.520933E-04  5.297665E-19  1.316580E-01  0.000000E+00
  2.143420E-01 -1.511886E-02  5.000000E-01  2.165067E-01 -1.534252E-02  0.000000E+00  1.280908E-02 -6.260332E-05  7.142960E-20  1.186284E-01  0.000000E+00
  2.304940E-01 -1.513629E-02  5.000000E-01  2.328218E-01 -1.536013E-02  0.000000E+00  1.269344E-02  1.808367E-05 -2.951603E-19  1.114344E-01  0.000000E+00
  2.472290E-01 -1.506863E-02  5.000000E-01  2.497258E-01 -1.529179E-02  0.000000E+00  1.259584E-02  6.870771E-05 -1.091578E-19  1.091730E-01  0.000000E+00
  2.645310E-01 -1.495046E-02  5.000000E-01  2.672025E-01 -1.517242E-02  0.000000E+00  1.252113E-02  1.036175E-04  1.619887E-19  1.063134E-01  0.000000E+00
  2.823750E-01 -1.477872E-02  5.000000E-01  2.852267E-01 -1.499895E-02  0.000000E+00  1.244868E-02  1.479381E-04  4.147267E-19  9.973700E-02  0.000000E+00
  3.007320E-01 -1.451942E-02  5.000000E-01  3.037691E-01 -1.473703E-02  0.000000E+00  1.235937E-02  2.104281E-04  7.506544E-19  9.161916E-02  0.000000E+00
  3.195690E-01 -1.414282E-02  5.000000E-01  3.227964E-01 -1.435663E-02  0.000000E+00  1.224593E-02  2.831504E-04  3.332802E-19  8.565859E-02  0.000000E+00
  3.388440E-01 -1.363533E-02  5.000000E-01  3.422660E-01 -1.384402E-02  0.000000E+00  1.210376E-02  3.560507E-04 -2.497014E-20  8.322600E-02  0.000000E+00
  3.585140E-01 -1.299520E-02  5.000000E-01  3.621347E-01 -1.319742E-02  0.000000E+00  1.192020E-02  4.260105E-04 -2.156144E-19  8.330824E-02  0.000000E+00
  3.785290E-01 -1.221552E-02  5.000000E-01  3.823518E-01 -1.240986E-02  0.000000E+00  1.167636E-02  4.938914E-04 -4.321697E-19  8.490026E-02  0.000000E+00
  3.988350E-01 -1.128710E-02  5.000000E-01  4.028629E-01 -1.147207E-02  0.000000E+00  1.136057E-02  5.590503E-04  1.008190E-19  8.867530E-02  0.000000E+00
  4.193750E-01 -1.020242E-02  5.000000E-01  4.236103E-01 -1.037643E-02  0.000000E+00  1.097835E-02  6.237808E-04  2.142690E-19  9.528239E-02  0.000000E+00
  4.400850E-01 -8.940104E-03  5.000000E-01  4.445295E-01 -9.101371E-03  0.000000E+00  1.056262E-02  6.856504E-04  2.737086E-19  1.052534E-01  0.000000E+00
  4.609060E-01 -7.502007E-03  5.000000E-01  4.655607E-01 -7.648750E-03  0.000000E+00  1.017928E-02  7.222864E-04 -2.153845E-19  1.204652E-01  0.000000E+00
  4.818030E-01 -5.975302E-03  5.000000E-01  4.866688E-01 -6.106627E-03  0.000000E+00  9.899962E-03  7.060834E-04 -2.722193E-19  1.411061E-01  0.000000E+00
  5.027520E-01 -4.517020E-03  5.000000E-01  5.078293E-01 -4.633618E-03  0.000000E+00  9.744720E-03  6.441759E-04 -2.515724E-19  1.607073E-01  0.000000E+00
  5.237130E-01 -3.209927E-03  5.000000E-01  5.290020E-01 -3.313325E-03  0.000000E+00  9.656160E-03  5.857142E-04 -4.399655E-19  1.699816E-01  0.000000E+00
  5.446170E-01 -1.983432E-03  5.000000E-01  5.501171E-01 -2.074443E-03  0.000000E+00  9.546856E-03  5.720580E-04 -3.567317E-19  1.683269E-01  0.000000E+00
  5.653940E-01 -7.107980E-04  5.000000E-01  5.711040E-01 -7.889566E-04  0.000000E+00  9.370951E-03  5.938225E-04 -4.286805E-19  1.664776E-01  0.000000E+00
  4.675910E-01  6.787293E-02  5.000000E-01  4.723132E-01  6.848741E-02  0.000000E+00  1.534095E-02 -7.473450E-04  4.421030E-20 -6.707141E-01  0.000000E+00
  4.464640E-01  6.882374E-02  5.000000E-01  4.509729E-01  6.944781E-02  0.000000E+00  1.574942E-02 -6.436460E-04  8.431953E-19 -6.976751E-01  0.000000E+00
  4.254410E-01  6.959805E-02  5.000000E-01  4.297376E-01  7.022995E-02  0.000000E+00  1.620032E-02 -5.251012E-04  8.263645E-19 -7.255761E-01  0.000000E+00
  4.045840E-01  7.018424E-02  5.000000E-01  4.086699E-01  7.082206E-02  0.000000E+00  1.668474E-02 -3.903382E-04  3.900944E-19 -7.544592E-01  0.000000E+00
  3.839530E-01  7.057222E-02  5.000000E-01  3.878306E-01  7.121395E-02  0.000000E+00  1.719551E-02 -2.349372E-04  5.677491E-19 -7.837165E-01  0.000000E+00
  3.636060E-01  7.074858E-02  5.000000E-01  3.672781E-01  7.139209E-02  0.000000E+00  1.772552E-02 -5.427535E-05 -2.126380E-21 -8.119132E-01  0.000000E+00
  3.435960E-01  7.070139E-02  5.000000E-01  3.470660E-01  7.134443E-02  0.000000E+00  1.826345E-02  1.536400E-04 -2.005088E-19 -8.375136E-01  0.000000E+00
  3.239710E-01  7.042125E-02  5.000000E-01  3.272428E-01  7.106146E-02  0.000000E+00  1.879200E-02  3.842857E-04  5.428898E-20 -8.604149E-01  0.000000E+00
  3.047740E-01  6.991287E-02  5.000000E-01  3.078519E-01  7.054794E-02  0.000000E+00  1.929734E-02  6.292491E-04  5.248665E-19 -8.818818E-01  0.000000E+00
  2.860450E-01  6.919001E-02  5.000000E-01  2.889338E-01  6.981779E-02  0.000000E+00  1.978256E-02  8.907183E-04  1.519283E-18 -9.017653E-01  0.000000E+00
  2.678190E-01  6.825524E-02  5.000000E-01  2.705237E-01  6.887357E-02  0.000000E+00  2.025519E-02  1.174866E-03  9.828757E-19 -9.191281E-01  0.000000E+00
  2.501300E-01  6.711314E-02  5.000000E-01  2.526561E-01  6.771994E-02  0.000000E+00  2.071312E-02  1.479778E-03 -5.531047E-19 -9.342425E-01  0.000000E+00
  2.330040E-01  6.577407E-02  5.000000E-01  2.353571E-01  6.636735E-02  0.000000E+00  2.115155E-02  1.801847E-03 -8.081858E-19 -9.476798E-01  0.000000E+00
  2.164660E-01  6.425125E-02  5.000000E-01  2.186521E-01  6.482915E-02  0.000000E+00  2.157010E-02  2.139851E-03 -4.329490E-19 -9.590212E-01  0.000000E+00
  2.005340E-01  6.255957E-02  5.000000E-01  2.025592E-01  6.312038E-02  0.000000E+00  2.197575E-02  2.499809E-03  5.727490E-19 -9.657520E-01  0.000000E+00
  1.852230E-01  6.070527E-02  5.000000E-01  1.870936E-01  6.124735E-02  0.000000E+00  2.236816E-02  2.882532E-03  9.447462E-19 -9.664669E-01  0.000000E+00
  1.705440E-01  5.870238E-02  5.000000E-01  1.722663E-01  5.922424E-02  0.000000E+00  2.273588E-02  3.272213E-03 -2.201095E-20 -9.654202E-01  0.000000E+00
  1.565000E-01  5.657671E-02  5.000000E-01  1.580805E-01  5.707710E-02  0.000000E+00  2.308740E-02  3.658269E-03  3.800802E-19 -9.706441E-01  0.000000E+00
  1.430940E-01  5.435633E-02  5.000000E-01  1.445391E-01  5.483430E-02  0.000000E+00  2.347636E-02  4.068392E-03 -4.222557E-19 -9.855339E-01  0.000000E+00
  1.303270E-01  5.204659E-02  5.000000E-01  1.316432E-01  5.250123E-02  0.000000E+00  2.397209E-02  4.575968E-03 -1.771480E-18 -1.000891E+00  0.000000E+00
  1.182110E-01  4.961684E-02  5.000000E-01  1.194048E-01  5.004695E-02  0.000000E+00  2.456260E-02  5.223159E-03 -1.599609E-18 -1.001431E+00  0.000000E+00
  1.067560E-01  4.704866E-02  5.000000E-01  1.078341E-01  4.745283E-02  0.000000E+00  2.511577E-02  5.969776E-03 -1.931934E-18 -9.775432E-01  0.000000E+00
  9.596750E-02  4.434322E-02  5.000000E-01  9.693669E-02  4.472007E-02  0.000000E+00  2.544286E-02  6.676831E-03 -1.017690E-18 -9.370988E-01  0.000000E+00
  8.582800E-02  4.156273E-02  5.000000E-01  8.669479E-02  4.191150E-02  0.000000E+00  2.546564E-02  7.216454E-03  3.151683E-20 -8.990034E-01  0.000000E+00
  8.582800E-02  4.156273E-02  5.000000E-01  8.669479E-02  4.191150E-02  0.000000E+00  2.546564E-02  7.216454E-03  3.151683E-20 -8.990034E-01  0.000000E+00
  7.631050E-02  3.877654E-02  5.000000E-01  7.708117E-02  3.909717E-02  0.000000E+00  2.531577E-02  7.660231E-03 -5.693015E-19 -8.673151E-01  0.000000E+00
  6.740780E-02  3.599507E-02  5.000000E-01  6.808856E-02  3.628760E-02  0.000000E+00  2.515974E-02  8.146283E-03 -3.153925E-19 -8.345523E-01  0.000000E+00
  5.911740E-02  3.321674E-02  5.000000E-01  5.971444E-02  3.348121E-02  0.000000E+00  2.504852E-02  8.700855E-03  2.277709E-19 -7.973017E-01  0.000000E+00
  5.143150E-02  3.045291E-02  5.000000E-01  5.195092E-02  3.068948E-02  0.000000E+00  2.495306E-02  9.290271E-03  5.588035E-19 -7.559502E-01  0.000000E+00
  4.433770E-02  2.772148E-02  5.000000E-01  4.478548E-02  2.793046E-02  0.000000E+00  2.482554E-02  9.886863E-03 -4.201240E-19 -7.130011E-01  0.000000E+00
  3.782240E-02  2.504007E-02  5.000000E-01  3.820438E-02  2.522197E-02  0.000000E+00  2.463638E-02  1.048995E-02 -1.721679E-18 -6.722313E-01  0.000000E+00
  3.187460E-02  2.242115E-02  5.000000E-01  3.219651E-02  2.257660E-02  0.000000E+00  2.439055E-02  1.112388E-02 -2.665625E-18 -6.362329E-01  0.000000E+00
  2.648400E-02  1.987582E-02  5.000000E-01  2.675147E-02  2.000557E-02  0.000000E+00  2.411580E-02  1.185878E-02 -3.933419E-18 -5.975046E-01  0.000000E+00
  2.164990E-02  1.740444E-02  5.000000E-01  2.186855E-02  1.750923E-02  0.000000E+00  2.377293E-02  1.274952E-02 -6.753566E-18 -5.368313E-01  0.000000E+00
  1.737670E-02  1.500625E-02  5.000000E-01  1.755219E-02  1.508682E-02  0.000000E+00  2.319193E-02  1.362679E-02 -1.382343E-17 -4.479338E-01  0.000000E+00
  1.364080E-02  1.270983E-02  5.000000E-01  1.377856E-02  1.276721E-02  0.000000E+00  2.224208E-02  1.416737E-02 -1.992788E-17 -3.524858E-01  0.000000E+00
  1.039090E-02  1.056182E-02  5.000000E-01  1.049584E-02  1.059750E-02  0.000000E+00  2.103668E-02  1.432408E-02 -2.283862E-17 -2.769808E-01  0.000000E+00
  7.586340E-03  8.591613E-03  5.000000E-01  7.662960E-03  8.607400E-03  0.000000E+00  1.987042E-02  1.451844E-02 -2.462032E-17 -2.243684E-01  0.000000E+00
  5.226210E-03  6.797359E-03  5.000000E-01  5.278995E-03  6.795026E-03  0.000000E+00  1.900845E-02  1.533284E-02 -3.091109E-17 -1.803469E-01  0.000000E+00
  3.324300E-03  5.171599E-03  5.000000E-01  3.357877E-03  5.152848E-03  0.000000E+00  1.854914E-02  1.725419E-02 -4.797038E-17 -1.316820E-01  0.000000E+00
  1.883580E-03  3.721277E-03  5.000000E-01  1.902608E-03  3.687879E-03  0.000000E+00  1.822202E-02  2.073480E-02 -7.037778E-17 -5.630910E-02  0.000000E+00
  8.951490E-04  2.465772E-03  5.000000E-01  9.041943E-04  2.419694E-03  0.000000E+00  1.701452E-02  2.579155E-02 -8.809854E-17  7.990573E-02  0.000000E+00
  3.201820E-04  1.438874E-03  5.000000E-01  3.234206E-04  1.382425E-03  0.000000E+00  1.349574E-02  3.086966E-02 -9.782389E-17  2.888339E-01  0.000000E+00
  6.852390E-05  6.809379E-04  5.000000E-01  6.922101E-05  6.168347E-04  0.000000E+00  7.855218E-03  3.288394E-02 -1.021091E-16  4.995959E-01  0.000000E+00
  4.217600E-06  2.226118E-04  5.000000E-01  4.265277E-06  1.538799E-04  0.000000E+00  2.754573E-03  3.176194E-02 -9.385812E-17  5.718074E-01  0.000000E+00
 -5.032520E-09  7.027046E-05  5.000000E-01  0.000000E+00  0.000000E+00  0.000000E+00 -3.913697E-04  3.356991E-02 -7.040092E-17  5.406521E-01  0.000000E+00
  5.154440E-06 -8.266007E-05  5.000000E-01  5.211578E-06 -1.544750E-04  0.000000E+00 -3.364221E-03  3.372104E-02 -7.010550E-17  6.385355E-01  0.000000E+00