 Title = "ADflow Slice Data"
Variables =  "CoordinateX"  "CoordinateY"  "CoordinateZ"  "XoC"  "YoC"  "ZoC" "VelocityX" "VelocityY" "VelocityZ" "CoefPressure" "Mach" 
Zone T= "Slice_0001 None Absolute Regular z = 0.50000000"
 Nodes =          192  Elements=          184  ZONETYPE=FELINESEG
 DATAPACKING=POINT
  5.653940E-01 -2.669653E-03  5.000000E-01  5.711040E-01 -2.772044E-03  0.000000E+00  9.768903E-03  6.152709E-04  1.436902E-17  1.433907E-01  0.000000E+00
  5.859770E-01 -1.294154E-03  5.000000E-01  5.918948E-01 -1.382654E-03  0.000000E+00  9.468805E-03  6.652658E-04  5.687653E-18  1.502283E-01  0.000000E+00
  6.063060E-01  2.073297E-04  5.000000E-01  6.124291E-01  1.339938E-04  0.000000E+00  9.126442E-03  6.966132E-04 -8.379524E-18  1.650416E-01  0.000000E+00
  6.263240E-01  1.786164E-03  5.000000E-01  6.326493E-01  1.728773E-03  0.000000E+00  8.786782E-03  6.979298E-04 -9.759218E-18  1.839127E-01  0.000000E+00
  6.459860E-01  3.359357E-03  5.000000E-01  6.525099E-01  3.317854E-03  0.000000E+00  8.481686E-03  6.681203E-04  7.180530E-20  2.037830E-01  0.000000E+00
  6.652460E-01  4.851306E-03  5.000000E-01  6.719644E-01  4.824870E-03  0.000000E+00  8.211116E-03  6.221753E-04  7.449748E-18  2.213824E-01  0.000000E+00
  6.840650E-01  6.241778E-03  5.000000E-01  6.909734E-01  6.229385E-03  0.000000E+00  7.943192E-03  5.827491E-04  6.103423E-18  2.342937E-01  0.000000E+00
  7.024070E-01  7.576245E-03  5.000000E-01  7.095007E-01  7.577328E-03  0.000000E+00  7.643897E-03  5.559876E-04  2.187378E-18  2.449238E-01  0.000000E+00
  7.202400E-01  8.875013E-03  5.000000E-01  7.275138E-01  8.889213E-03  0.000000E+00  7.302995E-03  5.300263E-04  2.982758E-18  2.580008E-01  0.000000E+00
  7.375350E-01  1.012712E-02  5.000000E-01  7.449834E-01  1.015396E-02  0.000000E+00  6.932575E-03  4.952356E-04  6.237792E-18  2.746247E-01  0.000000E+00
  7.542690E-01  1.130584E-02  5.000000E-01  7.618864E-01  1.134459E-02  0.000000E+00  6.559759E-03  4.494535E-04  7.366435E-18  2.932084E-01  0.000000E+00
  7.704220E-01  1.237853E-02  5.000000E-01  7.782026E-01  1.242812E-02  0.000000E+00  6.220348E-03  3.941546E-04  7.476224E-18  3.115346E-01  0.000000E+00
  7.859770E-01  1.331412E-02  5.000000E-01  7.939147E-01  1.337315E-02  0.000000E+00  5.958268E-03  3.232460E-04  1.728267E-18  3.293151E-01  0.000000E+00
  8.009220E-01  1.403638E-02  5.000000E-01  8.090106E-01  1.410271E-02  0.000000E+00  5.818063E-03  2.271593E-04 -1.404670E-17  3.467026E-01  0.000000E+00
  8.152480E-01  1.446058E-02  5.000000E-01  8.234813E-01  1.453119E-02  0.000000E+00  5.817271E-03  1.129756E-04 -2.702669E-17  3.593466E-01  0.000000E+00
  8.289490E-01  1.458541E-02  5.000000E-01  8.373206E-01  1.465728E-02  0.000000E+00  5.937433E-03 -3.744984E-06 -2.694538E-17  3.635970E-01  0.000000E+00
  8.420260E-01  1.445283E-02  5.000000E-01  8.505297E-01  1.452336E-02  0.000000E+00  6.144934E-03 -1.156712E-04 -1.820645E-17  3.613270E-01  0.000000E+00
  8.544790E-01  1.411519E-02  5.000000E-01  8.631085E-01  1.418231E-02  0.000000E+00  6.406670E-03 -2.206602E-04 -9.133376E-18  3.555333E-01  0.000000E+00
  8.663160E-01  1.362483E-02  5.000000E-01  8.750650E-01  1.368699E-02  0.000000E+00  6.692999E-03 -3.172553E-04 -3.618431E-18  3.477655E-01  0.000000E+00
  8.775420E-01  1.302852E-02  5.000000E-01  8.864044E-01  1.308466E-02  0.000000E+00  6.978289E-03 -4.034282E-04 -1.473426E-18  3.387655E-01  0.000000E+00
  8.881660E-01  1.236633E-02  5.000000E-01  8.971357E-01  1.241579E-02  0.000000E+00  7.243046E-03 -4.771503E-04 -1.077814E-18  3.291507E-01  0.000000E+00
  8.981970E-01  1.167108E-02  5.000000E-01  9.072680E-01  1.171352E-02  0.000000E+00  7.476938E-03 -5.395155E-04  3.477876E-20  3.197021E-01  0.000000E+00
  9.076460E-01  1.096342E-02  5.000000E-01  9.168124E-01  1.099872E-02  0.000000E+00  7.681108E-03 -5.965117E-04 -4.866111E-18  3.113204E-01  0.000000E+00
  9.165220E-01  1.025040E-02  5.000000E-01  9.257781E-01  1.027849E-02  0.000000E+00  7.864613E-03 -6.538040E-04 -4.675382E-19  3.040407E-01  0.000000E+00
  9.165220E-01  1.025040E-02  5.000000E-01  9.257781E-01  1.027849E-02  0.000000E+00  7.864613E-03 -6.538040E-04 -4.675382E-19  3.040407E-01  0.000000E+00
  9.248360E-01  9.536336E-03  5.000000E-01  9.341760E-01  9.557215E-03  0.000000E+00  8.037407E-03 -7.132619E-04  3.976833E-18  2.970893E-01  0.000000E+00
  9.325990E-01  8.825601E-03  5.000000E-01  9.420174E-01  8.839302E-03  0.000000E+00  8.207826E-03 -7.756626E-04 -2.859619E-18  2.900329E-01  0.000000E+00
  9.398210E-01  8.122236E-03  5.000000E-01  9.493124E-01  8.128834E-03  0.000000E+00  8.383179E-03 -8.419348E-04 -4.473975E-18  2.827816E-01  0.000000E+00
  9.465130E-01  7.430234E-03  5.000000E-01  9.560719E-01  7.429842E-03  0.000000E+00  8.569793E-03 -9.129028E-04 -5.562346E-18  2.752259E-01  0.000000E+00
  9.526870E-01  6.753704E-03  5.000000E-01  9.623083E-01  6.746480E-03  0.000000E+00  8.772650E-03 -9.892181E-04 -6.500566E-18  2.672192E-01  0.000000E+00
  9.583540E-01  6.097053E-03  5.000000E-01  9.680325E-01  6.083198E-03  0.000000E+00  8.995421E-03 -1.071333E-03 -6.597888E-18  2.586319E-01  0.000000E+00
  9.635240E-01  5.465046E-03  5.000000E-01  9.732547E-01  5.444808E-03  0.000000E+00  9.240981E-03 -1.159354E-03 -2.886141E-18  2.493420E-01  0.000000E+00
  9.682080E-01  4.862744E-03  5.000000E-01  9.779860E-01  4.836424E-03  0.000000E+00  9.513051E-03 -1.253545E-03  7.797902E-18  2.392956E-01  0.000000E+00
  9.724140E-01  4.295510E-03  5.000000E-01  9.822345E-01  4.263461E-03  0.000000E+00  9.818609E-03 -1.354435E-03  2.533204E-17  2.284866E-01  0.000000E+00
  9.761510E-01  3.768842E-03  5.000000E-01  9.860093E-01  3.731474E-03  0.000000E+00  1.016813E-02 -1.462467E-03  4.499086E-17  2.168832E-01  0.000000E+00
  9.794290E-01  3.288182E-03  5.000000E-01  9.893204E-01  3.245960E-03  0.000000E+00  1.056867E-02 -1.578149E-03  7.516200E-17  2.044954E-01  0.000000E+00
  9.822540E-01  2.858924E-03  5.000000E-01  9.921739E-01  2.812367E-03  0.000000E+00  1.100573E-02 -1.699624E-03  1.944751E-16  1.915736E-01  0.000000E+00
  9.846330E-01  2.486094E-03  5.000000E-01  9.945769E-01  2.435772E-03  0.000000E+00  1.142436E-02 -1.815730E-03  5.981462E-16  1.793669E-01  0.000000E+00
  9.865710E-01  2.174267E-03  5.000000E-01  9.965345E-01  2.120795E-03  0.000000E+00  1.169061E-02 -1.892307E-03  1.387849E-15  1.667392E-01  0.000000E+00
  9.880740E-01  1.927377E-03  5.000000E-01  9.980527E-01  1.871412E-03  0.000000E+00  1.158634E-02 -1.921317E-03  1.898256E-15  1.474596E-01  0.000000E+00
  9.891450E-01  1.748637E-03  5.000000E-01  9.991345E-01  1.690867E-03  0.000000E+00  1.178684E-02 -2.059248E-03  7.315419E-15  1.484187E-01  0.000000E+00
  9.897860E-01  1.640433E-03  5.000000E-01  9.997820E-01  1.581570E-03  0.000000E+00  1.516994E-02 -2.086740E-03  8.303471E-14  1.958595E-01  0.000000E+00
  9.900000E-01  1.604200E-03  5.000000E-01  9.999981E-01  1.544971E-03  0.000000E+00  1.058515E-02 -4.472000E-03  5.575137E-14 -4.782271E-02  0.000000E+00
  9.900000E-01  1.682910E-03  5.000000E-01  9.999981E-01  1.624476E-03  0.000000E+00  1.059893E-03 -1.486147E-02 -1.725381E-13 -1.856884E-01  0.000000E+00
  9.900000E-01  1.761630E-03  5.000000E-01  9.999981E-01  1.703992E-03  0.000000E+00 -5.271050E-04 -1.396561E-02 -1.715530E-13 -9.860168E-03  0.000000E+00
  9.900000E-01  1.840351E-03  5.000000E-01  9.999981E-01  1.783507E-03  0.000000E+00 -2.989366E-04  2.412736E-03 -6.590948E-14 -1.457082E-02  0.000000E+00
  9.900000E-01  1.919061E-03  5.000000E-01  9.999981E-01  1.863012E-03  0.000000E+00  7.099372E-04  3.833794E-03 -8.495133E-14 -1.322662E-01  0.000000E+00
  9.900000E-01  1.997781E-03  5.000000E-01  9.999981E-01  1.942527E-03  0.000000E+00  5.874495E-03 -2.628815E-03 -4.427726E-14 -3.874823E-02  0.000000E+00
  9.900000E-01  1.997781E-03  5.000000E-01  9.999981E-01  1.942527E-03  0.000000E+00  5.874495E-03 -2.628815E-03 -4.427726E-14 -3.874823E-02  0.000000E+00
  9.897900E-01  2.043582E-03  5.000000E-01  9.997860E-01  1.988791E-03  0.000000E+00  7.647275E-03 -1.997121E-03 -9.386543E-15  1.026271E-01  0.000000E+00
  9.891580E-01  2.180941E-03  5.000000E-01  9.991476E-01  2.127537E-03  0.000000E+00  4.736831E-03 -9.683845E-04 -4.911796E-15  6.053360E-02  0.000000E+00
  9.881040E-01  2.409676E-03  5.000000E-01  9.980830E-01  2.358582E-03  0.000000E+00  3.974671E-03 -8.598876E-04 -6.106507E-16  5.088951E-02  0.000000E+00
  9.866260E-01  2.729488E-03  5.000000E-01  9.965900E-01  2.681624E-03  0.000000E+00  3.786770E-03 -8.234396E-04  5.048744E-16  5.264576E-02  0.000000E+00
  9.847200E-01  3.139944E-03  5.000000E-01  9.946648E-01  3.096225E-03  0.000000E+00  3.710112E-03 -7.961366E-04  4.750836E-16  4.733114E-02  0.000000E+00
  9.823820E-01  3.640431E-03  5.000000E-01  9.923032E-01  3.601767E-03  0.000000E+00  3.767934E-03 -8.031297E-04  2.568832E-16  3.924236E-02  0.000000E+00
  9.796080E-01  4.230108E-03  5.000000E-01  9.895012E-01  4.197399E-03  0.000000E+00  3.937100E-03 -8.332047E-04  1.200445E-16  3.034925E-02  0.000000E+00
  9.763910E-01  4.907931E-03  5.000000E-01  9.862517E-01  4.882067E-03  0.000000E+00  4.175380E-03 -8.754229E-04  5.935295E-17  2.014043E-02  0.000000E+00
  9.727270E-01  5.672458E-03  5.000000E-01  9.825507E-01  5.654315E-03  0.000000E+00  4.454957E-03 -9.239082E-04  3.241157E-17  8.521362E-03  0.000000E+00
  9.686070E-01  6.522043E-03  5.000000E-01  9.783891E-01  6.512480E-03  0.000000E+00  4.759403E-03 -9.747122E-04  1.804213E-17 -4.266822E-03  0.000000E+00
  9.640240E-01  7.454579E-03  5.000000E-01  9.737598E-01  7.454434E-03  0.000000E+00  5.079774E-03 -1.025449E-03  9.423960E-18 -1.806650E-02  0.000000E+00
  9.589680E-01  8.467610E-03  5.000000E-01  9.686527E-01  8.477695E-03  0.000000E+00  5.412195E-03 -1.074930E-03  4.961032E-18 -3.273858E-02  0.000000E+00
  9.534310E-01  9.558193E-03  5.000000E-01  9.630598E-01  9.579292E-03  0.000000E+00  5.754849E-03 -1.122411E-03  3.005482E-18 -4.814202E-02  0.000000E+00
  9.474030E-01  1.072297E-02  5.000000E-01  9.569709E-01  1.075583E-02  0.000000E+00  6.105680E-03 -1.166898E-03  2.350689E-18 -6.404562E-02  0.000000E+00
  9.408720E-01  1.195814E-02  5.000000E-01  9.503740E-01  1.200348E-02  0.000000E+00  6.461205E-03 -1.207438E-03  2.275087E-18 -8.027154E-02  0.000000E+00
  9.338280E-01  1.325945E-02  5.000000E-01  9.432588E-01  1.331793E-02  0.000000E+00  6.816994E-03 -1.243079E-03  1.804663E-18 -9.665338E-02  0.000000E+00
  9.262600E-01  1.462231E-02  5.000000E-01  9.356144E-01  1.469455E-02  0.000000E+00  7.167803E-03 -1.272576E-03  2.678859E-18 -1.129462E-01  0.000000E+00
  9.181550E-01  1.604159E-02  5.000000E-01  9.274275E-01  1.612817E-02  0.000000E+00  7.507329E-03 -1.294799E-03  4.033969E-18 -1.289551E-01  0.000000E+00
  9.095020E-01  1.751202E-02  5.000000E-01  9.186872E-01  1.761345E-02  0.000000E+00  7.828487E-03 -1.308648E-03  4.123068E-18 -1.443704E-01  0.000000E+00
  9.002880E-01  1.902781E-02  5.000000E-01  9.093801E-01  1.914455E-02  0.000000E+00  8.122843E-03 -1.313182E-03  1.662198E-18 -1.586689E-01  0.000000E+00
  8.905020E-01  2.058310E-02  5.000000E-01  8.994953E-01  2.071554E-02  0.000000E+00  8.380628E-03 -1.308978E-03 -5.182174E-18 -1.715227E-01  0.000000E+00
  8.801320E-01  2.217522E-02  5.000000E-01  8.890205E-01  2.232374E-02  0.000000E+00  8.593616E-03 -1.298456E-03 -5.553446E-18 -1.830054E-01  0.000000E+00
  8.691700E-01  2.380534E-02  5.000000E-01  8.779478E-01  2.397032E-02  0.000000E+00  8.758409E-03 -1.284217E-03  1.301279E-18 -1.933375E-01  0.000000E+00
  8.691700E-01  2.380534E-02  5.000000E-01  8.779478E-01  2.397032E-02  0.000000E+00  8.758409E-03 -1.284217E-03  1.301279E-18 -1.933375E-01  0.000000E+00
  8.576080E-01  2.547697E-02  5.000000E-01  8.662691E-01  2.565883E-02  0.000000E+00  8.877185E-03 -1.268601E-03  1.632643E-18 -2.026584E-01  0.000000E+00
  8.454380E-01  2.719608E-02  5.000000E-01  8.539762E-01  2.739531E-02  0.000000E+00  8.956937E-03 -1.254795E-03 -9.116695E-19 -2.111735E-01  0.000000E+00
  8.326580E-01  2.897196E-02  5.000000E-01  8.410671E-01  2.918912E-02  0.000000E+00  9.009764E-03 -1.246648E-03 -6.910952E-19 -2.194146E-01  0.000000E+00
  8.192630E-01  3.081776E-02  5.000000E-01  8.275368E-01  3.105356E-02  0.000000E+00  9.053873E-03 -1.248614E-03  1.294415E-19 -2.287213E-01  0.000000E+00
  8.052550E-01  3.275075E-02  5.000000E-01  8.133874E-01  3.300608E-02  0.000000E+00  9.114801E-03 -1.264091E-03  3.766969E-19 -2.410936E-01  0.000000E+00
  7.906370E-01  3.478738E-02  5.000000E-01  7.986217E-01  3.506327E-02  0.000000E+00  9.223188E-03 -1.291313E-03 -5.196888E-19 -2.576855E-01  0.000000E+00
  7.754120E-01  3.692907E-02  5.000000E-01  7.832430E-01  3.722659E-02  0.000000E+00  9.404411E-03 -1.323695E-03 -9.022980E-19 -2.781233E-01  0.000000E+00
  7.595880E-01  3.915759E-02  5.000000E-01  7.672592E-01  3.947762E-02  0.000000E+00  9.667451E-03 -1.355483E-03 -1.712202E-18 -3.017765E-01  0.000000E+00
  7.431760E-01  4.144846E-02  5.000000E-01  7.506814E-01  4.179163E-02  0.000000E+00  1.000460E-02 -1.382676E-03 -2.085931E-18 -3.280640E-01  0.000000E+00
  7.261880E-01  4.377327E-02  5.000000E-01  7.335218E-01  4.413991E-02  0.000000E+00  1.039672E-02 -1.400518E-03 -2.030698E-21 -3.556778E-01  0.000000E+00
  7.086430E-01  4.610073E-02  5.000000E-01  7.157997E-01  4.649088E-02  0.000000E+00  1.081717E-02 -1.404498E-03  1.871421E-18 -3.826249E-01  0.000000E+00
  6.905640E-01  4.840007E-02  5.000000E-01  6.975381E-01  4.881343E-02  0.000000E+00  1.123675E-02 -1.393873E-03  3.570467E-18 -4.074103E-01  0.000000E+00
  6.719770E-01  5.065000E-02  5.000000E-01  6.787634E-01  5.108609E-02  0.000000E+00  1.163224E-02 -1.375045E-03  5.222450E-18 -4.307984E-01  0.000000E+00
  6.529150E-01  5.285043E-02  5.000000E-01  6.595089E-01  5.330874E-02  0.000000E+00  1.199973E-02 -1.355232E-03  6.139476E-18 -4.548424E-01  0.000000E+00
  6.334180E-01  5.500484E-02  5.000000E-01  6.398150E-01  5.548491E-02  0.000000E+00  1.235704E-02 -1.333407E-03  6.755582E-18 -4.805786E-01  0.000000E+00
  6.135280E-01  5.710067E-02  5.000000E-01  6.197241E-01  5.760191E-02  0.000000E+00  1.272752E-02 -1.305195E-03  7.363874E-18 -5.085249E-01  0.000000E+00
  5.932910E-01  5.911964E-02  5.000000E-01  5.992827E-01  5.964126E-02  0.000000E+00  1.312771E-02 -1.266990E-03  7.723759E-18 -5.385890E-01  0.000000E+00
  5.727570E-01  6.103631E-02  5.000000E-01  5.785413E-01  6.157729E-02  0.000000E+00  1.356285E-02 -1.213317E-03  6.067711E-18 -5.687248E-01  0.000000E+00
  5.519810E-01  6.281807E-02  5.000000E-01  5.575555E-01  6.337705E-02  0.000000E+00  1.402213E-02 -1.139397E-03  9.963975E-19 -5.961305E-01  0.000000E+00
  5.310180E-01  6.443130E-02  5.000000E-01  5.363808E-01  6.500657E-02  0.000000E+00  1.447967E-02 -1.051212E-03 -6.501467E-18 -6.212044E-01  0.000000E+00
  5.099250E-01  6.587243E-02  5.000000E-01  5.150748E-01  6.646226E-02  0.000000E+00  1.491656E-02 -9.614231E-04 -1.357491E-17 -6.475188E-01  0.000000E+00
  4.887640E-01  6.715535E-02  5.000000E-01  4.937001E-01  6.775813E-02  0.000000E+00  1.534486E-02 -8.671742E-04 -7.510722E-18 -6.760098E-01  0.000000E+00
  4.675910E-01  6.826760E-02  5.000000E-01  4.723133E-01  6.888161E-02  0.000000E+00  1.578904E-02 -7.534567E-04 -4.839300E-18 -7.041305E-01  0.000000E+00
  7.860720E-05 -4.429471E-04  5.000000E-01  7.940615E-05 -5.228503E-04  0.000000E+00 -1.120801E-02  3.621823E-02 -3.900659E-14  7.932611E-01  0.000000E+00
  3.989240E-04 -1.047662E-03  5.000000E-01  4.029579E-04 -1.133672E-03  0.000000E+00 -1.020701E-02  1.600339E-02  3.074134E-13  1.080946E+00  0.000000E+00
  1.196920E-03 -1.780413E-03  5.000000E-01  1.209013E-03 -1.873823E-03  0.000000E+00 -2.679251E-03  2.805898E-03  4.870983E-13  1.079430E+00  0.000000E+00
  2.563580E-03 -2.548878E-03  5.000000E-01  2.589475E-03 -2.650049E-03  0.000000E+00  4.651570E-03 -2.018956E-03  1.969655E-13  9.356319E-01  0.000000E+00
  4.492740E-03 -3.312172E-03  5.000000E-01  4.538118E-03 -3.421051E-03  0.000000E+00  8.998879E-03 -3.106290E-03  1.564338E-14  8.112499E-01  0.000000E+00
  6.952190E-03 -4.066991E-03  5.000000E-01  7.022406E-03 -4.183494E-03  0.000000E+00  1.118197E-02 -3.150825E-03 -2.285244E-14  7.248624E-01  0.000000E+00
  9.910730E-03 -4.834993E-03  5.000000E-01  1.001082E-02 -4.959252E-03  0.000000E+00  1.231282E-02 -3.035675E-03 -1.714102E-14  6.567794E-01  0.000000E+00
  1.334950E-02 -5.641598E-03  5.000000E-01  1.348432E-02 -5.774003E-03  0.000000E+00  1.298124E-02 -2.873864E-03 -9.094670E-15  5.899227E-01  0.000000E+00
  1.728780E-02 -6.465403E-03  5.000000E-01  1.746240E-02 -6.606128E-03  0.000000E+00  1.337976E-02 -2.581415E-03 -4.638072E-15  5.177326E-01  0.000000E+00
  2.175590E-02 -7.256508E-03  5.000000E-01  2.197562E-02 -7.405222E-03  0.000000E+00  1.356226E-02 -2.176030E-03 -2.169375E-15  4.504960E-01  0.000000E+00
  2.676920E-02 -7.976716E-03  5.000000E-01  2.703955E-02 -8.132703E-03  0.000000E+00  1.359618E-02 -1.757897E-03 -6.897546E-16  3.996605E-01  0.000000E+00
  3.232800E-02 -8.614317E-03  5.000000E-01  3.265449E-02 -8.776743E-03  0.000000E+00  1.355403E-02 -1.400615E-03  9.183531E-17  3.661562E-01  0.000000E+00
  3.842930E-02 -9.175204E-03  5.000000E-01  3.881741E-02 -9.343295E-03  0.000000E+00  1.347887E-02 -1.125320E-03  3.638442E-16  3.438139E-01  0.000000E+00
  4.507220E-02 -9.673610E-03  5.000000E-01  4.552739E-02 -9.846735E-03  0.000000E+00  1.340296E-02 -9.388337E-04  3.454500E-16  3.280035E-01  0.000000E+00
  5.225680E-02 -1.014038E-02  5.000000E-01  5.278455E-02 -1.031821E-02  0.000000E+00  1.336257E-02 -8.388806E-04  2.234956E-16  3.161020E-01  0.000000E+00
  5.998640E-02 -1.060904E-02  5.000000E-01  6.059221E-02 -1.079161E-02  0.000000E+00  1.336530E-02 -7.877105E-04  1.091833E-16  3.028407E-01  0.000000E+00
  6.827110E-02 -1.108435E-02  5.000000E-01  6.896058E-02 -1.127172E-02  0.000000E+00  1.338638E-02 -7.433329E-04  4.150054E-17  2.853087E-01  0.000000E+00
  7.712280E-02 -1.155953E-02  5.000000E-01  7.790168E-02 -1.175170E-02  0.000000E+00  1.340373E-02 -6.949177E-04  1.115246E-17  2.663206E-01  0.000000E+00
  8.655260E-02 -1.203050E-02  5.000000E-01  8.742671E-02 -1.222742E-02  0.000000E+00  1.340470E-02 -6.417316E-04 -1.765791E-18  2.483623E-01  0.000000E+00
  9.657140E-02 -1.248951E-02  5.000000E-01  9.754669E-02 -1.269107E-02  0.000000E+00  1.337418E-02 -5.745695E-04 -8.046520E-18  2.309913E-01  0.000000E+00
  1.071900E-01 -1.291572E-02  5.000000E-01  1.082725E-01 -1.312159E-02  0.000000E+00  1.330449E-02 -4.915650E-04 -1.281372E-17  2.144935E-01  0.000000E+00
  1.184180E-01 -1.329405E-02  5.000000E-01  1.196139E-01 -1.350374E-02  0.000000E+00  1.321185E-02 -4.092982E-04 -1.623703E-17  2.010997E-01  0.000000E+00
  1.302610E-01 -1.362799E-02  5.000000E-01  1.315765E-01 -1.384105E-02  0.000000E+00  1.312353E-02 -3.435880E-04  1.109630E-17  1.911155E-01  0.000000E+00
  1.427230E-01 -1.392887E-02  5.000000E-01  1.441644E-01 -1.414497E-02  0.000000E+00  1.305631E-02 -2.984810E-04  4.742436E-18  1.826616E-01  0.000000E+00
  1.427230E-01 -1.392887E-02  5.000000E-01  1.441644E-01 -1.414497E-02  0.000000E+00  1.305631E-02 -2.984810E-04  4.742436E-18  1.826616E-01  0.000000E+00
  1.558070E-01 -1.421139E-02  5.000000E-01  1.573805E-01 -1.443034E-02  0.000000E+00  1.300549E-02 -2.653492E-04 -2.125257E-18  1.735056E-01  0.000000E+00
  1.695140E-01 -1.447530E-02  5.000000E-01  1.712259E-01 -1.469692E-02  0.000000E+00  1.294799E-02 -2.278202E-04  2.140919E-17  1.624402E-01  0.000000E+00
  1.838420E-01 -1.470379E-02  5.000000E-01  1.856986E-01 -1.492771E-02  0.000000E+00  1.286026E-02 -1.742212E-04  1.699505E-17  1.504656E-01  0.000000E+00
  1.987870E-01 -1.487017E-02  5.000000E-01  2.007946E-01 -1.509578E-02  0.000000E+00  1.273382E-02 -1.024372E-04  1.975949E-17  1.394619E-01  0.000000E+00
  2.143420E-01 -1.494653E-02  5.000000E-01  2.165067E-01 -1.517291E-02  0.000000E+00  1.258525E-02 -2.585201E-05  2.366827E-17  1.314826E-01  0.000000E+00
  2.304940E-01 -1.493199E-02  5.000000E-01  2.328218E-01 -1.515822E-02  0.000000E+00  1.245197E-02  3.084014E-05  2.169762E-17  1.279031E-01  0.000000E+00
  2.472290E-01 -1.486302E-02  5.000000E-01  2.497258E-01 -1.508855E-02  0.000000E+00  1.236456E-02  5.667967E-05  1.570000E-17  1.268024E-01  0.000000E+00
  2.645310E-01 -1.477640E-02  5.000000E-01  2.672025E-01 -1.500106E-02  0.000000E+00  1.232147E-02  6.811153E-05  1.081857E-17  1.235956E-01  0.000000E+00
  2.823750E-01 -1.467009E-02  5.000000E-01  2.852267E-01 -1.489367E-02  0.000000E+00  1.229553E-02  9.095950E-05  6.032656E-18  1.158733E-01  0.000000E+00
  3.007320E-01 -1.450835E-02  5.000000E-01  3.037691E-01 -1.473030E-02  0.000000E+00  1.225950E-02  1.360404E-04 -3.278654E-18  1.058874E-01  0.000000E+00
  3.195690E-01 -1.425546E-02  5.000000E-01  3.227964E-01 -1.447485E-02  0.000000E+00  1.219806E-02  1.979540E-04 -1.582306E-17  9.729635E-02  0.000000E+00
  3.388440E-01 -1.388752E-02  5.000000E-01  3.422660E-01 -1.410320E-02  0.000000E+00  1.210296E-02  2.663038E-04 -2.293818E-17  9.189996E-02  0.000000E+00
  3.585140E-01 -1.339661E-02  5.000000E-01  3.621347E-01 -1.360734E-02  0.000000E+00  1.196429E-02  3.344862E-04 -2.062693E-17  8.936798E-02  0.000000E+00
  3.785290E-01 -1.277668E-02  5.000000E-01  3.823518E-01 -1.298114E-02  0.000000E+00  1.176812E-02  4.013786E-04 -1.414170E-17  8.869207E-02  0.000000E+00
  3.988350E-01 -1.201935E-02  5.000000E-01  4.028629E-01 -1.221617E-02  0.000000E+00  1.150620E-02  4.667072E-04 -7.569879E-18  9.004673E-02  0.000000E+00
  4.193750E-01 -1.111749E-02  5.000000E-01  4.236103E-01 -1.130520E-02  0.000000E+00  1.118503E-02  5.334691E-04 -2.126763E-18  9.383431E-02  0.000000E+00
  4.400850E-01 -1.004939E-02  5.000000E-01  4.445295E-01 -1.022631E-02  0.000000E+00  1.083547E-02  6.003091E-04  1.250254E-18  1.005639E-01  0.000000E+00
  4.609060E-01 -8.813021E-03  5.000000E-01  4.655607E-01 -8.977454E-03  0.000000E+00  1.051728E-02  6.464322E-04  3.299482E-18  1.119575E-01  0.000000E+00
  4.818030E-01 -7.481051E-03  5.000000E-01  4.866688E-01 -7.632032E-03  0.000000E+00  1.029462E-02  6.431025E-04  3.161642E-18  1.285177E-01  0.000000E+00
  5.027520E-01 -6.197825E-03  5.000000E-01  5.078293E-01 -6.335848E-03  0.000000E+00  1.018071E-02  5.953934E-04  2.440600E-18  1.444897E-01  0.000000E+00
  5.237130E-01 -5.034516E-03  5.000000E-01  5.290020E-01 -5.160790E-03  0.000000E+00  1.010993E-02  5.549743E-04  1.103951E-17  1.506826E-01  0.000000E+00
  5.446170E-01 -3.905570E-03  5.000000E-01  5.501171E-01 -4.020443E-03  0.000000E+00  9.987625E-03  5.661977E-04  1.683796E-17  1.464462E-01  0.000000E+00
  5.653940E-01 -2.669653E-03  5.000000E-01  5.711040E-01 -2.772044E-03  0.000000E+00  9.768903E-03  6.152709E-04  1.436902E-17  1.433907E-01  0.000000E+00
  4.675910E-01  6.826760E-02  5.000000E-01  4.723133E-01  6.888161E-02  0.000000E+00  1.578904E-02 -7.534567E-04 -4.839300E-18 -7.041305E-01  0.000000E+00
  4.464640E-01  6.917759E-02  5.000000E-01  4.509729E-01  6.980079E-02  0.000000E+00  1.625320E-02 -6.177881E-04 -8.052096E-18 -7.306936E-01  0.000000E+00
  4.254410E-01  6.987316E-02  5.000000E-01  4.297376E-01  7.050338E-02  0.000000E+00  1.672625E-02 -4.668306E-04 -3.775326E-18 -7.563294E-01  0.000000E+00
  4.045840E-01  7.035002E-02  5.000000E-01  4.086699E-01  7.098506E-02  0.000000E+00  1.719933E-02 -3.027886E-04 -1.645545E-20 -7.815278E-01  0.000000E+00
  3.839530E-01  7.060730E-02  5.000000E-01  3.878306E-01  7.124494E-02  0.000000E+00  1.766963E-02 -1.232394E-04  6.842698E-18 -8.061020E-01  0.000000E+00
  3.636060E-01  7.064022E-02  5.000000E-01  3.672781E-01  7.127820E-02  0.000000E+00  1.813736E-02  7.541467E-05  1.597211E-17 -8.290601E-01  0.000000E+00
  3.435960E-01  7.044471E-02  5.000000E-01  3.470660E-01  7.108071E-02  0.000000E+00  1.859946E-02  2.943881E-04  2.411901E-17 -8.494012E-01  0.000000E+00
  3.239710E-01  7.001834E-02  5.000000E-01  3.272428E-01  7.065004E-02  0.000000E+00  1.904712E-02  5.291491E-04  2.620390E-17 -8.674710E-01  0.000000E+00
  3.047740E-01  6.937088E-02  5.000000E-01  3.078519E-01  6.999603E-02  0.000000E+00  1.947432E-02  7.726626E-04  2.080140E-17 -8.846908E-01  0.000000E+00
  2.860450E-01  6.851845E-02  5.000000E-01  2.889338E-01  6.913499E-02  0.000000E+00  1.988979E-02  1.028911E-03  1.192013E-17 -9.008922E-01  0.000000E+00
  2.678190E-01  6.746492E-02  5.000000E-01  2.705237E-01  6.807082E-02  0.000000E+00  2.030395E-02  1.305206E-03  4.485215E-18 -9.151449E-01  0.000000E+00
  2.501300E-01  6.621556E-02  5.000000E-01  2.526561E-01  6.680885E-02  0.000000E+00  2.071604E-02  1.600462E-03  2.802349E-18 -9.278550E-01  0.000000E+00
  2.330040E-01  6.478084E-02  5.000000E-01  2.353571E-01  6.535964E-02  0.000000E+00  2.112223E-02  1.911935E-03  7.659968E-18 -9.399357E-01  0.000000E+00
  2.164660E-01  6.317370E-02  5.000000E-01  2.186521E-01  6.373627E-02  0.000000E+00  2.152402E-02  2.239914E-03  1.461831E-17 -9.512822E-01  0.000000E+00
  2.005340E-01  6.140811E-02  5.000000E-01  2.025592E-01  6.195284E-02  0.000000E+00  2.193153E-02  2.594981E-03  1.865566E-17 -9.589581E-01  0.000000E+00
  1.852230E-01  5.948504E-02  5.000000E-01  1.870936E-01  6.001035E-02  0.000000E+00  2.234361E-02  2.982395E-03  2.014375E-17 -9.605491E-01  0.000000E+00
  1.705440E-01  5.741294E-02  5.000000E-01  1.722663E-01  5.791733E-02  0.000000E+00  2.273950E-02  3.384950E-03  1.960124E-17 -9.595556E-01  0.000000E+00
  1.565000E-01  5.521511E-02  5.000000E-01  1.580805E-01  5.569730E-02  0.000000E+00  2.311443E-02  3.787442E-03  1.430447E-17 -9.634972E-01  0.000000E+00
  1.430940E-01  5.291898E-02  5.000000E-01  1.445391E-01  5.337799E-02  0.000000E+00  2.350957E-02  4.213035E-03  4.188929E-18 -9.754527E-01  0.000000E+00
  1.303270E-01  5.053067E-02  5.000000E-01  1.316432E-01  5.096555E-02  0.000000E+00  2.398469E-02  4.730089E-03 -1.758595E-18 -9.864640E-01  0.000000E+00
  1.182110E-01  4.802209E-02  5.000000E-01  1.194048E-01  4.843164E-02  0.000000E+00  2.452451E-02  5.375375E-03  1.300685E-17 -9.820125E-01  0.000000E+00
  1.067560E-01  4.537821E-02  5.000000E-01  1.078341E-01  4.576106E-02  0.000000E+00  2.500284E-02  6.104516E-03  3.351359E-17 -9.533233E-01  0.000000E+00
  9.596750E-02  4.260403E-02  5.000000E-01  9.693669E-02  4.295886E-02  0.000000E+00  2.524504E-02  6.779790E-03  7.722886E-17 -9.083876E-01  0.000000E+00
  8.582800E-02  3.976342E-02  5.000000E-01  8.669479E-02  4.008957E-02  0.000000E+00  2.518469E-02  7.278820E-03  9.835815E-17 -8.654942E-01  0.000000E+00
  8.582800E-02  3.976342E-02  5.000000E-01  8.669479E-02  4.008957E-02  0.000000E+00  2.518469E-02  7.278820E-03  9.835815E-17 -8.654942E-01  0.000000E+00
  7.631050E-02  3.692618E-02  5.000000E-01  7.708117E-02  3.722368E-02  0.000000E+00  2.495157E-02  7.671595E-03  1.408878E-16 -8.286199E-01  0.000000E+00
  6.740780E-02  3.410545E-02  5.000000E-01  6.808856E-02  3.437445E-02  0.000000E+00  2.470517E-02  8.088688E-03  1.667471E-16 -7.909847E-01  0.000000E+00
  5.911740E-02  3.130321E-02  5.000000E-01  5.971444E-02  3.154391E-02  0.000000E+00  2.449758E-02  8.553327E-03  1.114387E-16 -7.498343E-01  0.000000E+00
  5.143150E-02  2.853368E-02  5.000000E-01  5.195092E-02  2.874642E-02  0.000000E+00  2.430867E-02  9.034021E-03  7.726738E-17 -7.058834E-01  0.000000E+00
  4.433770E-02  2.581678E-02  5.000000E-01  4.478548E-02  2.600207E-02  0.000000E+00  2.410238E-02  9.507061E-03  4.703647E-17 -6.616717E-01  0.000000E+00
  3.782240E-02  2.317154E-02  5.000000E-01  3.820438E-02  2.333012E-02  0.000000E+00  2.385964E-02  9.974767E-03  3.646378E-17 -6.209699E-01  0.000000E+00
  3.187460E-02  2.061163E-02  5.000000E-01  3.219651E-02  2.074436E-02  0.000000E+00  2.359284E-02  1.046291E-02  2.002539E-16 -5.867376E-01  0.000000E+00
  2.648400E-02  1.814877E-02  5.000000E-01  2.675147E-02  1.825662E-02  0.000000E+00  2.333536E-02  1.103816E-02  8.397090E-16 -5.529617E-01  0.000000E+00
  2.164990E-02  1.578451E-02  5.000000E-01  2.186855E-02  1.586849E-02  0.000000E+00  2.305882E-02  1.175424E-02  2.083685E-15 -5.027587E-01  0.000000E+00
  1.737670E-02  1.351896E-02  5.000000E-01  1.755219E-02  1.358006E-02  0.000000E+00  2.260687E-02  1.246973E-02  3.410287E-15 -4.302543E-01  0.000000E+00
  1.364080E-02  1.137655E-02  5.000000E-01  1.377856E-02  1.141601E-02  0.000000E+00  2.183798E-02  1.290467E-02  3.987981E-15 -3.545795E-01  0.000000E+00
  1.039090E-02  9.395353E-03  5.000000E-01  1.049584E-02  9.414808E-03  0.000000E+00  2.082179E-02  1.300978E-02  4.636449E-15 -3.002604E-01  0.000000E+00
  7.586340E-03  7.597192E-03  5.000000E-01  7.662960E-03  7.598487E-03  0.000000E+00  1.981916E-02  1.314677E-02  1.186255E-14 -2.724349E-01  0.000000E+00
  5.226210E-03  5.976938E-03  5.000000E-01  5.278995E-03  5.961870E-03  0.000000E+00  1.913532E-02  1.386078E-02  4.177493E-14 -2.623228E-01  0.000000E+00
  3.324300E-03  4.524769E-03  5.000000E-01  3.357878E-03  4.495035E-03  0.000000E+00  1.904897E-02  1.574923E-02  1.052305E-13 -2.616112E-01  0.000000E+00
  1.883580E-03  3.242919E-03  5.000000E-01  1.902608E-03  3.200240E-03  0.000000E+00  1.958959E-02  1.966180E-02  1.139217E-13 -2.466211E-01  0.000000E+00
  8.951490E-04  2.143988E-03  5.000000E-01  9.041943E-04  2.090210E-03  0.000000E+00  1.976164E-02  2.632283E-02 -3.076991E-13 -1.665191E-01  0.000000E+00
  3.201820E-04  1.252592E-03  5.000000E-01  3.234206E-04  1.189813E-03  0.000000E+00  1.719248E-02  3.449688E-02 -1.604164E-12  1.937323E-02  0.000000E+00
  6.852390E-05  5.988737E-04  5.000000E-01  6.922101E-05  5.294921E-04  0.000000E+00  1.088927E-02  3.989484E-02 -3.416879E-12  2.439341E-01  0.000000E+00
  4.217600E-06  2.052407E-04  5.000000E-01  4.265277E-06  1.318837E-04  0.000000E+00  4.098657E-03  4.142106E-02 -5.301079E-12  3.230458E-01  0.000000E+00
 -5.032520E-09  7.467559E-05  5.000000E-01  0.000000E+00  0.000000E+00  0.000000E+00 -6.893711E-04  4.739712E-02 -5.858221E-12  2.795226E-01  0.000000E+00
  5.154440E-06 -5.626070E-05  5.000000E-01  5.211579E-06 -1.322586E-04  0.000000E+00 -5.888030E-03  5.010831E-02 -2.747720E-12  4.164710E-01  0.000000E+00