 Title = "ADflow Slice Data"
Variables =  "CoordinateX"  "CoordinateY"  "CoordinateZ"  "XoC"  "YoC"  "ZoC" "VelocityX" "VelocityY" "VelocityZ" "CoefPressure" "Mach" 
Zone T= "Slice_0001 None Absolute Regular z = 0.50000000"
 Nodes =          192  Elements=          184  ZONETYPE=FELINESEG
 DATAPACKING=POINT
  5.653940E-01 -2.666637E-03  5.000000E-01  5.711040E-01 -2.768921E-03  0.000000E+00  9.770199E-03  6.156533E-04 -4.641306E-19  1.433193E-01  0.000000E+00
  5.859770E-01 -1.290140E-03  5.000000E-01  5.918948E-01 -1.378522E-03  0.000000E+00  9.469218E-03  6.658731E-04 -4.365904E-19  1.501763E-01  0.000000E+00
  6.063060E-01  2.128599E-04  5.000000E-01  6.124291E-01  1.396560E-04  0.000000E+00  9.125784E-03  6.973220E-04 -1.030213E-18  1.650309E-01  0.000000E+00
  6.263240E-01  1.793541E-03  5.000000E-01  6.326493E-01  1.736301E-03  0.000000E+00  8.785002E-03  6.986408E-04 -6.013927E-19  1.839505E-01  0.000000E+00
  6.459860E-01  3.368738E-03  5.000000E-01  6.525099E-01  3.327406E-03  0.000000E+00  8.478841E-03  6.687708E-04 -1.302128E-19  2.038691E-01  0.000000E+00
  6.652460E-01  4.862693E-03  5.000000E-01  6.719644E-01  4.836449E-03  0.000000E+00  8.207374E-03  6.227182E-04 -1.049734E-18  2.215148E-01  0.000000E+00
  6.840650E-01  6.254991E-03  5.000000E-01  6.909734E-01  6.242807E-03  0.000000E+00  7.938838E-03  5.831201E-04 -1.915078E-18  2.344712E-01  0.000000E+00
  7.024070E-01  7.590862E-03  5.000000E-01  7.095007E-01  7.592169E-03  0.000000E+00  7.639305E-03  5.561287E-04 -9.512952E-19  2.451395E-01  0.000000E+00
  7.202400E-01  8.890467E-03  5.000000E-01  7.275138E-01  8.904900E-03  0.000000E+00  7.298555E-03  5.299281E-04 -1.958100E-19  2.582372E-01  0.000000E+00
  7.375350E-01  1.014280E-02  5.000000E-01  7.449834E-01  1.016988E-02  0.000000E+00  6.928622E-03  4.949344E-04 -8.212135E-19  2.748616E-01  0.000000E+00
  7.542690E-01  1.132120E-02  5.000000E-01  7.618864E-01  1.136018E-02  0.000000E+00  6.556528E-03  4.490067E-04 -9.675780E-19  2.934292E-01  0.000000E+00
  7.704220E-01  1.239309E-02  5.000000E-01  7.782026E-01  1.244289E-02  0.000000E+00  6.217959E-03  3.936182E-04 -7.710909E-19  3.117293E-01  0.000000E+00
  7.859770E-01  1.332751E-02  5.000000E-01  7.939147E-01  1.338675E-02  0.000000E+00  5.956720E-03  3.226693E-04 -6.009552E-22  3.294780E-01  0.000000E+00
  8.009220E-01  1.404843E-02  5.000000E-01  8.090106E-01  1.411495E-02  0.000000E+00  5.817250E-03  2.265816E-04  8.174452E-19  3.468306E-01  0.000000E+00
  8.152480E-01  1.447125E-02  5.000000E-01  8.234813E-01  1.454205E-02  0.000000E+00  5.817034E-03  1.124122E-04  6.316289E-19  3.594431E-01  0.000000E+00
  8.289490E-01  1.459478E-02  5.000000E-01  8.373206E-01  1.466682E-02  0.000000E+00  5.937618E-03 -4.297763E-06  5.575142E-19  3.636702E-01  0.000000E+00
  8.420260E-01  1.446101E-02  5.000000E-01  8.505297E-01  1.453170E-02  0.000000E+00  6.145414E-03 -1.162198E-04  6.354105E-19  3.613834E-01  0.000000E+00
  8.544790E-01  1.412231E-02  5.000000E-01  8.631085E-01  1.418958E-02  0.000000E+00  6.407344E-03 -2.212070E-04  6.512483E-19  3.555768E-01  0.000000E+00
  8.663160E-01  1.363102E-02  5.000000E-01  8.750650E-01  1.369333E-02  0.000000E+00  6.693790E-03 -3.177987E-04  5.282157E-19  3.477986E-01  0.000000E+00
  8.775420E-01  1.303390E-02  5.000000E-01  8.864044E-01  1.309017E-02  0.000000E+00  6.979143E-03 -4.039642E-04  2.546069E-19  3.387903E-01  0.000000E+00
  8.881660E-01  1.237100E-02  5.000000E-01  8.971357E-01  1.242058E-02  0.000000E+00  7.243926E-03 -4.776746E-04  4.011466E-20  3.291690E-01  0.000000E+00
  8.981970E-01  1.167513E-02  5.000000E-01  9.072680E-01  1.171768E-02  0.000000E+00  7.477819E-03 -5.400242E-04  1.285572E-19  3.197155E-01  0.000000E+00
  9.076460E-01  1.096693E-02  5.000000E-01  9.168124E-01  1.100233E-02  0.000000E+00  7.681974E-03 -5.970032E-04  5.292073E-19  3.113301E-01  0.000000E+00
  9.165220E-01  1.025343E-02  5.000000E-01  9.257781E-01  1.028163E-02  0.000000E+00  7.865452E-03 -6.542788E-04  4.374711E-19  3.040476E-01  0.000000E+00
  9.165220E-01  1.025343E-02  5.000000E-01  9.257781E-01  1.028163E-02  0.000000E+00  7.865452E-03 -6.542788E-04  4.374711E-19  3.040476E-01  0.000000E+00
  9.248360E-01  9.538955E-03  5.000000E-01  9.341760E-01  9.559936E-03  0.000000E+00  8.038215E-03 -7.137219E-04 -4.447695E-19  2.970942E-01  0.000000E+00
  9.325990E-01  8.827855E-03  5.000000E-01  9.420174E-01  8.841655E-03  0.000000E+00  8.208601E-03 -7.761105E-04 -1.529205E-18  2.900365E-01  0.000000E+00
  9.398210E-01  8.124170E-03  5.000000E-01  9.493124E-01  8.130863E-03  0.000000E+00  8.383921E-03 -8.423737E-04 -1.448391E-18  2.827841E-01  0.000000E+00
  9.465130E-01  7.431882E-03  5.000000E-01  9.560719E-01  7.431584E-03  0.000000E+00  8.570505E-03 -9.133357E-04  2.594687E-19  2.752277E-01  0.000000E+00
  9.526870E-01  6.755100E-03  5.000000E-01  9.623083E-01  6.747967E-03  0.000000E+00  8.773335E-03 -9.896478E-04  1.240528E-18  2.672204E-01  0.000000E+00
  9.583540E-01  6.098225E-03  5.000000E-01  9.680325E-01  6.084458E-03  0.000000E+00  8.996084E-03 -1.071762E-03 -4.209636E-18  2.586325E-01  0.000000E+00
  9.635240E-01  5.466020E-03  5.000000E-01  9.732547E-01  5.445868E-03  0.000000E+00  9.241625E-03 -1.159785E-03 -1.186992E-17  2.493421E-01  0.000000E+00
  9.682080E-01  4.863542E-03  5.000000E-01  9.779860E-01  4.837306E-03  0.000000E+00  9.513680E-03 -1.253981E-03  7.506020E-18  2.392952E-01  0.000000E+00
  9.724140E-01  4.296155E-03  5.000000E-01  9.822345E-01  4.264188E-03  0.000000E+00  9.819226E-03 -1.354876E-03  6.864616E-17  2.284857E-01  0.000000E+00
  9.761510E-01  3.769352E-03  5.000000E-01  9.860093E-01  3.732065E-03  0.000000E+00  1.016874E-02 -1.462917E-03  8.303351E-17  2.168816E-01  0.000000E+00
  9.794290E-01  3.288576E-03  5.000000E-01  9.893204E-01  3.246434E-03  0.000000E+00  1.056928E-02 -1.578611E-03 -1.073522E-16  2.044932E-01  0.000000E+00
  9.822540E-01  2.859220E-03  5.000000E-01  9.921739E-01  2.812742E-03  0.000000E+00  1.100635E-02 -1.700101E-03 -4.229658E-16  1.915708E-01  0.000000E+00
  9.846330E-01  2.486308E-03  5.000000E-01  9.945769E-01  2.436064E-03  0.000000E+00  1.142498E-02 -1.816218E-03 -3.157053E-16  1.793635E-01  0.000000E+00
  9.865710E-01  2.174415E-03  5.000000E-01  9.965345E-01  2.121021E-03  0.000000E+00  1.169119E-02 -1.892797E-03  6.949435E-16  1.667352E-01  0.000000E+00
  9.880740E-01  1.927474E-03  5.000000E-01  9.980527E-01  1.871586E-03  0.000000E+00  1.158683E-02 -1.921788E-03  1.959238E-15  1.474552E-01  0.000000E+00
  9.891450E-01  1.748699E-03  5.000000E-01  9.991345E-01  1.691006E-03  0.000000E+00  1.178720E-02 -2.059701E-03  1.626715E-15  1.484151E-01  0.000000E+00
  9.897860E-01  1.640474E-03  5.000000E-01  9.997820E-01  1.581687E-03  0.000000E+00  1.517018E-02 -2.087273E-03 -1.892352E-15  1.958556E-01  0.000000E+00
  9.900000E-01  1.604233E-03  5.000000E-01  9.999981E-01  1.545081E-03  0.000000E+00  1.058526E-02 -4.472582E-03 -9.144353E-15 -4.783115E-02  0.000000E+00
  9.900000E-01  1.682943E-03  5.000000E-01  9.999981E-01  1.624586E-03  0.000000E+00  1.059903E-03 -1.486206E-02 -1.551891E-14 -1.856978E-01  0.000000E+00
  9.900000E-01  1.761664E-03  5.000000E-01  9.999981E-01  1.704101E-03  0.000000E+00 -5.271130E-04 -1.396628E-02 -1.481928E-14 -9.868550E-03  0.000000E+00
  9.900000E-01  1.840384E-03  5.000000E-01  9.999981E-01  1.783617E-03  0.000000E+00 -2.989160E-04  2.411810E-03 -7.221349E-15 -1.458031E-02  0.000000E+00
  9.900000E-01  1.919094E-03  5.000000E-01  9.999981E-01  1.863122E-03  0.000000E+00  7.099006E-04  3.833087E-03  2.707003E-15 -1.322691E-01  0.000000E+00
  9.900000E-01  1.997815E-03  5.000000E-01  9.999981E-01  1.942637E-03  0.000000E+00  5.874133E-03 -2.629029E-03  5.413358E-15 -3.875580E-02  0.000000E+00
  9.900000E-01  1.997815E-03  5.000000E-01  9.999981E-01  1.942637E-03  0.000000E+00  5.874133E-03 -2.629029E-03  5.413358E-15 -3.875580E-02  0.000000E+00
  9.897900E-01  2.043622E-03  5.000000E-01  9.997860E-01  1.988907E-03  0.000000E+00  7.646750E-03 -1.997243E-03  1.612568E-15  1.026106E-01  0.000000E+00
  9.891580E-01  2.181003E-03  5.000000E-01  9.991476E-01  2.127675E-03  0.000000E+00  4.736352E-03 -9.684426E-04 -2.256334E-16  6.052010E-02  0.000000E+00
  9.881040E-01  2.409773E-03  5.000000E-01  9.980830E-01  2.358756E-03  0.000000E+00  3.974082E-03 -8.598947E-04 -2.020698E-16  5.087716E-02  0.000000E+00
  9.866260E-01  2.729635E-03  5.000000E-01  9.965900E-01  2.681849E-03  0.000000E+00  3.786063E-03 -8.234162E-04 -3.449586E-18  5.263379E-02  0.000000E+00
  9.847200E-01  3.140157E-03  5.000000E-01  9.946648E-01  3.096516E-03  0.000000E+00  3.709318E-03 -7.960949E-04 -2.447526E-17  4.731978E-02  0.000000E+00
  9.823820E-01  3.640726E-03  5.000000E-01  9.923032E-01  3.602140E-03  0.000000E+00  3.767079E-03 -8.030800E-04 -4.530229E-17  3.923147E-02  0.000000E+00
  9.796080E-01  4.230502E-03  5.000000E-01  9.895012E-01  4.197872E-03  0.000000E+00  3.936202E-03 -8.331558E-04  3.517222E-18  3.033863E-02  0.000000E+00
  9.763910E-01  4.908441E-03  5.000000E-01  9.862517E-01  4.882658E-03  0.000000E+00  4.174453E-03 -8.753809E-04  4.275070E-17  2.012987E-02  0.000000E+00
  9.727270E-01  5.673102E-03  5.000000E-01  9.825507E-01  5.655042E-03  0.000000E+00  4.454009E-03 -9.238772E-04  3.588549E-17  8.510566E-03  0.000000E+00
  9.686070E-01  6.522843E-03  5.000000E-01  9.783891E-01  6.513364E-03  0.000000E+00  4.758442E-03 -9.746959E-04  9.405343E-18 -4.278236E-03  0.000000E+00
  9.640240E-01  7.455555E-03  5.000000E-01  9.737598E-01  7.455496E-03  0.000000E+00  5.078808E-03 -1.025451E-03 -6.833951E-18 -1.807901E-02  0.000000E+00
  9.589680E-01  8.468783E-03  5.000000E-01  9.686527E-01  8.478956E-03  0.000000E+00  5.411234E-03 -1.074952E-03 -8.329467E-18 -3.275273E-02  0.000000E+00
  9.534310E-01  9.559586E-03  5.000000E-01  9.630598E-01  9.580776E-03  0.000000E+00  5.753905E-03 -1.122458E-03 -4.541026E-18 -4.815841E-02  0.000000E+00
  9.474030E-01  1.072461E-02  5.000000E-01  9.569709E-01  1.075756E-02  0.000000E+00  6.104766E-03 -1.166972E-03 -1.859845E-18 -6.406492E-02  0.000000E+00
  9.408720E-01  1.196005E-02  5.000000E-01  9.503740E-01  1.200548E-02  0.000000E+00  6.460337E-03 -1.207541E-03 -1.009928E-18 -8.029442E-02  0.000000E+00
  9.338280E-01  1.326165E-02  5.000000E-01  9.432588E-01  1.332023E-02  0.000000E+00  6.816188E-03 -1.243214E-03  1.957957E-19 -9.668056E-02  0.000000E+00
  9.262600E-01  1.462482E-02  5.000000E-01  9.356144E-01  1.469716E-02  0.000000E+00  7.167077E-03 -1.272743E-03  1.568518E-18 -1.129784E-01  0.000000E+00
  9.181550E-01  1.604444E-02  5.000000E-01  9.274275E-01  1.613112E-02  0.000000E+00  7.506700E-03 -1.294999E-03  1.028164E-18 -1.289929E-01  0.000000E+00
  9.095020E-01  1.751522E-02  5.000000E-01  9.186872E-01  1.761675E-02  0.000000E+00  7.827973E-03 -1.308879E-03  5.606997E-19 -1.444144E-01  0.000000E+00
  9.002880E-01  1.903138E-02  5.000000E-01  9.093801E-01  1.914822E-02  0.000000E+00  8.122458E-03 -1.313441E-03  4.970985E-19 -1.587195E-01  0.000000E+00
  8.905020E-01  2.058705E-02  5.000000E-01  8.994953E-01  2.071960E-02  0.000000E+00  8.380387E-03 -1.309261E-03  9.511538E-19 -1.715803E-01  0.000000E+00
  8.801320E-01  2.217956E-02  5.000000E-01  8.890205E-01  2.232820E-02  0.000000E+00  8.593527E-03 -1.298757E-03  4.603549E-19 -1.830702E-01  0.000000E+00
  8.691700E-01  2.381007E-02  5.000000E-01  8.779478E-01  2.397518E-02  0.000000E+00  8.758475E-03 -1.284528E-03 -5.907317E-19 -1.934091E-01  0.000000E+00
  8.691700E-01  2.381007E-02  5.000000E-01  8.779478E-01  2.397518E-02  0.000000E+00  8.758475E-03 -1.284528E-03 -5.907317E-19 -1.934091E-01  0.000000E+00
  8.576080E-01  2.548208E-02  5.000000E-01  8.662691E-01  2.566407E-02  0.000000E+00  8.877402E-03 -1.268912E-03  5.604138E-19 -2.027364E-01  0.000000E+00
  8.454380E-01  2.720156E-02  5.000000E-01  8.539762E-01  2.740092E-02  0.000000E+00  8.957285E-03 -1.255096E-03  1.050989E-18 -2.112570E-01  0.000000E+00
  8.326580E-01  2.897777E-02  5.000000E-01  8.410671E-01  2.919507E-02  0.000000E+00  9.010207E-03 -1.246926E-03  1.398513E-18 -2.195022E-01  0.000000E+00
  8.192630E-01  3.082387E-02  5.000000E-01  8.275368E-01  3.105981E-02  0.000000E+00  9.054354E-03 -1.248855E-03  1.323449E-18 -2.288099E-01  0.000000E+00
  8.052550E-01  3.275710E-02  5.000000E-01  8.133874E-01  3.301256E-02  0.000000E+00  9.115244E-03 -1.264285E-03  2.837426E-19 -2.411792E-01  0.000000E+00
  7.906370E-01  3.479390E-02  5.000000E-01  7.986217E-01  3.506994E-02  0.000000E+00  9.223496E-03 -1.291456E-03 -2.114147E-19 -2.577640E-01  0.000000E+00
  7.754120E-01  3.693574E-02  5.000000E-01  7.832430E-01  3.723341E-02  0.000000E+00  9.404486E-03 -1.323797E-03 -8.181697E-19 -2.781925E-01  0.000000E+00
  7.595880E-01  3.916442E-02  5.000000E-01  7.672592E-01  3.948459E-02  0.000000E+00  9.667220E-03 -1.355561E-03  2.555619E-20 -3.018360E-01  0.000000E+00
  7.431760E-01  4.145550E-02  5.000000E-01  7.506814E-01  4.179881E-02  0.000000E+00  1.000403E-02 -1.382758E-03  1.132746E-18 -3.281156E-01  0.000000E+00
  7.261880E-01  4.378063E-02  5.000000E-01  7.335218E-01  4.414742E-02  0.000000E+00  1.039587E-02 -1.400641E-03  1.003983E-18 -3.557272E-01  0.000000E+00
  7.086430E-01  4.610856E-02  5.000000E-01  7.157997E-01  4.649886E-02  0.000000E+00  1.081615E-02 -1.404704E-03  1.064007E-19 -3.826826E-01  0.000000E+00
  6.905640E-01  4.840854E-02  5.000000E-01  6.975381E-01  4.882207E-02  0.000000E+00  1.123575E-02 -1.394194E-03 -4.461729E-19 -4.074896E-01  0.000000E+00
  6.719770E-01  5.065928E-02  5.000000E-01  6.787634E-01  5.109554E-02  0.000000E+00  1.163154E-02 -1.375491E-03  3.377365E-19 -4.309116E-01  0.000000E+00
  6.529150E-01  5.286062E-02  5.000000E-01  6.595089E-01  5.331911E-02  0.000000E+00  1.199960E-02 -1.355788E-03  2.403862E-20 -4.549982E-01  0.000000E+00
  6.334180E-01  5.501595E-02  5.000000E-01  6.398150E-01  5.549621E-02  0.000000E+00  1.235775E-02 -1.334044E-03  5.898006E-20 -4.807847E-01  0.000000E+00
  6.135280E-01  5.711265E-02  5.000000E-01  6.197241E-01  5.761408E-02  0.000000E+00  1.272932E-02 -1.305872E-03  1.173673E-18 -5.087881E-01  0.000000E+00
  5.932910E-01  5.913231E-02  5.000000E-01  5.992827E-01  5.965414E-02  0.000000E+00  1.313076E-02 -1.267641E-03  1.154601E-18 -5.389124E-01  0.000000E+00
  5.727570E-01  6.104940E-02  5.000000E-01  5.785413E-01  6.159059E-02  0.000000E+00  1.356723E-02 -1.213844E-03  9.526327E-19 -5.691015E-01  0.000000E+00
  5.519810E-01  6.283117E-02  5.000000E-01  5.575555E-01  6.339036E-02  0.000000E+00  1.402778E-02 -1.139675E-03  1.314411E-18 -5.965392E-01  0.000000E+00
  5.310180E-01  6.444387E-02  5.000000E-01  5.363808E-01  6.501934E-02  0.000000E+00  1.448632E-02 -1.051142E-03  6.033006E-19 -6.216164E-01  0.000000E+00
  5.099250E-01  6.588394E-02  5.000000E-01  5.150748E-01  6.647395E-02  0.000000E+00  1.492376E-02 -9.609715E-04  4.982576E-19 -6.479059E-01  0.000000E+00
  4.887640E-01  6.716533E-02  5.000000E-01  4.937001E-01  6.776829E-02  0.000000E+00  1.535207E-02 -8.663542E-04  4.444597E-19 -6.763460E-01  0.000000E+00
  4.675910E-01  6.827572E-02  5.000000E-01  4.723133E-01  6.888989E-02  0.000000E+00  1.579576E-02 -7.523207E-04 -3.950502E-19 -7.043983E-01  0.000000E+00
  7.860720E-05 -4.425311E-04  5.000000E-01  7.940615E-05 -5.223538E-04  0.000000E+00 -1.124877E-02  3.631478E-02 -7.980821E-15  7.923769E-01  0.000000E+00
  3.989240E-04 -1.046678E-03  5.000000E-01  4.029579E-04 -1.132602E-03  0.000000E+00 -1.024962E-02  1.605166E-02 -3.391533E-15  1.080810E+00  0.000000E+00
  1.196920E-03 -1.778763E-03  5.000000E-01  1.209013E-03 -1.872081E-03  0.000000E+00 -2.707611E-03  2.825761E-03 -4.345808E-16  1.079561E+00  0.000000E+00
  2.563580E-03 -2.546576E-03  5.000000E-01  2.589475E-03 -2.647648E-03  0.000000E+00  4.636013E-03 -2.009598E-03  5.902409E-16  9.358420E-01  0.000000E+00
  4.492740E-03 -3.309295E-03  5.000000E-01  4.538118E-03 -3.418069E-03  0.000000E+00  8.990322E-03 -3.101045E-03  5.416779E-16  8.115260E-01  0.000000E+00
  6.952190E-03 -4.063639E-03  5.000000E-01  7.022406E-03 -4.180031E-03  0.000000E+00  1.117643E-02 -3.147463E-03  2.397577E-16  7.251800E-01  0.000000E+00
  9.910730E-03 -4.831265E-03  5.000000E-01  1.001082E-02 -4.955409E-03  0.000000E+00  1.230804E-02 -3.033226E-03  5.157434E-17  6.571153E-01  0.000000E+00
  1.334950E-02 -5.637591E-03  5.000000E-01  1.348432E-02 -5.769879E-03  0.000000E+00  1.297619E-02 -2.871995E-03  7.165502E-18  5.902768E-01  0.000000E+00
  1.728780E-02 -6.461253E-03  5.000000E-01  1.746240E-02 -6.601859E-03  0.000000E+00  1.337427E-02 -2.580189E-03  1.467511E-17  5.181147E-01  0.000000E+00
  2.175590E-02 -7.252405E-03  5.000000E-01  2.197562E-02 -7.401001E-03  0.000000E+00  1.355667E-02 -2.175574E-03  1.350948E-17  4.508997E-01  0.000000E+00
  2.676920E-02 -7.972887E-03  5.000000E-01  2.703955E-02 -8.128760E-03  0.000000E+00  1.359091E-02 -1.758206E-03  3.932991E-18  4.000630E-01  0.000000E+00
  3.232800E-02 -8.610997E-03  5.000000E-01  3.265449E-02 -8.773314E-03  0.000000E+00  1.354940E-02 -1.401569E-03 -2.438576E-19  3.665349E-01  0.000000E+00
  3.842930E-02 -9.172621E-03  5.000000E-01  3.881741E-02 -9.340610E-03  0.000000E+00  1.347501E-02 -1.126772E-03  1.103224E-18  3.441561E-01  0.000000E+00
  4.507220E-02 -9.671977E-03  5.000000E-01  4.552739E-02 -9.845009E-03  0.000000E+00  1.339992E-02 -9.406453E-04  2.395990E-18  3.283045E-01  0.000000E+00
  5.225680E-02 -1.013989E-02  5.000000E-01  5.278455E-02 -1.031765E-02  0.000000E+00  1.336029E-02 -8.409486E-04  1.452459E-18  3.163608E-01  0.000000E+00
  5.998640E-02 -1.060988E-02  5.000000E-01  6.059221E-02 -1.079238E-02  0.000000E+00  1.336372E-02 -7.899822E-04  3.689183E-19  3.030598E-01  0.000000E+00
  6.827110E-02 -1.108670E-02  5.000000E-01  6.896058E-02 -1.127402E-02  0.000000E+00  1.338549E-02 -7.457890E-04  1.872085E-19  2.854905E-01  0.000000E+00
  7.712280E-02 -1.156358E-02  5.000000E-01  7.790168E-02 -1.175571E-02  0.000000E+00  1.340356E-02 -6.975421E-04  2.980144E-19  2.664638E-01  0.000000E+00
  8.655260E-02 -1.203644E-02  5.000000E-01  8.742671E-02 -1.223335E-02  0.000000E+00  1.340531E-02 -6.445036E-04  3.407053E-19  2.484628E-01  0.000000E+00
  9.657140E-02 -1.249754E-02  5.000000E-01  9.754669E-02 -1.269911E-02  0.000000E+00  1.337566E-02 -5.774615E-04  5.057698E-19  2.310441E-01  0.000000E+00
  1.071900E-01 -1.292603E-02  5.000000E-01  1.082725E-01 -1.313193E-02  0.000000E+00  1.330696E-02 -4.945382E-04  5.886968E-19  2.144930E-01  0.000000E+00
  1.184180E-01 -1.330682E-02  5.000000E-01  1.196139E-01 -1.351656E-02  0.000000E+00  1.321545E-02 -4.123061E-04  6.378345E-19  2.010392E-01  0.000000E+00
  1.302610E-01 -1.364336E-02  5.000000E-01  1.315765E-01 -1.385650E-02  0.000000E+00  1.312841E-02 -3.465815E-04  5.282632E-19  1.909881E-01  0.000000E+00
  1.427230E-01 -1.394695E-02  5.000000E-01  1.441644E-01 -1.416315E-02  0.000000E+00  1.306262E-02 -3.014046E-04  1.027355E-19  1.824607E-01  0.000000E+00
  1.427230E-01 -1.394695E-02  5.000000E-01  1.441644E-01 -1.416315E-02  0.000000E+00  1.306262E-02 -3.014046E-04  1.027355E-19  1.824607E-01  0.000000E+00
  1.558070E-01 -1.423220E-02  5.000000E-01  1.573805E-01 -1.445128E-02  0.000000E+00  1.301328E-02 -2.681228E-04  3.554176E-20  1.732244E-01  0.000000E+00
  1.695140E-01 -1.449876E-02  5.000000E-01  1.712259E-01 -1.472054E-02  0.000000E+00  1.295716E-02 -2.303130E-04  4.441764E-19  1.620726E-01  0.000000E+00
  1.838420E-01 -1.472963E-02  5.000000E-01  1.856986E-01 -1.495374E-02  0.000000E+00  1.287043E-02 -1.762362E-04  3.035752E-19  1.500094E-01  0.000000E+00
  1.987870E-01 -1.489789E-02  5.000000E-01  2.007946E-01 -1.512369E-02  0.000000E+00  1.274432E-02 -1.037233E-04 -3.995771E-20  1.389234E-01  0.000000E+00
  2.143420E-01 -1.497523E-02  5.000000E-01  2.165067E-01 -1.520182E-02  0.000000E+00  1.259518E-02 -2.619142E-05  7.507686E-19  1.308837E-01  0.000000E+00
  2.304940E-01 -1.496047E-02  5.000000E-01  2.328218E-01 -1.518691E-02  0.000000E+00  1.246044E-02  3.151164E-05  1.314819E-18  1.272901E-01  0.000000E+00
  2.472290E-01 -1.488996E-02  5.000000E-01  2.497258E-01 -1.511569E-02  0.000000E+00  1.237078E-02  5.829141E-05  7.507280E-19  1.262303E-01  0.000000E+00
  2.645310E-01 -1.480050E-02  5.000000E-01  2.672025E-01 -1.502532E-02  0.000000E+00  1.232487E-02  7.053574E-05 -6.107966E-21  1.231088E-01  0.000000E+00
  2.823750E-01 -1.469015E-02  5.000000E-01  2.852267E-01 -1.491386E-02  0.000000E+00  1.229585E-02  9.399302E-05 -2.051067E-20  1.155067E-01  0.000000E+00
  3.007320E-01 -1.452350E-02  5.000000E-01  3.037691E-01 -1.474553E-02  0.000000E+00  1.225689E-02  1.393611E-04  3.555204E-20  1.056686E-01  0.000000E+00
  3.195690E-01 -1.426534E-02  5.000000E-01  3.227964E-01 -1.448476E-02  0.000000E+00  1.219310E-02  2.011376E-04 -1.320123E-19  9.724206E-02  0.000000E+00
  3.388440E-01 -1.389246E-02  5.000000E-01  3.422660E-01 -1.410812E-02  0.000000E+00  1.209646E-02  2.689876E-04 -9.897692E-21  9.199709E-02  0.000000E+00
  3.585140E-01 -1.339741E-02  5.000000E-01  3.621347E-01 -1.360807E-02  0.000000E+00  1.195710E-02  3.365257E-04  2.337328E-19  8.956766E-02  0.000000E+00
  3.785290E-01 -1.277421E-02  5.000000E-01  3.823518E-01 -1.297857E-02  0.000000E+00  1.176101E-02  4.027762E-04  1.383114E-19  8.894376E-02  0.000000E+00
  3.988350E-01 -1.201454E-02  5.000000E-01  4.028629E-01 -1.221123E-02  0.000000E+00  1.149985E-02  4.675028E-04 -2.490537E-19  9.031909E-02  0.000000E+00
  4.193750E-01 -1.111130E-02  5.000000E-01  4.236103E-01 -1.129887E-02  0.000000E+00  1.118001E-02  5.337252E-04 -4.502299E-19  9.410446E-02  0.000000E+00
  4.400850E-01 -1.004278E-02  5.000000E-01  4.445295E-01 -1.021956E-02  0.000000E+00  1.083216E-02  6.001278E-04 -8.775485E-19  1.008081E-01  0.000000E+00
  4.609060E-01 -8.806857E-03  5.000000E-01  4.655607E-01 -8.971152E-03  0.000000E+00  1.051576E-02  6.459892E-04 -7.993431E-19  1.121469E-01  0.000000E+00
  4.818030E-01 -7.475849E-03  5.000000E-01  4.866688E-01 -7.626702E-03  0.000000E+00  1.029467E-02  6.425951E-04  1.506104E-19  1.286313E-01  0.000000E+00
  5.027520E-01 -6.193731E-03  5.000000E-01  5.078293E-01 -6.331635E-03  0.000000E+00  1.018190E-02  5.949662E-04 -5.099165E-19  1.445295E-01  0.000000E+00
  5.237130E-01 -5.031349E-03  5.000000E-01  5.290020E-01 -5.157515E-03  0.000000E+00  1.011173E-02  5.547415E-04 -1.173383E-18  1.506645E-01  0.000000E+00
  5.446170E-01 -3.902849E-03  5.000000E-01  5.501171E-01 -4.017618E-03  0.000000E+00  9.989439E-03  5.662630E-04 -8.028063E-19  1.463881E-01  0.000000E+00
  5.653940E-01 -2.666637E-03  5.000000E-01  5.711040E-01 -2.768921E-03  0.000000E+00  9.770199E-03  6.156533E-04 -4.641306E-19  1.433193E-01  0.000000E+00
  4.675910E-01  6.827572E-02  5.000000E-01  4.723133E-01  6.888989E-02  0.000000E+00  1.579576E-02 -7.523207E-04 -3.950502E-19 -7.043983E-01  0.000000E+00
  4.464640E-01  6.918367E-02  5.000000E-01  4.509729E-01  6.980701E-02  0.000000E+00  1.625905E-02 -6.164340E-04 -3.229801E-19 -7.308914E-01  0.000000E+00
  4.254410E-01  6.987718E-02  5.000000E-01  4.297376E-01  7.050753E-02  0.000000E+00  1.673106E-02 -4.653608E-04 -1.352606E-19 -7.564665E-01  0.000000E+00
  4.045840E-01  7.035207E-02  5.000000E-01  4.086699E-01  7.098721E-02  0.000000E+00  1.720315E-02 -3.012630E-04  4.654862E-20 -7.816141E-01  0.000000E+00
  3.839530E-01  7.060748E-02  5.000000E-01  3.878306E-01  7.124520E-02  0.000000E+00  1.767264E-02 -1.216856E-04  7.914493E-20 -8.061462E-01  0.000000E+00
  3.636060E-01  7.063862E-02  5.000000E-01  3.672781E-01  7.127665E-02  0.000000E+00  1.813978E-02  7.698416E-05 -1.246841E-19 -8.290699E-01  0.000000E+00
  3.435960E-01  7.044142E-02  5.000000E-01  3.470660E-01  7.107746E-02  0.000000E+00  1.860152E-02  2.959737E-04 -3.741037E-19 -8.493823E-01  0.000000E+00
  3.239710E-01  7.001343E-02  5.000000E-01  3.272428E-01  7.064515E-02  0.000000E+00  1.904898E-02  5.307627E-04 -7.395755E-20 -8.674273E-01  0.000000E+00
  3.047740E-01  6.936440E-02  5.000000E-01  3.078519E-01  6.998956E-02  0.000000E+00  1.947612E-02  7.743267E-04  2.604327E-19 -8.846239E-01  0.000000E+00
  2.860450E-01  6.851043E-02  5.000000E-01  2.889338E-01  6.912697E-02  0.000000E+00  1.989159E-02  1.030655E-03  6.307956E-19 -9.008020E-01  0.000000E+00
  2.678190E-01  6.745537E-02  5.000000E-01  2.705237E-01  6.806126E-02  0.000000E+00  2.030572E-02  1.307057E-03  7.002723E-19 -9.150283E-01  0.000000E+00
  2.501300E-01  6.620448E-02  5.000000E-01  2.526561E-01  6.679773E-02  0.000000E+00  2.071770E-02  1.602438E-03  1.052502E-19 -9.277016E-01  0.000000E+00
  2.330040E-01  6.476819E-02  5.000000E-01  2.353571E-01  6.534694E-02  0.000000E+00  2.112361E-02  1.914034E-03 -1.334698E-20 -9.397243E-01  0.000000E+00
  2.164660E-01  6.315947E-02  5.000000E-01  2.186521E-01  6.372197E-02  0.000000E+00  2.152482E-02  2.242092E-03  7.067524E-19 -9.509847E-01  0.000000E+00
  2.005340E-01  6.139230E-02  5.000000E-01  2.025592E-01  6.193695E-02  0.000000E+00  2.193134E-02  2.597077E-03  1.484517E-18 -9.585605E-01  0.000000E+00
  1.852230E-01  5.946778E-02  5.000000E-01  1.870936E-01  5.999300E-02  0.000000E+00  2.234204E-02  2.984144E-03  1.453068E-18 -9.600626E-01  0.000000E+00
  1.705440E-01  5.739448E-02  5.000000E-01  1.722663E-01  5.789876E-02  0.000000E+00  2.273640E-02  3.386144E-03  2.219200E-18 -9.590010E-01  0.000000E+00
  1.565000E-01  5.519574E-02  5.000000E-01  1.580805E-01  5.567782E-02  0.000000E+00  2.310996E-02  3.788002E-03  2.919745E-18 -9.628924E-01  0.000000E+00
  1.430940E-01  5.289898E-02  5.000000E-01  1.445391E-01  5.335786E-02  0.000000E+00  2.350404E-02  4.212966E-03  6.591672E-19 -9.748115E-01  0.000000E+00
  1.303270E-01  5.051026E-02  5.000000E-01  1.316432E-01  5.094502E-02  0.000000E+00  2.397838E-02  4.729408E-03 -1.172863E-18 -9.858005E-01  0.000000E+00
  1.182110E-01  4.800149E-02  5.000000E-01  1.194048E-01  4.841091E-02  0.000000E+00  2.451765E-02  5.374068E-03 -1.066457E-18 -9.813444E-01  0.000000E+00
  1.067560E-01  4.535761E-02  5.000000E-01  1.078341E-01  4.574033E-02  0.000000E+00  2.499559E-02  6.102552E-03 -2.348703E-19 -9.526692E-01  0.000000E+00
  9.596750E-02  4.258359E-02  5.000000E-01  9.693669E-02  4.293829E-02  0.000000E+00  2.523762E-02  6.777188E-03 -2.001702E-19 -9.077600E-01  0.000000E+00
  8.582800E-02  3.974332E-02  5.000000E-01  8.669479E-02  4.006934E-02  0.000000E+00  2.517731E-02  7.275673E-03 -1.442294E-18 -8.648955E-01  0.000000E+00
  8.582800E-02  3.974332E-02  5.000000E-01  8.669479E-02  4.006934E-02  0.000000E+00  2.517731E-02  7.275673E-03 -1.442294E-18 -8.648955E-01  0.000000E+00
  7.631050E-02  3.690654E-02  5.000000E-01  7.708117E-02  3.720391E-02  0.000000E+00  2.494433E-02  7.667958E-03 -6.522692E-19 -8.280490E-01  0.000000E+00
  6.740780E-02  3.408638E-02  5.000000E-01  6.808856E-02  3.435527E-02  0.000000E+00  2.469807E-02  8.084524E-03  9.195098E-19 -7.904439E-01  0.000000E+00
  5.911740E-02  3.128483E-02  5.000000E-01  5.971444E-02  3.152543E-02  0.000000E+00  2.449060E-02  8.548574E-03 -5.324963E-20 -7.493291E-01  0.000000E+00
  5.143150E-02  2.851612E-02  5.000000E-01  5.195092E-02  2.872875E-02  0.000000E+00  2.430183E-02  9.028640E-03 -4.672983E-18 -7.054200E-01  0.000000E+00
  4.433770E-02  2.580013E-02  5.000000E-01  4.478548E-02  2.598533E-02  0.000000E+00  2.409579E-02  9.501044E-03 -1.390697E-17 -6.612553E-01  0.000000E+00
  3.782240E-02  2.315590E-02  5.000000E-01  3.820438E-02  2.331440E-02  0.000000E+00  2.385344E-02  9.968124E-03 -2.243941E-17 -6.206052E-01  0.000000E+00
  3.187460E-02  2.059709E-02  5.000000E-01  3.219651E-02  2.072975E-02  0.000000E+00  2.358722E-02  1.045565E-02 -2.748920E-17 -5.864313E-01  0.000000E+00
  2.648400E-02  1.813541E-02  5.000000E-01  2.675147E-02  1.824321E-02  0.000000E+00  2.333051E-02  1.103027E-02 -3.507769E-17 -5.527281E-01  0.000000E+00
  2.164990E-02  1.577242E-02  5.000000E-01  2.186855E-02  1.585635E-02  0.000000E+00  2.305500E-02  1.174570E-02 -2.921587E-17 -5.026230E-01  0.000000E+00
  1.737670E-02  1.350820E-02  5.000000E-01  1.755219E-02  1.356927E-02  0.000000E+00  2.260432E-02  1.246063E-02  8.209834E-17 -4.302434E-01  0.000000E+00
  1.364080E-02  1.136717E-02  5.000000E-01  1.377856E-02  1.140661E-02  0.000000E+00  2.183680E-02  1.289532E-02  3.891444E-16 -3.547077E-01  0.000000E+00
  1.039090E-02  9.387354E-03  5.000000E-01  1.049584E-02  9.406804E-03  0.000000E+00  2.082175E-02  1.300037E-02  6.364557E-16 -3.005352E-01  0.000000E+00
  7.586340E-03  7.590535E-03  5.000000E-01  7.662960E-03  7.591839E-03  0.000000E+00  1.981981E-02  1.313707E-02  1.400856E-16 -2.728816E-01  0.000000E+00
  5.226210E-03  5.971567E-03  5.000000E-01  5.278995E-03  5.956521E-03  0.000000E+00  1.913646E-02  1.385027E-02 -1.254905E-15 -2.630064E-01  0.000000E+00
  3.324300E-03  4.520616E-03  5.000000E-01  3.357878E-03  4.490916E-03  0.000000E+00  1.905173E-02  1.573800E-02 -1.944289E-15 -2.626368E-01  0.000000E+00
  1.883580E-03  3.239892E-03  5.000000E-01  1.902608E-03  3.197259E-03  0.000000E+00  1.959767E-02  1.965266E-02  3.373554E-16 -2.480887E-01  0.000000E+00
  8.951490E-04  2.141962E-03  5.000000E-01  9.041943E-04  2.088240E-03  0.000000E+00  1.977977E-02  2.632412E-02  4.735540E-15 -1.684145E-01  0.000000E+00
  3.201820E-04  1.251399E-03  5.000000E-01  3.234206E-04  1.188684E-03  0.000000E+00  1.721883E-02  3.452044E-02  6.059039E-15  1.727501E-02  0.000000E+00
  6.852390E-05  5.982996E-04  5.000000E-01  6.922101E-05  5.289883E-04  0.000000E+00  1.091200E-02  3.994444E-02  4.433843E-16  2.418977E-01  0.000000E+00
  4.217600E-06  2.050410E-04  5.000000E-01  4.265277E-06  1.317582E-04  0.000000E+00  4.109033E-03  4.149311E-02 -8.831150E-15  3.210272E-01  0.000000E+00
 -5.032520E-09  7.460013E-05  5.000000E-01  0.000000E+00  0.000000E+00  0.000000E+00 -6.920275E-04  4.750534E-02 -1.403293E-14  2.774132E-01  0.000000E+00
  5.154440E-06 -5.621161E-05  5.000000E-01  5.211579E-06 -1.321328E-04  0.000000E+00 -5.908940E-03  5.023730E-02 -1.256967E-14  4.146970E-01  0.000000E+00