 Title = "ADflow Slice Data"
Variables =  "CoordinateX"  "CoordinateY"  "CoordinateZ"  "XoC"  "YoC"  "ZoC" "VelocityX" "VelocityY" "VelocityZ" "CoefPressure" "Mach" 
Zone T= "Slice_0001 None Absolute Regular z = 0.50000000"
 Nodes =          192  Elements=          184  ZONETYPE=FELINESEG
 DATAPACKING=POINT
  5.653940E-01 -1.959604E-03  5.000000E-01  5.711040E-01 -2.050020E-03  0.000000E+00  9.850013E-03  5.254946E-04  1.413800E-18  1.517685E-01  0.000000E+00
  5.859770E-01 -8.032988E-04  5.000000E-01  5.918948E-01 -8.820372E-04  0.000000E+00  9.671528E-03  5.758890E-04  1.805370E-18  1.524243E-01  0.000000E+00
  6.063060E-01  4.780122E-04  5.000000E-01  6.124291E-01  4.122139E-04  0.000000E+00  9.416955E-03  6.233097E-04  7.701414E-19  1.603693E-01  0.000000E+00
  6.263240E-01  1.868374E-03  5.000000E-01  6.326493E-01  1.816617E-03  0.000000E+00  9.114086E-03  6.505199E-04 -2.720594E-19  1.737820E-01  0.000000E+00
  6.459860E-01  3.311183E-03  5.000000E-01  6.525099E-01  3.273997E-03  0.000000E+00  8.789846E-03  6.508340E-04 -2.669051E-19  1.904805E-01  0.000000E+00
  6.652460E-01  4.749972E-03  5.000000E-01  6.719644E-01  4.727317E-03  0.000000E+00  8.452739E-03  6.332303E-04 -4.385824E-19  2.074770E-01  0.000000E+00
  6.840650E-01  6.162027E-03  5.000000E-01  6.909734E-01  6.153632E-03  0.000000E+00  8.092526E-03  6.122408E-04 -4.735722E-19  2.227392E-01  0.000000E+00
  7.024070E-01  7.560937E-03  5.000000E-01  7.095007E-01  7.566669E-03  0.000000E+00  7.700206E-03  5.905021E-04 -2.260683E-19  2.377226E-01  0.000000E+00
  7.202400E-01  8.937841E-03  5.000000E-01  7.275138E-01  8.957479E-03  0.000000E+00  7.283472E-03  5.596594E-04 -6.776789E-19  2.551403E-01  0.000000E+00
  7.375350E-01  1.026092E-02  5.000000E-01  7.449834E-01  1.029392E-02  0.000000E+00  6.863297E-03  5.150677E-04 -2.778612E-19  2.749905E-01  0.000000E+00
  7.542690E-01  1.149098E-02  5.000000E-01  7.618864E-01  1.153640E-02  0.000000E+00  6.468176E-03  4.584438E-04  1.930809E-19  2.955235E-01  0.000000E+00
  7.704220E-01  1.258965E-02  5.000000E-01  7.782026E-01  1.264617E-02  0.000000E+00  6.129903E-03  3.934216E-04 -4.078034E-19  3.147442E-01  0.000000E+00
  7.859770E-01  1.352502E-02  5.000000E-01  7.939147E-01  1.359099E-02  0.000000E+00  5.884758E-03  3.153377E-04 -3.741590E-19  3.325126E-01  0.000000E+00
  8.009220E-01  1.422737E-02  5.000000E-01  8.090106E-01  1.430043E-02  0.000000E+00  5.768303E-03  2.154104E-04 -3.160212E-19  3.491108E-01  0.000000E+00
  8.152480E-01  1.462251E-02  5.000000E-01  8.234813E-01  1.469955E-02  0.000000E+00  5.791234E-03  9.980601E-05 -3.101917E-19  3.606811E-01  0.000000E+00
  8.289490E-01  1.471603E-02  5.000000E-01  8.373206E-01  1.479402E-02  0.000000E+00  5.931862E-03 -1.736602E-05  2.585512E-19  3.640443E-01  0.000000E+00
  8.420260E-01  1.455372E-02  5.000000E-01  8.505297E-01  1.463008E-02  0.000000E+00  6.155598E-03 -1.294101E-04  3.700156E-19  3.611308E-01  0.000000E+00
  8.544790E-01  1.418977E-02  5.000000E-01  8.631085E-01  1.426245E-02  0.000000E+00  6.429286E-03 -2.342823E-04  1.181641E-19  3.548420E-01  0.000000E+00
  8.663160E-01  1.367716E-02  5.000000E-01  8.750650E-01  1.374466E-02  0.000000E+00  6.723632E-03 -3.304610E-04 -1.241151E-20  3.466773E-01  0.000000E+00
  8.775420E-01  1.306269E-02  5.000000E-01  8.864044E-01  1.312398E-02  0.000000E+00  7.013594E-03 -4.158727E-04  1.111740E-19  3.373743E-01  0.000000E+00
  8.881660E-01  1.238613E-02  5.000000E-01  8.971357E-01  1.244059E-02  0.000000E+00  7.280355E-03 -4.885097E-04  2.060060E-19  3.275475E-01  0.000000E+00
  8.981970E-01  1.167987E-02  5.000000E-01  9.072680E-01  1.172721E-02  0.000000E+00  7.514242E-03 -5.495622E-04  3.862995E-19  3.179674E-01  0.000000E+00
  9.076460E-01  1.096405E-02  5.000000E-01  9.168124E-01  1.100415E-02  0.000000E+00  7.717001E-03 -6.051699E-04  6.258045E-19  3.095237E-01  0.000000E+00
  9.165220E-01  1.024516E-02  5.000000E-01  9.257780E-01  1.027800E-02  0.000000E+00  7.898204E-03 -6.611129E-04  4.858210E-19  3.022364E-01  0.000000E+00
  9.165220E-01  1.024516E-02  5.000000E-01  9.257780E-01  1.027800E-02  0.000000E+00  7.898204E-03 -6.611129E-04  4.858210E-19  3.022364E-01  0.000000E+00
  9.248360E-01  9.527058E-03  5.000000E-01  9.341760E-01  9.552646E-03  0.000000E+00  8.068193E-03 -7.192968E-04  4.196970E-19  2.953129E-01  0.000000E+00
  9.325990E-01  8.813716E-03  5.000000E-01  9.420174E-01  8.832101E-03  0.000000E+00  8.235552E-03 -7.805001E-04  4.244158E-19  2.883070E-01  0.000000E+00
  9.398210E-01  8.108867E-03  5.000000E-01  9.493123E-01  8.120134E-03  0.000000E+00  8.407741E-03 -8.456405E-04 -2.977924E-20  2.811219E-01  0.000000E+00
  9.465130E-01  7.416251E-03  5.000000E-01  9.560719E-01  7.420523E-03  0.000000E+00  8.591163E-03 -9.155225E-04 -3.902932E-19  2.736441E-01  0.000000E+00
  9.526870E-01  6.739779E-03  5.000000E-01  9.623083E-01  6.737218E-03  0.000000E+00  8.790820E-03 -9.907748E-04 -1.545423E-19  2.657241E-01  0.000000E+00
  9.583540E-01  6.083696E-03  5.000000E-01  9.680325E-01  6.074510E-03  0.000000E+00  9.010371E-03 -1.071826E-03  3.224910E-19  2.572307E-01  0.000000E+00
  9.635240E-01  5.452636E-03  5.000000E-01  9.732547E-01  5.437077E-03  0.000000E+00  9.252652E-03 -1.158759E-03  5.197541E-19  2.480414E-01  0.000000E+00
  9.682080E-01  4.851550E-03  5.000000E-01  9.779860E-01  4.829921E-03  0.000000E+00  9.521332E-03 -1.251818E-03  2.220259E-19  2.381023E-01  0.000000E+00
  9.724140E-01  4.285705E-03  5.000000E-01  9.822345E-01  4.258361E-03  0.000000E+00  9.823319E-03 -1.351509E-03 -2.238600E-19  2.274079E-01  0.000000E+00
  9.761510E-01  3.760515E-03  5.000000E-01  9.860092E-01  3.727867E-03  0.000000E+00  1.016899E-02 -1.458253E-03 -2.080094E-19  2.159267E-01  0.000000E+00
  9.794290E-01  3.281348E-03  5.000000E-01  9.893203E-01  3.243861E-03  0.000000E+00  1.056528E-02 -1.572534E-03 -3.177579E-19  2.036694E-01  0.000000E+00
  9.822540E-01  2.853530E-03  5.000000E-01  9.921739E-01  2.811722E-03  0.000000E+00  1.099758E-02 -1.692488E-03  1.355541E-19  1.908867E-01  0.000000E+00
  9.846330E-01  2.482026E-03  5.000000E-01  9.945769E-01  2.436466E-03  0.000000E+00  1.141100E-02 -1.806998E-03  1.986091E-18  1.788263E-01  0.000000E+00
  9.865710E-01  2.171360E-03  5.000000E-01  9.965345E-01  2.122663E-03  0.000000E+00  1.167189E-02 -1.882080E-03  3.242796E-18  1.663505E-01  0.000000E+00
  9.880740E-01  1.925421E-03  5.000000E-01  9.980527E-01  1.874240E-03  0.000000E+00  1.156285E-02 -1.909955E-03 -2.079340E-18  1.472291E-01  0.000000E+00
  9.891450E-01  1.747387E-03  5.000000E-01  9.991345E-01  1.694408E-03  0.000000E+00  1.175881E-02 -2.046601E-03 -2.666051E-17  1.483159E-01  0.000000E+00
  9.897860E-01  1.639617E-03  5.000000E-01  9.997819E-01  1.585550E-03  0.000000E+00  1.513414E-02 -2.071161E-03 -7.497002E-17  1.958283E-01  0.000000E+00
  9.900000E-01  1.603530E-03  5.000000E-01  9.999981E-01  1.549098E-03  0.000000E+00  1.056195E-02 -4.456131E-03 -7.848746E-17 -4.730007E-02  0.000000E+00
  9.900000E-01  1.682240E-03  5.000000E-01  9.999981E-01  1.628604E-03  0.000000E+00  1.057980E-03 -1.483276E-02  4.288101E-18 -1.848730E-01  0.000000E+00
  9.900000E-01  1.760961E-03  5.000000E-01  9.999981E-01  1.708119E-03  0.000000E+00 -5.263323E-04 -1.393469E-02  8.431532E-17 -9.312423E-03  0.000000E+00
  9.900000E-01  1.839681E-03  5.000000E-01  9.999981E-01  1.787634E-03  0.000000E+00 -2.988480E-04  2.422171E-03  1.035762E-16 -1.401213E-02  0.000000E+00
  9.900000E-01  1.918391E-03  5.000000E-01  9.999981E-01  1.867140E-03  0.000000E+00  7.095473E-04  3.836828E-03  1.357570E-16 -1.316421E-01  0.000000E+00
  9.900000E-01  1.997112E-03  5.000000E-01  9.999981E-01  1.946655E-03  0.000000E+00  5.871993E-03 -2.622156E-03  1.755947E-16 -3.815625E-02  0.000000E+00
  9.900000E-01  1.997112E-03  5.000000E-01  9.999981E-01  1.946655E-03  0.000000E+00  5.871993E-03 -2.622156E-03  1.755947E-16 -3.815625E-02  0.000000E+00
  9.897900E-01  2.042775E-03  5.000000E-01  9.997860E-01  1.992780E-03  0.000000E+00  7.644953E-03 -1.991580E-03  1.258440E-16  1.031894E-01  0.000000E+00
  9.891580E-01  2.179730E-03  5.000000E-01  9.991476E-01  2.131117E-03  0.000000E+00  4.737106E-03 -9.654920E-04  4.146717E-17  6.114307E-02  0.000000E+00
  9.881040E-01  2.407815E-03  5.000000E-01  9.980830E-01  2.361506E-03  0.000000E+00  3.975266E-03 -8.576317E-04  2.567974E-18  5.155996E-02  0.000000E+00
  9.866260E-01  2.726770E-03  5.000000E-01  9.965900E-01  2.683682E-03  0.000000E+00  3.785667E-03 -8.210999E-04 -5.389543E-18  5.340706E-02  0.000000E+00
  9.847200E-01  3.136215E-03  5.000000E-01  9.946648E-01  3.097262E-03  0.000000E+00  3.705762E-03 -7.933516E-04 -3.546677E-18  4.820383E-02  0.000000E+00
  9.823820E-01  3.635604E-03  5.000000E-01  9.923032E-01  3.601694E-03  0.000000E+00  3.759254E-03 -7.996552E-04 -1.392353E-18  4.024479E-02  0.000000E+00
  9.796080E-01  4.224183E-03  5.000000E-01  9.895012E-01  4.196217E-03  0.000000E+00  3.923334E-03 -8.289140E-04 -9.838908E-19  3.150105E-02  0.000000E+00
  9.763910E-01  4.901009E-03  5.000000E-01  9.862517E-01  4.879879E-03  0.000000E+00  4.155965E-03 -8.702800E-04 -1.170799E-18  2.146028E-02  0.000000E+00
  9.727270E-01  5.664764E-03  5.000000E-01  9.825507E-01  5.651347E-03  0.000000E+00  4.429428E-03 -9.179385E-04 -7.946019E-19  1.002515E-02  0.000000E+00
  9.686070E-01  6.513941E-03  5.000000E-01  9.783891E-01  6.509101E-03  0.000000E+00  4.727351E-03 -9.679859E-04 -6.062529E-20 -2.566915E-03  0.000000E+00
  9.640240E-01  7.446593E-03  5.000000E-01  9.737598E-01  7.451171E-03  0.000000E+00  5.040843E-03 -1.018076E-03  5.425323E-19 -1.616294E-02  0.000000E+00
  9.589680E-01  8.460442E-03  5.000000E-01  9.686527E-01  8.475259E-03  0.000000E+00  5.366105E-03 -1.067061E-03  6.176633E-19 -3.062963E-02  0.000000E+00
  9.534310E-01  9.552747E-03  5.000000E-01  9.630598E-01  9.578595E-03  0.000000E+00  5.701433E-03 -1.114242E-03  4.887156E-20 -4.583295E-02  0.000000E+00
  9.474030E-01  1.072037E-02  5.000000E-01  9.569709E-01  1.075801E-02  0.000000E+00  6.044916E-03 -1.158676E-03 -2.985193E-19 -6.154987E-02  0.000000E+00
  9.408720E-01  1.195975E-02  5.000000E-01  9.503740E-01  1.200990E-02  0.000000E+00  6.393250E-03 -1.199459E-03  6.663546E-19 -7.761161E-02  0.000000E+00
  9.338280E-01  1.326688E-02  5.000000E-01  9.432588E-01  1.333024E-02  0.000000E+00  6.742205E-03 -1.235685E-03  1.018182E-18 -9.386164E-02  0.000000E+00
  9.262600E-01  1.463745E-02  5.000000E-01  9.356144E-01  1.471465E-02  0.000000E+00  7.086758E-03 -1.266143E-03  2.765968E-19 -1.100662E-01  0.000000E+00
  9.181550E-01  1.606663E-02  5.000000E-01  9.274275E-01  1.615826E-02  0.000000E+00  7.420847E-03 -1.289733E-03 -2.555226E-19 -1.260425E-01  0.000000E+00
  9.095020E-01  1.754942E-02  5.000000E-01  9.186871E-01  1.765603E-02  0.000000E+00  7.737655E-03 -1.305366E-03 -2.254597E-19 -1.414932E-01  0.000000E+00
  9.002880E-01  1.908035E-02  5.000000E-01  9.093801E-01  1.920242E-02  0.000000E+00  8.029049E-03 -1.312098E-03 -5.264920E-19 -1.559078E-01  0.000000E+00
  8.905020E-01  2.065385E-02  5.000000E-01  8.994953E-01  2.079181E-02  0.000000E+00  8.285610E-03 -1.310481E-03 -9.216667E-19 -1.689726E-01  0.000000E+00
  8.801320E-01  2.226756E-02  5.000000E-01  8.890205E-01  2.242181E-02  0.000000E+00  8.499541E-03 -1.302890E-03 -2.604617E-19 -1.807778E-01  0.000000E+00
  8.691700E-01  2.392295E-02  5.000000E-01  8.779478E-01  2.409392E-02  0.000000E+00  8.667961E-03 -1.291883E-03 -1.168087E-19 -1.915584E-01  0.000000E+00
  8.691700E-01  2.392295E-02  5.000000E-01  8.779478E-01  2.409392E-02  0.000000E+00  8.667961E-03 -1.291883E-03 -1.168087E-19 -1.915584E-01  0.000000E+00
  8.576080E-01  2.562376E-02  5.000000E-01  8.662691E-01  2.581191E-02  0.000000E+00  8.793629E-03 -1.279759E-03 -4.062535E-19 -2.014658E-01  0.000000E+00
  8.454380E-01  2.737611E-02  5.000000E-01  8.539762E-01  2.758195E-02  0.000000E+00  8.884119E-03 -1.269634E-03  5.639183E-19 -2.107243E-01  0.000000E+00
  8.326580E-01  2.918914E-02  5.000000E-01  8.410671E-01  2.941330E-02  0.000000E+00  8.952023E-03 -1.265235E-03  3.524832E-19 -2.199029E-01  0.000000E+00
  8.192630E-01  3.107550E-02  5.000000E-01  8.275368E-01  3.131871E-02  0.000000E+00  9.015843E-03 -1.270800E-03 -2.846798E-19 -2.303827E-01  0.000000E+00
  8.052550E-01  3.305123E-02  5.000000E-01  8.133873E-01  3.331439E-02  0.000000E+00  9.101035E-03 -1.289355E-03 -1.001822E-19 -2.441217E-01  0.000000E+00
  7.906370E-01  3.513052E-02  5.000000E-01  7.986217E-01  3.541468E-02  0.000000E+00  9.237349E-03 -1.318579E-03 -2.126721E-18 -2.620471E-01  0.000000E+00
  7.754120E-01  3.731126E-02  5.000000E-01  7.832430E-01  3.761745E-02  0.000000E+00  9.448000E-03 -1.351632E-03 -3.146717E-18 -2.835405E-01  0.000000E+00
  7.595880E-01  3.957238E-02  5.000000E-01  7.672592E-01  3.990139E-02  0.000000E+00  9.739167E-03 -1.383343E-03 -1.655606E-18 -3.079924E-01  0.000000E+00
  7.431760E-01  4.188958E-02  5.000000E-01  7.506814E-01  4.224201E-02  0.000000E+00  1.010170E-02 -1.410271E-03 -7.284756E-19 -3.349511E-01  0.000000E+00
  7.261880E-01  4.423500E-02  5.000000E-01  7.335218E-01  4.461111E-02  0.000000E+00  1.051698E-02 -1.427579E-03  2.226066E-19 -3.631915E-01  0.000000E+00
  7.086430E-01  4.657756E-02  5.000000E-01  7.157997E-01  4.697733E-02  0.000000E+00  1.095976E-02 -1.430425E-03  3.919424E-20 -3.908251E-01  0.000000E+00
  6.905640E-01  4.888590E-02  5.000000E-01  6.975381E-01  4.930897E-02  0.000000E+00  1.140196E-02 -1.417445E-03 -3.683803E-19 -4.163771E-01  0.000000E+00
  6.719770E-01  5.113676E-02  5.000000E-01  6.787634E-01  5.158257E-02  0.000000E+00  1.181995E-02 -1.394107E-03  5.173251E-19 -4.404196E-01  0.000000E+00
  6.529150E-01  5.332642E-02  5.000000E-01  6.595089E-01  5.379435E-02  0.000000E+00  1.220665E-02 -1.366784E-03 -2.423428E-19 -4.646108E-01  0.000000E+00
  6.334180E-01  5.545442E-02  5.000000E-01  6.398150E-01  5.594383E-02  0.000000E+00  1.257410E-02 -1.334582E-03 -2.049370E-18 -4.895896E-01  0.000000E+00
  6.135280E-01  5.750716E-02  5.000000E-01  6.197241E-01  5.801730E-02  0.000000E+00  1.293920E-02 -1.294425E-03 -1.210881E-18 -5.155956E-01  0.000000E+00
  5.932910E-01  5.946874E-02  5.000000E-01  5.992827E-01  5.999870E-02  0.000000E+00  1.331400E-02 -1.244782E-03 -7.108454E-20 -5.425329E-01  0.000000E+00
  5.727570E-01  6.131978E-02  5.000000E-01  5.785413E-01  6.186843E-02  0.000000E+00  1.370352E-02 -1.183065E-03 -8.334326E-19 -5.689547E-01  0.000000E+00
  5.519810E-01  6.303748E-02  5.000000E-01  5.575555E-01  6.360347E-02  0.000000E+00  1.410301E-02 -1.107393E-03 -9.560393E-19 -5.931417E-01  0.000000E+00
  5.310180E-01  6.459978E-02  5.000000E-01  5.363808E-01  6.518155E-02  0.000000E+00  1.449933E-02 -1.023313E-03 -4.715537E-19 -6.160768E-01  0.000000E+00
  5.099250E-01  6.600623E-02  5.000000E-01  5.150748E-01  6.660220E-02  0.000000E+00  1.488712E-02 -9.404066E-04 -6.070222E-19 -6.412870E-01  0.000000E+00
  4.887640E-01  6.726911E-02  5.000000E-01  4.937001E-01  6.787784E-02  0.000000E+00  1.528575E-02 -8.537403E-04 -4.162125E-19 -6.696259E-01  0.000000E+00
  4.675910E-01  6.837308E-02  5.000000E-01  4.723132E-01  6.899296E-02  0.000000E+00  1.572063E-02 -7.468562E-04 -6.273398E-20 -6.982645E-01  0.000000E+00
  7.860720E-05 -4.940961E-04  5.000000E-01  7.940614E-05 -5.697118E-04  0.000000E+00 -8.371138E-03  2.956650E-02 -1.534012E-17  8.486696E-01  0.000000E+00
  3.989240E-04 -1.154931E-03  5.000000E-01  4.029579E-04 -1.237221E-03  0.000000E+00 -7.304886E-03  1.274264E-02 -3.031491E-17  1.086240E+00  0.000000E+00
  1.196920E-03 -1.957897E-03  5.000000E-01  1.209013E-03 -2.048295E-03  0.000000E+00 -8.532306E-04  1.476315E-03 -1.481672E-17  1.071035E+00  0.000000E+00
  2.563580E-03 -2.800777E-03  5.000000E-01  2.589475E-03 -2.899688E-03  0.000000E+00  5.591175E-03 -2.726138E-03  2.117044E-18  9.242372E-01  0.000000E+00
  4.492740E-03 -3.636300E-03  5.000000E-01  4.538118E-03 -3.743649E-03  0.000000E+00  9.514658E-03 -3.594413E-03  1.115535E-17  7.943042E-01  0.000000E+00
  6.952190E-03 -4.458160E-03  5.000000E-01  7.022406E-03 -4.573809E-03  0.000000E+00  1.154637E-02 -3.529967E-03  8.210891E-18  7.031624E-01  0.000000E+00
  9.910730E-03 -5.287374E-03  5.000000E-01  1.001082E-02 -5.411397E-03  0.000000E+00  1.266347E-02 -3.353595E-03  1.575640E-19  6.323229E-01  0.000000E+00
  1.334950E-02 -6.149149E-03  5.000000E-01  1.348432E-02 -6.281875E-03  0.000000E+00  1.337786E-02 -3.145517E-03 -4.863002E-18  5.629972E-01  0.000000E+00
  1.728780E-02 -7.018753E-03  5.000000E-01  1.746240E-02 -7.160262E-03  0.000000E+00  1.382298E-02 -2.796287E-03 -5.211545E-18  4.877373E-01  0.000000E+00
  2.175590E-02 -7.841892E-03  5.000000E-01  2.197562E-02 -7.991714E-03  0.000000E+00  1.401859E-02 -2.321900E-03 -3.229249E-18  4.181531E-01  0.000000E+00
  2.676920E-02 -8.577967E-03  5.000000E-01  2.703955E-02 -8.735222E-03  0.000000E+00  1.402772E-02 -1.836196E-03 -1.233341E-18  3.670705E-01  0.000000E+00
  3.232800E-02 -9.215434E-03  5.000000E-01  3.265449E-02 -9.379127E-03  0.000000E+00  1.393502E-02 -1.423600E-03 -3.151699E-19  3.353604E-01  0.000000E+00
  3.842930E-02 -9.761785E-03  5.000000E-01  3.881741E-02 -9.930996E-03  0.000000E+00  1.379752E-02 -1.107898E-03  1.078957E-19  3.159198E-01  0.000000E+00
  4.507220E-02 -1.023336E-02  5.000000E-01  4.552739E-02 -1.040733E-02  0.000000E+00  1.365854E-02 -8.946142E-04  9.577783E-20  3.033691E-01  0.000000E+00
  5.225680E-02 -1.066362E-02  5.000000E-01  5.278455E-02 -1.084194E-02  0.000000E+00  1.356130E-02 -7.784587E-04 -4.044984E-20  2.946829E-01  0.000000E+00
  5.998640E-02 -1.108842E-02  5.000000E-01  6.059221E-02 -1.127103E-02  0.000000E+00  1.351470E-02 -7.173180E-04  2.231315E-20  2.842765E-01  0.000000E+00
  6.827110E-02 -1.151364E-02  5.000000E-01  6.896058E-02 -1.170054E-02  0.000000E+00  1.349195E-02 -6.662741E-04 -9.665652E-20  2.692028E-01  0.000000E+00
  7.712280E-02 -1.193347E-02  5.000000E-01  7.790168E-02 -1.212462E-02  0.000000E+00  1.346955E-02 -6.139639E-04 -3.119535E-19  2.525058E-01  0.000000E+00
  8.655260E-02 -1.234520E-02  5.000000E-01  8.742671E-02 -1.254050E-02  0.000000E+00  1.343466E-02 -5.597219E-04 -3.189736E-19  2.367923E-01  0.000000E+00
  9.657140E-02 -1.274265E-02  5.000000E-01  9.754669E-02 -1.294196E-02  0.000000E+00  1.337273E-02 -4.942986E-04 -2.124307E-19  2.215738E-01  0.000000E+00
  1.071900E-01 -1.310668E-02  5.000000E-01  1.082725E-01 -1.330967E-02  0.000000E+00  1.327771E-02 -4.158738E-04 -1.040569E-19  2.070786E-01  0.000000E+00
  1.184180E-01 -1.342437E-02  5.000000E-01  1.196139E-01 -1.363057E-02  0.000000E+00  1.316868E-02 -3.409469E-04  1.873072E-20  1.954899E-01  0.000000E+00
  1.302610E-01 -1.370173E-02  5.000000E-01  1.315765E-01 -1.391073E-02  0.000000E+00  1.307585E-02 -2.848105E-04 -7.234040E-20  1.870011E-01  0.000000E+00
  1.427230E-01 -1.395253E-02  5.000000E-01  1.441644E-01 -1.416406E-02  0.000000E+00  1.301766E-02 -2.507068E-04 -1.916820E-19  1.795831E-01  0.000000E+00
  1.427230E-01 -1.395253E-02  5.000000E-01  1.441644E-01 -1.416406E-02  0.000000E+00  1.301766E-02 -2.507068E-04 -1.916820E-19  1.795831E-01  0.000000E+00
  1.558070E-01 -1.419342E-02  5.000000E-01  1.573805E-01 -1.440739E-02  0.000000E+00  1.298844E-02 -2.290190E-04 -5.185421E-20  1.708763E-01  0.000000E+00
  1.695140E-01 -1.442506E-02  5.000000E-01  1.712259E-01 -1.464137E-02  0.000000E+00  1.296076E-02 -2.018769E-04  8.831664E-20  1.596147E-01  0.000000E+00
  1.838420E-01 -1.462951E-02  5.000000E-01  1.856986E-01 -1.484788E-02  0.000000E+00  1.290323E-02 -1.550592E-04 -1.238674E-19  1.468443E-01  0.000000E+00
  1.987870E-01 -1.477541E-02  5.000000E-01  2.007946E-01 -1.499526E-02  0.000000E+00  1.279729E-02 -8.291182E-05 -1.801412E-19  1.345465E-01  0.000000E+00
  2.143420E-01 -1.482459E-02  5.000000E-01  2.165067E-01 -1.504493E-02  0.000000E+00  1.265108E-02  2.454291E-06  2.113339E-19  1.251768E-01  0.000000E+00
  2.304940E-01 -1.476537E-02  5.000000E-01  2.328218E-01 -1.498511E-02  0.000000E+00  1.250072E-02  7.200113E-05  4.832131E-19  1.210786E-01  0.000000E+00
  2.472290E-01 -1.463236E-02  5.000000E-01  2.497258E-01 -1.485076E-02  0.000000E+00  1.238085E-02  1.100740E-04  3.008232E-19  1.207741E-01  0.000000E+00
  2.645310E-01 -1.446285E-02  5.000000E-01  2.672025E-01 -1.467954E-02  0.000000E+00  1.229510E-02  1.316167E-04  1.272659E-19  1.192536E-01  0.000000E+00
  2.823750E-01 -1.425727E-02  5.000000E-01  2.852267E-01 -1.447189E-02  0.000000E+00  1.222267E-02  1.610869E-04  1.220750E-19  1.137625E-01  0.000000E+00
  3.007320E-01 -1.398526E-02  5.000000E-01  3.037691E-01 -1.419713E-02  0.000000E+00  1.214368E-02  2.074805E-04  3.305151E-20  1.063953E-01  0.000000E+00
  3.195690E-01 -1.361965E-02  5.000000E-01  3.227964E-01 -1.382782E-02  0.000000E+00  1.204919E-02  2.640967E-04 -3.597278E-20  1.006336E-01  0.000000E+00
  3.388440E-01 -1.314759E-02  5.000000E-01  3.422660E-01 -1.335100E-02  0.000000E+00  1.193291E-02  3.220009E-04  2.731938E-20  9.779840E-02  0.000000E+00
  3.585140E-01 -1.256723E-02  5.000000E-01  3.621347E-01 -1.276478E-02  0.000000E+00  1.178128E-02  3.784132E-04  1.527380E-19  9.701430E-02  0.000000E+00
  3.785290E-01 -1.187189E-02  5.000000E-01  3.823518E-01 -1.206242E-02  0.000000E+00  1.157475E-02  4.344271E-04 -8.702117E-20  9.736886E-02  0.000000E+00
  3.988350E-01 -1.105194E-02  5.000000E-01  4.028629E-01 -1.123418E-02  0.000000E+00  1.130064E-02  4.899217E-04 -2.827565E-19  9.951684E-02  0.000000E+00
  4.193750E-01 -1.009870E-02  5.000000E-01  4.236103E-01 -1.027132E-02  0.000000E+00  1.096345E-02  5.476599E-04  2.920792E-19  1.041054E-01  0.000000E+00
  4.400850E-01 -8.988928E-03  5.000000E-01  4.445295E-01 -9.150334E-03  0.000000E+00  1.059582E-02  6.055066E-04  1.673736E-19  1.117003E-01  0.000000E+00
  4.609060E-01 -7.721665E-03  5.000000E-01  4.655607E-01 -7.870272E-03  0.000000E+00  1.026487E-02  6.408217E-04 -4.382827E-19  1.242107E-01  0.000000E+00
  4.818030E-01 -6.380344E-03  5.000000E-01  4.866688E-01 -6.515406E-03  0.000000E+00  1.004558E-02  6.243338E-04 -5.541825E-19  1.419410E-01  0.000000E+00
  5.027520E-01 -5.120215E-03  5.000000E-01  5.078293E-01 -5.242550E-03  0.000000E+00  9.962195E-03  5.614271E-04 -6.367652E-19  1.584716E-01  0.000000E+00
  5.237130E-01 -4.022871E-03  5.000000E-01  5.290020E-01 -4.134125E-03  0.000000E+00  9.958307E-03  5.022452E-04 -6.353583E-19  1.642697E-01  0.000000E+00
  5.446170E-01 -3.014079E-03  5.000000E-01  5.501171E-01 -3.115144E-03  0.000000E+00  9.940934E-03  4.918491E-04  1.680944E-20  1.585004E-01  0.000000E+00
  5.653940E-01 -1.959604E-03  5.000000E-01  5.711040E-01 -2.050020E-03  0.000000E+00  9.850013E-03  5.254946E-04  1.413800E-18  1.517685E-01  0.000000E+00
  4.675910E-01  6.837308E-02  5.000000E-01  4.723132E-01  6.899296E-02  0.000000E+00  1.572063E-02 -7.468562E-04 -6.273398E-20 -6.982645E-01  0.000000E+00
  4.464640E-01  6.928234E-02  5.000000E-01  4.509729E-01  6.991141E-02  0.000000E+00  1.619189E-02 -6.155972E-04 -5.558643E-19 -7.254468E-01  0.000000E+00
  4.254410E-01  6.997921E-02  5.000000E-01  4.297376E-01  7.061531E-02  0.000000E+00  1.668057E-02 -4.663918E-04 -5.695664E-19 -7.514339E-01  0.000000E+00
  4.045840E-01  7.045701E-02  5.000000E-01  4.086699E-01  7.109794E-02  0.000000E+00  1.716927E-02 -3.028917E-04 -3.373785E-19 -7.767308E-01  0.000000E+00
  3.839530E-01  7.071496E-02  5.000000E-01  3.878306E-01  7.135849E-02  0.000000E+00  1.765000E-02 -1.236461E-04  2.727923E-20 -8.012002E-01  0.000000E+00
  3.636060E-01  7.074852E-02  5.000000E-01  3.672781E-01  7.139239E-02  0.000000E+00  1.812140E-02  7.463572E-05  2.161818E-19 -8.238402E-01  0.000000E+00
  3.435960E-01  7.055396E-02  5.000000E-01  3.470660E-01  7.119587E-02  0.000000E+00  1.858092E-02  2.928944E-04  4.032638E-20 -8.436216E-01  0.000000E+00
  3.239710E-01  7.012920E-02  5.000000E-01  3.272428E-01  7.076681E-02  0.000000E+00  1.902092E-02  5.261491E-04  2.392850E-19 -8.609005E-01  0.000000E+00
  3.047740E-01  6.948470E-02  5.000000E-01  3.078519E-01  7.011580E-02  0.000000E+00  1.943645E-02  7.666514E-04  1.148499E-19 -8.772384E-01  0.000000E+00
  2.860450E-01  6.863794E-02  5.000000E-01  2.889338E-01  6.926050E-02  0.000000E+00  1.983741E-02  1.017974E-03 -2.967623E-19 -8.926636E-01  0.000000E+00
  2.678190E-01  6.759385E-02  5.000000E-01  2.705237E-01  6.820586E-02  0.000000E+00  2.023577E-02  1.287678E-03 -2.882631E-19 -9.063599E-01  0.000000E+00
  2.501300E-01  6.635814E-02  5.000000E-01  2.526561E-01  6.695768E-02  0.000000E+00  2.063223E-02  1.575234E-03 -2.569964E-19 -9.186884E-01  0.000000E+00
  2.330040E-01  6.494122E-02  5.000000E-01  2.353571E-01  6.552644E-02  0.000000E+00  2.102350E-02  1.878419E-03 -3.437813E-19 -9.303418E-01  0.000000E+00
  2.164660E-01  6.335557E-02  5.000000E-01  2.186521E-01  6.392477E-02  0.000000E+00  2.141003E-02  2.197482E-03 -3.546476E-19 -9.410017E-01  0.000000E+00
  2.005340E-01  6.161473E-02  5.000000E-01  2.025592E-01  6.216635E-02  0.000000E+00  2.179929E-02  2.540742E-03 -6.582507E-19 -9.479655E-01  0.000000E+00
  1.852230E-01  5.972187E-02  5.000000E-01  1.870936E-01  6.025438E-02  0.000000E+00  2.218974E-02  2.911183E-03 -7.361802E-19 -9.493477E-01  0.000000E+00
  1.705440E-01  5.768764E-02  5.000000E-01  1.722663E-01  5.819961E-02  0.000000E+00  2.256563E-02  3.293094E-03 -4.902680E-19 -9.489248E-01  0.000000E+00
  1.565000E-01  5.553554E-02  5.000000E-01  1.580805E-01  5.602578E-02  0.000000E+00  2.292905E-02  3.674496E-03  4.700844E-20 -9.543470E-01  0.000000E+00
  1.430940E-01  5.329218E-02  5.000000E-01  1.445391E-01  5.375976E-02  0.000000E+00  2.332676E-02  4.080944E-03  2.499654E-19 -9.688357E-01  0.000000E+00
  1.303270E-01  5.096226E-02  5.000000E-01  1.316432E-01  5.140631E-02  0.000000E+00  2.382206E-02  4.582701E-03 -6.715426E-19 -9.833976E-01  0.000000E+00
  1.182110E-01  4.851563E-02  5.000000E-01  1.194048E-01  4.893497E-02  0.000000E+00  2.440089E-02  5.219173E-03 -2.957635E-19 -9.831717E-01  0.000000E+00
  1.067560E-01  4.593469E-02  5.000000E-01  1.078341E-01  4.632796E-02  0.000000E+00  2.493445E-02  5.949117E-03  4.855662E-19 -9.588721E-01  0.000000E+00
  9.596750E-02  4.322166E-02  5.000000E-01  9.693669E-02  4.358753E-02  0.000000E+00  2.524105E-02  6.635867E-03 -3.811394E-19 -9.182438E-01  0.000000E+00
  8.582800E-02  4.043862E-02  5.000000E-01  8.669479E-02  4.077639E-02  0.000000E+00  2.524717E-02  7.155110E-03  4.663427E-20 -8.797386E-01  0.000000E+00
  8.582800E-02  4.043862E-02  5.000000E-01  8.669479E-02  4.077639E-02  0.000000E+00  2.524717E-02  7.155110E-03  4.663427E-20 -8.797386E-01  0.000000E+00
  7.631050E-02  3.765440E-02  5.000000E-01  7.708117E-02  3.796405E-02  0.000000E+00  2.508163E-02  7.576406E-03  1.289675E-18 -8.473539E-01  0.000000E+00
  6.740780E-02  3.488025E-02  5.000000E-01  6.808856E-02  3.516188E-02  0.000000E+00  2.490628E-02  8.032789E-03 -1.932144E-20 -8.139722E-01  0.000000E+00
  5.911740E-02  3.211593E-02  5.000000E-01  5.971444E-02  3.236965E-02  0.000000E+00  2.477232E-02  8.548834E-03 -8.105814E-19 -7.764923E-01  0.000000E+00
  5.143150E-02  2.937383E-02  5.000000E-01  5.195092E-02  2.959985E-02  0.000000E+00  2.465513E-02  9.092161E-03 -6.621404E-19 -7.354518E-01  0.000000E+00
  4.433770E-02  2.667247E-02  5.000000E-01  4.478548E-02  2.687121E-02  0.000000E+00  2.451264E-02  9.637203E-03 -1.626576E-18 -6.933939E-01  0.000000E+00
  3.782240E-02  2.402992E-02  5.000000E-01  3.820438E-02  2.420197E-02  0.000000E+00  2.432056E-02  1.018494E-02 -1.946983E-18 -6.541402E-01  0.000000E+00
  3.187460E-02  2.145903E-02  5.000000E-01  3.219651E-02  2.160512E-02  0.000000E+00  2.408815E-02  1.076090E-02 -9.416476E-19 -6.204832E-01  0.000000E+00
  2.648400E-02  1.897105E-02  5.000000E-01  2.675147E-02  1.909201E-02  0.000000E+00  2.384702E-02  1.143454E-02 -9.122042E-20 -5.855568E-01  0.000000E+00
  2.164990E-02  1.656680E-02  5.000000E-01  2.186855E-02  1.666348E-02  0.000000E+00  2.356331E-02  1.226150E-02 -1.017216E-18 -5.310693E-01  0.000000E+00
  1.737670E-02  1.424583E-02  5.000000E-01  1.755219E-02  1.431908E-02  0.000000E+00  2.307025E-02  1.308545E-02 -3.039535E-18 -4.508001E-01  0.000000E+00
  1.364080E-02  1.203477E-02  5.000000E-01  1.377856E-02  1.208568E-02  0.000000E+00  2.222687E-02  1.360046E-02 -2.857004E-18 -3.653424E-01  0.000000E+00
  1.039090E-02  9.976293E-03  5.000000E-01  1.049584E-02  1.000642E-02  0.000000E+00  2.112478E-02  1.375567E-02 -3.447480E-18 -3.005733E-01  0.000000E+00
  7.586340E-03  8.096371E-03  5.000000E-01  7.662960E-03  8.107511E-03  0.000000E+00  2.004901E-02  1.394815E-02 -1.090985E-17 -2.606329E-01  0.000000E+00
  5.226210E-03  6.391681E-03  5.000000E-01  5.278995E-03  6.385605E-03  0.000000E+00  1.929290E-02  1.475395E-02 -1.892000E-17 -2.335773E-01  0.000000E+00
  3.324300E-03  4.853704E-03  5.000000E-01  3.357877E-03  4.832096E-03  0.000000E+00  1.904064E-02  1.672645E-02 -1.661161E-17 -2.078421E-01  0.000000E+00
  1.883580E-03  3.487242E-03  5.000000E-01  1.902608E-03  3.451834E-03  0.000000E+00  1.913920E-02  2.051325E-02 -1.307899E-18 -1.596849E-01  0.000000E+00
  8.951490E-04  2.308586E-03  5.000000E-01  9.041943E-04  2.261275E-03  0.000000E+00  1.853275E-02  2.643592E-02  8.119686E-18 -4.653952E-02  0.000000E+00
  3.201820E-04  1.347381E-03  5.000000E-01  3.234206E-04  1.290363E-03  0.000000E+00  1.533775E-02  3.301130E-02 -1.515141E-17  1.561062E-01  0.000000E+00
  6.852390E-05  6.394539E-04  5.000000E-01  6.922101E-05  5.752860E-04  0.000000E+00  9.281569E-03  3.655420E-02 -6.112028E-17  3.770142E-01  0.000000E+00
  4.217600E-06  2.119344E-04  5.000000E-01  4.265277E-06  1.434490E-04  0.000000E+00  3.365827E-03  3.655017E-02 -7.213584E-17  4.545382E-01  0.000000E+00
 -5.032520E-09  6.991966E-05  5.000000E-01  0.000000E+00  0.000000E+00  0.000000E+00 -5.107993E-04  4.006213E-02 -2.179326E-17  4.185609E-01  0.000000E+00
  5.154440E-06 -7.260372E-05  5.000000E-01  5.211579E-06 -1.439627E-04  0.000000E+00 -4.435092E-03  4.126068E-02  1.089674E-17  5.338727E-01  0.000000E+00