 Title = "ADflow Slice Data"
Variables =  "CoordinateX"  "CoordinateY"  "CoordinateZ"  "XoC"  "YoC"  "ZoC" "VelocityX" "VelocityY" "VelocityZ" "CoefPressure" "Mach" 
Zone T= "Slice_0001 None Absolute Regular z = 0.50000000"
 Nodes =          192  Elements=          184  ZONETYPE=FELINESEG
 DATAPACKING=POINT
  5.653940E-01 -2.542381E-03  5.000000E-01  5.711040E-01 -2.665394E-03  0.000000E+00  9.772666E-03  5.983272E-04  8.413244E-20  1.455174E-01  0.000000E+00
  5.859770E-01 -1.212212E-03  5.000000E-01  5.918949E-01 -1.321791E-03  0.000000E+00  9.520144E-03  6.483531E-04  5.652026E-20  1.500085E-01  0.000000E+00
  6.063060E-01  2.460703E-04  5.000000E-01  6.124292E-01  1.512183E-04  0.000000E+00  9.205231E-03  6.869426E-04 -4.997224E-20  1.622604E-01  0.000000E+00
  6.263240E-01  1.799799E-03  5.000000E-01  6.326493E-01  1.720638E-03  0.000000E+00  8.865701E-03  6.995572E-04 -4.786669E-19  1.794139E-01  0.000000E+00
  6.459860E-01  3.377799E-03  5.000000E-01  6.525099E-01  3.314574E-03  0.000000E+00  8.533179E-03  6.824114E-04 -3.195139E-19  1.987902E-01  0.000000E+00
  6.652460E-01  4.911802E-03  5.000000E-01  6.719644E-01  4.864070E-03  0.000000E+00  8.214579E-03  6.474118E-04 -2.033663E-19  2.171978E-01  0.000000E+00
  6.840650E-01  6.376432E-03  5.000000E-01  6.909735E-01  6.343492E-03  0.000000E+00  7.891411E-03  6.127829E-04  1.114328E-19  2.323645E-01  0.000000E+00
  7.024070E-01  7.796381E-03  5.000000E-01  7.095007E-01  7.777781E-03  0.000000E+00  7.543353E-03  5.832500E-04  4.534436E-19  2.460496E-01  0.000000E+00
  7.202400E-01  9.175103E-03  5.000000E-01  7.275138E-01  9.170427E-03  0.000000E+00  7.168302E-03  5.498070E-04  2.993223E-19  2.617784E-01  0.000000E+00
  7.375350E-01  1.049159E-02  5.000000E-01  7.449835E-01  1.050021E-02  0.000000E+00  6.780592E-03  5.062139E-04  1.445237E-19  2.801009E-01  0.000000E+00
  7.542690E-01  1.171515E-02  5.000000E-01  7.618865E-01  1.173612E-02  0.000000E+00  6.405416E-03  4.526365E-04 -9.577056E-20  2.994904E-01  0.000000E+00
  7.704220E-01  1.281344E-02  5.000000E-01  7.782026E-01  1.284551E-02  0.000000E+00  6.074321E-03  3.915743E-04 -5.369503E-19  3.179947E-01  0.000000E+00
  7.859770E-01  1.375822E-02  5.000000E-01  7.939147E-01  1.379983E-02  0.000000E+00  5.826105E-03  3.172515E-04 -7.829711E-19  3.355431E-01  0.000000E+00
  8.009220E-01  1.447767E-02  5.000000E-01  8.090106E-01  1.452655E-02  0.000000E+00  5.700739E-03  2.198949E-04 -4.550166E-19  3.524653E-01  0.000000E+00
  8.152480E-01  1.489140E-02  5.000000E-01  8.234813E-01  1.494445E-02  0.000000E+00  5.713118E-03  1.055811E-04  3.942216E-20  3.646432E-01  0.000000E+00
  8.289490E-01  1.500089E-02  5.000000E-01  8.373207E-01  1.505505E-02  0.000000E+00  5.844062E-03 -1.115725E-05  2.413436E-19  3.685718E-01  0.000000E+00
  8.420260E-01  1.484984E-02  5.000000E-01  8.505297E-01  1.490248E-02  0.000000E+00  6.060139E-03 -1.233913E-04  2.145108E-19  3.660965E-01  0.000000E+00
  8.544790E-01  1.449174E-02  5.000000E-01  8.631085E-01  1.454075E-02  0.000000E+00  6.328700E-03 -2.290319E-04 -1.488285E-19  3.601471E-01  0.000000E+00
  8.663160E-01  1.397964E-02  5.000000E-01  8.750650E-01  1.402348E-02  0.000000E+00  6.620616E-03 -3.265707E-04 -5.809362E-19  3.522418E-01  0.000000E+00
  8.775420E-01  1.336084E-02  5.000000E-01  8.864044E-01  1.339844E-02  0.000000E+00  6.910739E-03 -4.139093E-04 -1.486926E-19  3.431152E-01  0.000000E+00
  8.881660E-01  1.267579E-02  5.000000E-01  8.971357E-01  1.270647E-02  0.000000E+00  7.179960E-03 -4.889580E-04  5.544845E-19  3.333796E-01  0.000000E+00
  8.981970E-01  1.195758E-02  5.000000E-01  9.072680E-01  1.198101E-02  0.000000E+00  7.418192E-03 -5.527515E-04  3.030694E-19  3.238073E-01  0.000000E+00
  9.076460E-01  1.122707E-02  5.000000E-01  9.168124E-01  1.124312E-02  0.000000E+00  7.626687E-03 -6.112317E-04 -4.324919E-19  3.152934E-01  0.000000E+00
  9.165220E-01  1.049145E-02  5.000000E-01  9.257781E-01  1.050006E-02  0.000000E+00  7.814559E-03 -6.700589E-04 -4.729383E-20  3.078723E-01  0.000000E+00
  9.165220E-01  1.049145E-02  5.000000E-01  9.257781E-01  1.050006E-02  0.000000E+00  7.814559E-03 -6.700589E-04 -4.729383E-20  3.078723E-01  0.000000E+00
  9.248360E-01  9.755142E-03  5.000000E-01  9.341760E-01  9.756323E-03  0.000000E+00  7.991816E-03 -7.311249E-04  4.954468E-19  3.007713E-01  0.000000E+00
  9.325990E-01  9.022637E-03  5.000000E-01  9.420174E-01  9.016421E-03  0.000000E+00  8.166833E-03 -7.952222E-04  6.820985E-19  2.935563E-01  0.000000E+00
  9.398210E-01  8.298103E-03  5.000000E-01  9.493124E-01  8.284570E-03  0.000000E+00  8.346943E-03 -8.632875E-04  6.582711E-19  2.861356E-01  0.000000E+00
  9.465130E-01  7.585665E-03  5.000000E-01  9.560720E-01  7.564936E-03  0.000000E+00  8.538470E-03 -9.361495E-04 -1.744045E-20  2.783991E-01  0.000000E+00
  9.526870E-01  6.889566E-03  5.000000E-01  9.623083E-01  6.861807E-03  0.000000E+00  8.746376E-03 -1.014461E-03 -3.500153E-19  2.702009E-01  0.000000E+00
  9.583540E-01  6.214345E-03  5.000000E-01  9.680326E-01  6.179768E-03  0.000000E+00  8.974313E-03 -1.098675E-03 -3.694132E-19  2.614125E-01  0.000000E+00
  9.635240E-01  5.564896E-03  5.000000E-01  9.732548E-01  5.523760E-03  0.000000E+00  9.225142E-03 -1.188901E-03 -5.013109E-20  2.519133E-01  0.000000E+00
  9.682080E-01  4.946390E-03  5.000000E-01  9.779861E-01  4.899007E-03  0.000000E+00  9.502606E-03 -1.285413E-03  5.896433E-19  2.416511E-01  0.000000E+00
  9.724140E-01  4.364291E-03  5.000000E-01  9.822345E-01  4.311030E-03  0.000000E+00  9.813755E-03 -1.388773E-03 -2.475322E-20  2.306217E-01  0.000000E+00
  9.761510E-01  3.824179E-03  5.000000E-01  9.860093E-01  3.765463E-03  0.000000E+00  1.016918E-02 -1.499482E-03 -1.131592E-18  2.187940E-01  0.000000E+00
  9.794290E-01  3.331554E-03  5.000000E-01  9.893204E-01  3.267863E-03  0.000000E+00  1.057600E-02 -1.618086E-03 -1.606547E-18  2.061795E-01  0.000000E+00
  9.822540E-01  2.891864E-03  5.000000E-01  9.921739E-01  2.823732E-03  0.000000E+00  1.101953E-02 -1.742649E-03 -6.567675E-19  1.930318E-01  0.000000E+00
  9.846330E-01  2.510168E-03  5.000000E-01  9.945769E-01  2.438181E-03  0.000000E+00  1.144409E-02 -1.861660E-03  2.243762E-18  1.806027E-01  0.000000E+00
  9.865710E-01  2.191068E-03  5.000000E-01  9.965345E-01  2.115859E-03  0.000000E+00  1.171407E-02 -1.940178E-03  4.727956E-18  1.677477E-01  0.000000E+00
  9.880740E-01  1.938508E-03  5.000000E-01  9.980527E-01  1.860748E-03  0.000000E+00  1.160947E-02 -1.969121E-03 -8.090344E-19  1.482653E-01  0.000000E+00
  9.891450E-01  1.755714E-03  5.000000E-01  9.991345E-01  1.676108E-03  0.000000E+00  1.180592E-02 -2.107137E-03 -2.770823E-17  1.491598E-01  0.000000E+00
  9.897860E-01  1.645077E-03  5.000000E-01  9.997820E-01  1.564354E-03  0.000000E+00  1.518082E-02 -2.145272E-03 -7.821415E-17  1.964173E-01  0.000000E+00
  9.900000E-01  1.608031E-03  5.000000E-01  9.999981E-01  1.526934E-03  0.000000E+00  1.058913E-02 -4.527838E-03 -8.286850E-17 -4.775095E-02  0.000000E+00
  9.900000E-01  1.686741E-03  5.000000E-01  9.999981E-01  1.606439E-03  0.000000E+00  1.060600E-03 -1.490196E-02 -4.658905E-18 -1.857691E-01  0.000000E+00
  9.900000E-01  1.765462E-03  5.000000E-01  9.999981E-01  1.685954E-03  0.000000E+00 -5.275090E-04 -1.400855E-02  7.291459E-17 -9.917088E-03  0.000000E+00
  9.900000E-01  1.844182E-03  5.000000E-01  9.999981E-01  1.765469E-03  0.000000E+00 -2.973212E-04  2.348209E-03  1.001961E-16 -1.469440E-02  0.000000E+00
  9.900000E-01  1.922892E-03  5.000000E-01  9.999981E-01  1.844975E-03  0.000000E+00  7.069658E-04  3.784663E-03  1.434569E-16 -1.319103E-01  0.000000E+00
  9.900000E-01  2.001613E-03  5.000000E-01  9.999981E-01  1.924490E-03  0.000000E+00  5.845204E-03 -2.649078E-03  1.866491E-16 -3.882776E-02  0.000000E+00
  9.900000E-01  2.001613E-03  5.000000E-01  9.999981E-01  1.924490E-03  0.000000E+00  5.845204E-03 -2.649078E-03  1.866491E-16 -3.882776E-02  0.000000E+00
  9.897900E-01  2.048217E-03  5.000000E-01  9.997860E-01  1.971565E-03  0.000000E+00  7.604972E-03 -2.015315E-03  1.318507E-16  1.017869E-01  0.000000E+00
  9.891580E-01  2.187996E-03  5.000000E-01  9.991476E-01  2.112756E-03  0.000000E+00  4.699411E-03 -9.784579E-04  4.153743E-17  5.988280E-02  0.000000E+00
  9.881040E-01  2.420764E-03  5.000000E-01  9.980830E-01  2.347874E-03  0.000000E+00  3.930766E-03 -8.654377E-04  2.253616E-19  5.026701E-02  0.000000E+00
  9.866260E-01  2.746224E-03  5.000000E-01  9.965901E-01  2.676622E-03  0.000000E+00  3.737326E-03 -8.270099E-04 -6.890316E-18  5.193528E-02  0.000000E+00
  9.847200E-01  3.163954E-03  5.000000E-01  9.946648E-01  3.098571E-03  0.000000E+00  3.658851E-03 -7.990797E-04 -3.405990E-18  4.653055E-02  0.000000E+00
  9.823820E-01  3.673344E-03  5.000000E-01  9.923032E-01  3.613105E-03  0.000000E+00  3.717412E-03 -8.064873E-04 -7.411511E-19  3.832760E-02  0.000000E+00
  9.796080E-01  4.273552E-03  5.000000E-01  9.895012E-01  4.219375E-03  0.000000E+00  3.889067E-03 -8.377689E-04 -5.182980E-19  2.928417E-02  0.000000E+00
  9.763910E-01  4.963537E-03  5.000000E-01  9.862517E-01  4.916327E-03  0.000000E+00  4.131140E-03 -8.817148E-04 -6.878959E-19  1.888842E-02  0.000000E+00
  9.727270E-01  5.741835E-03  5.000000E-01  9.825507E-01  5.702486E-03  0.000000E+00  4.415578E-03 -9.322677E-04 -3.192488E-19  7.042225E-03  0.000000E+00
  9.686070E-01  6.606789E-03  5.000000E-01  9.783891E-01  6.576174E-03  0.000000E+00  4.725920E-03 -9.853845E-04  4.301973E-19 -6.017675E-03  0.000000E+00
  9.640240E-01  7.556246E-03  5.000000E-01  9.737598E-01  7.535221E-03  0.000000E+00  5.053301E-03 -1.038628E-03  4.610785E-19 -2.013678E-02  0.000000E+00
  9.589680E-01  8.587696E-03  5.000000E-01  9.686528E-01  8.577087E-03  0.000000E+00  5.393957E-03 -1.090774E-03 -2.701665E-19 -3.517745E-02  0.000000E+00
  9.534310E-01  9.698101E-03  5.000000E-01  9.630598E-01  9.698706E-03  0.000000E+00  5.746176E-03 -1.141043E-03 -5.210746E-19 -5.099893E-02  0.000000E+00
  9.474030E-01  1.088397E-02  5.000000E-01  9.569710E-01  1.089655E-02  0.000000E+00  6.107981E-03 -1.188383E-03 -8.808145E-19 -6.736945E-02  0.000000E+00
  9.408720E-01  1.214134E-02  5.000000E-01  9.503740E-01  1.216662E-02  0.000000E+00  6.475938E-03 -1.231765E-03 -7.746059E-19 -8.410814E-02  0.000000E+00
  9.338280E-01  1.346570E-02  5.000000E-01  9.432589E-01  1.350436E-02  0.000000E+00  6.845617E-03 -1.270138E-03 -5.256438E-20 -1.010430E-01  0.000000E+00
  9.262600E-01  1.485214E-02  5.000000E-01  9.356144E-01  1.490480E-02  0.000000E+00  7.211717E-03 -1.302133E-03  5.406310E-19 -1.179203E-01  0.000000E+00
  9.181550E-01  1.629515E-02  5.000000E-01  9.274276E-01  1.636238E-02  0.000000E+00  7.567789E-03 -1.326477E-03  5.548360E-19 -1.345318E-01  0.000000E+00
  9.095020E-01  1.778893E-02  5.000000E-01  9.186872E-01  1.787125E-02  0.000000E+00  7.906480E-03 -1.341903E-03 -2.148897E-19 -1.505472E-01  0.000000E+00
  9.002880E-01  1.932707E-02  5.000000E-01  9.093801E-01  1.942492E-02  0.000000E+00  8.218920E-03 -1.347290E-03 -1.053052E-18 -1.654141E-01  0.000000E+00
  8.905020E-01  2.090296E-02  5.000000E-01  8.994953E-01  2.101672E-02  0.000000E+00  8.494668E-03 -1.343052E-03 -1.720068E-18 -1.787696E-01  0.000000E+00
  8.801320E-01  2.251306E-02  5.000000E-01  8.890206E-01  2.264308E-02  0.000000E+00  8.724554E-03 -1.331479E-03 -1.710696E-18 -1.906482E-01  0.000000E+00
  8.691700E-01  2.415754E-02  5.000000E-01  8.779479E-01  2.430417E-02  0.000000E+00  8.903953E-03 -1.315076E-03 -7.988523E-19 -2.012271E-01  0.000000E+00
  8.691700E-01  2.415754E-02  5.000000E-01  8.779479E-01  2.430417E-02  0.000000E+00  8.903953E-03 -1.315076E-03 -7.988523E-19 -2.012271E-01  0.000000E+00
  8.576080E-01  2.583881E-02  5.000000E-01  8.662691E-01  2.600242E-02  0.000000E+00  9.033520E-03 -1.296111E-03  6.449695E-19 -2.106013E-01  0.000000E+00
  8.454380E-01  2.756173E-02  5.000000E-01  8.539762E-01  2.774274E-02  0.000000E+00  9.118472E-03 -1.277760E-03  1.274871E-18 -2.189198E-01  0.000000E+00
  8.326580E-01  2.933455E-02  5.000000E-01  8.410671E-01  2.953347E-02  0.000000E+00  9.169044E-03 -1.263985E-03  2.385217E-19 -2.266121E-01  0.000000E+00
  8.192630E-01  3.116986E-02  5.000000E-01  8.275369E-01  3.138732E-02  0.000000E+00  9.201723E-03 -1.259605E-03 -1.093583E-18 -2.348715E-01  0.000000E+00
  8.052550E-01  3.308539E-02  5.000000E-01  8.133874E-01  3.332218E-02  0.000000E+00  9.241020E-03 -1.268856E-03 -6.137156E-19 -2.456644E-01  0.000000E+00
  7.906370E-01  3.510008E-02  5.000000E-01  7.986218E-01  3.535723E-02  0.000000E+00  9.318461E-03 -1.291473E-03 -3.125495E-19 -2.604654E-01  0.000000E+00
  7.754120E-01  3.722145E-02  5.000000E-01  7.832430E-01  3.750002E-02  0.000000E+00  9.463905E-03 -1.322339E-03 -8.877854E-19 -2.794188E-01  0.000000E+00
  7.595880E-01  3.943843E-02  5.000000E-01  7.672592E-01  3.973939E-02  0.000000E+00  9.694420E-03 -1.355807E-03 -5.276733E-19 -3.021193E-01  0.000000E+00
  7.431760E-01  4.172947E-02  5.000000E-01  7.506814E-01  4.205356E-02  0.000000E+00  1.001085E-02 -1.387514E-03 -4.330441E-19 -3.281413E-01  0.000000E+00
  7.261880E-01  4.406728E-02  5.000000E-01  7.335219E-01  4.441498E-02  0.000000E+00  1.040085E-02 -1.412488E-03  9.706076E-21 -3.565470E-01  0.000000E+00
  7.086430E-01  4.641933E-02  5.000000E-01  7.157997E-01  4.679079E-02  0.000000E+00  1.084200E-02 -1.424764E-03 -5.867989E-19 -3.855667E-01  0.000000E+00
  6.905640E-01  4.874977E-02  5.000000E-01  6.975381E-01  4.914477E-02  0.000000E+00  1.130479E-02 -1.420279E-03 -1.239263E-18 -4.133023E-01  0.000000E+00
  6.719770E-01  5.102714E-02  5.000000E-01  6.787634E-01  5.144514E-02  0.000000E+00  1.175856E-02 -1.400913E-03 -6.964232E-19 -4.392276E-01  0.000000E+00
  6.529150E-01  5.323597E-02  5.000000E-01  6.595089E-01  5.367627E-02  0.000000E+00  1.218300E-02 -1.371904E-03  1.274065E-19 -4.641015E-01  0.000000E+00
  6.334180E-01  5.536974E-02  5.000000E-01  6.398150E-01  5.583159E-02  0.000000E+00  1.257497E-02 -1.335474E-03  1.287453E-18 -4.886805E-01  0.000000E+00
  6.135280E-01  5.741926E-02  5.000000E-01  6.197241E-01  5.790181E-02  0.000000E+00  1.294290E-02 -1.291501E-03  5.243448E-19 -5.135977E-01  0.000000E+00
  5.932910E-01  5.937389E-02  5.000000E-01  5.992827E-01  5.987618E-02  0.000000E+00  1.329897E-02 -1.239370E-03 -3.762904E-19 -5.390086E-01  0.000000E+00
  5.727570E-01  6.121943E-02  5.000000E-01  5.785414E-01  6.174036E-02  0.000000E+00  1.365342E-02 -1.177344E-03 -2.604066E-19 -5.638596E-01  0.000000E+00
  5.519810E-01  6.293802E-02  5.000000E-01  5.575555E-01  6.347630E-02  0.000000E+00  1.400918E-02 -1.104258E-03 -1.230007E-19 -5.867824E-01  0.000000E+00
  5.310180E-01  6.451164E-02  5.000000E-01  5.363808E-01  6.506581E-02  0.000000E+00  1.436108E-02 -1.025421E-03  1.238481E-20 -6.088241E-01  0.000000E+00
  5.099250E-01  6.594124E-02  5.000000E-01  5.150748E-01  6.650985E-02  0.000000E+00  1.470963E-02 -9.498827E-04 -6.245469E-20 -6.334409E-01  0.000000E+00
  4.887640E-01  6.724020E-02  5.000000E-01  4.937001E-01  6.782193E-02  0.000000E+00  1.507750E-02 -8.728891E-04 -3.574596E-19 -6.615828E-01  0.000000E+00
  4.675910E-01  6.839433E-02  5.000000E-01  4.723133E-01  6.898772E-02  0.000000E+00  1.549268E-02 -7.784621E-04 -4.010947E-19 -6.907936E-01  0.000000E+00
  7.860720E-05 -3.320039E-04  5.000000E-01  7.940615E-05 -4.326940E-04  0.000000E+00 -1.639486E-02  4.448229E-02  4.544597E-15  7.757088E-01  0.000000E+00
  3.989240E-04 -8.260783E-04  5.000000E-01  4.029579E-04 -9.317581E-04  0.000000E+00 -1.400186E-02  1.816296E-02  3.703935E-15  1.100292E+00  0.000000E+00
  1.196920E-03 -1.416017E-03  5.000000E-01  1.209013E-03 -1.527655E-03  0.000000E+00 -3.701685E-03  3.007187E-03  2.343802E-15  1.071694E+00  0.000000E+00
  2.563580E-03 -2.027938E-03  5.000000E-01  2.589475E-03 -2.145755E-03  0.000000E+00  4.817221E-03 -1.667846E-03  1.012384E-15  9.164147E-01  0.000000E+00
  4.492740E-03 -2.633967E-03  5.000000E-01  4.538118E-03 -2.757905E-03  0.000000E+00  9.267588E-03 -2.552402E-03  1.438239E-16  8.020983E-01  0.000000E+00
  6.952190E-03 -3.237625E-03  5.000000E-01  7.022406E-03 -3.367660E-03  0.000000E+00  1.125284E-02 -2.558810E-03 -1.926173E-16  7.270651E-01  0.000000E+00
  9.910730E-03 -3.862861E-03  5.000000E-01  1.001082E-02 -3.999209E-03  0.000000E+00  1.215210E-02 -2.470669E-03 -1.992107E-16  6.667316E-01  0.000000E+00
  1.334950E-02 -4.536440E-03  5.000000E-01  1.348432E-02 -4.679591E-03  0.000000E+00  1.262294E-02 -2.365868E-03 -1.027343E-16  6.066675E-01  0.000000E+00
  1.728780E-02 -5.243639E-03  5.000000E-01  1.746240E-02 -5.393933E-03  0.000000E+00  1.289176E-02 -2.164945E-03 -2.567646E-17  5.418578E-01  0.000000E+00
  2.175590E-02 -5.942850E-03  5.000000E-01  2.197562E-02 -6.100204E-03  0.000000E+00  1.302470E-02 -1.874254E-03  6.746355E-18  4.807146E-01  0.000000E+00
  2.676920E-02 -6.600324E-03  5.000000E-01  2.703955E-02 -6.764319E-03  0.000000E+00  1.307408E-02 -1.568292E-03  1.129340E-17  4.326305E-01  0.000000E+00
  3.232800E-02 -7.204044E-03  5.000000E-01  3.265449E-02 -7.374135E-03  0.000000E+00  1.308582E-02 -1.303467E-03  6.490489E-18  3.985829E-01  0.000000E+00
  3.842930E-02 -7.756968E-03  5.000000E-01  3.881741E-02 -7.932643E-03  0.000000E+00  1.308174E-02 -1.097308E-03  2.007999E-18  3.737504E-01  0.000000E+00
  4.507220E-02 -8.269523E-03  5.000000E-01  4.552740E-02 -8.450375E-03  0.000000E+00  1.308058E-02 -9.589016E-04 -1.898132E-19  3.546016E-01  0.000000E+00
  5.225680E-02 -8.768003E-03  5.000000E-01  5.278455E-02 -8.953890E-03  0.000000E+00  1.311070E-02 -8.905827E-04 -7.316812E-19  3.391336E-01  0.000000E+00
  5.998640E-02 -9.282142E-03  5.000000E-01  6.059222E-02 -9.473220E-03  0.000000E+00  1.317814E-02 -8.611374E-04 -6.104965E-19  3.225816E-01  0.000000E+00
  6.827110E-02 -9.814873E-03  5.000000E-01  6.896058E-02 -1.001133E-02  0.000000E+00  1.325999E-02 -8.328959E-04 -2.766245E-19  3.021129E-01  0.000000E+00
  7.712280E-02 -1.035773E-02  5.000000E-01  7.790168E-02 -1.055967E-02  0.000000E+00  1.333478E-02 -7.957116E-04 -8.302236E-20  2.802450E-01  0.000000E+00
  8.655260E-02 -1.090432E-02  5.000000E-01  8.742671E-02 -1.111178E-02  0.000000E+00  1.338887E-02 -7.486237E-04 -4.342033E-19  2.593407E-01  0.000000E+00
  9.657140E-02 -1.144417E-02  5.000000E-01  9.754669E-02 -1.165709E-02  0.000000E+00  1.340519E-02 -6.823241E-04 -6.517651E-19  2.390628E-01  0.000000E+00
  1.071900E-01 -1.195339E-02  5.000000E-01  1.082725E-01 -1.217145E-02  0.000000E+00  1.337278E-02 -5.947990E-04 -5.561838E-19  2.198185E-01  0.000000E+00
  1.184180E-01 -1.241316E-02  5.000000E-01  1.196139E-01 -1.263586E-02  0.000000E+00  1.330326E-02 -5.029419E-04 -2.227671E-19  2.039639E-01  0.000000E+00
  1.302610E-01 -1.282291E-02  5.000000E-01  1.315765E-01 -1.304974E-02  0.000000E+00  1.321957E-02 -4.236906E-04 -6.360211E-20  1.920045E-01  0.000000E+00
  1.427230E-01 -1.319024E-02  5.000000E-01  1.441644E-01 -1.342079E-02  0.000000E+00  1.313628E-02 -3.626095E-04 -2.564149E-19  1.822774E-01  0.000000E+00
  1.427230E-01 -1.319024E-02  5.000000E-01  1.441644E-01 -1.342079E-02  0.000000E+00  1.313628E-02 -3.626095E-04 -2.564149E-19  1.822774E-01  0.000000E+00
  1.558070E-01 -1.352698E-02  5.000000E-01  1.573805E-01 -1.376093E-02  0.000000E+00  1.305053E-02 -3.127780E-04 -9.571493E-20  1.727128E-01  0.000000E+00
  1.695140E-01 -1.383164E-02  5.000000E-01  1.712259E-01 -1.406866E-02  0.000000E+00  1.294671E-02 -2.602429E-04 -8.879829E-20  1.621683E-01  0.000000E+00
  1.838420E-01 -1.408917E-02  5.000000E-01  1.856987E-01 -1.432880E-02  0.000000E+00  1.281447E-02 -1.973882E-04 -2.018180E-19  1.515666E-01  0.000000E+00
  1.987870E-01 -1.428044E-02  5.000000E-01  2.007946E-01 -1.452200E-02  0.000000E+00  1.266235E-02 -1.276711E-04 -2.055745E-19  1.426289E-01  0.000000E+00
  2.143420E-01 -1.439403E-02  5.000000E-01  2.165067E-01 -1.463674E-02  0.000000E+00  1.252101E-02 -6.637262E-05  1.634747E-19  1.367516E-01  0.000000E+00
  2.304940E-01 -1.444621E-02  5.000000E-01  2.328218E-01 -1.468944E-02  0.000000E+00  1.242977E-02 -3.097775E-05  3.840433E-19  1.337195E-01  0.000000E+00
  2.472290E-01 -1.447509E-02  5.000000E-01  2.497258E-01 -1.471862E-02  0.000000E+00  1.241077E-02 -2.437787E-05  3.465353E-21  1.308716E-01  0.000000E+00
  2.645310E-01 -1.451392E-02  5.000000E-01  2.672025E-01 -1.475783E-02  0.000000E+00  1.245022E-02 -2.673899E-05  1.115408E-19  1.243314E-01  0.000000E+00
  2.823750E-01 -1.455210E-02  5.000000E-01  2.852267E-01 -1.479640E-02  0.000000E+00  1.250496E-02 -8.701116E-06  3.105987E-19  1.123671E-01  0.000000E+00
  3.007320E-01 -1.453905E-02  5.000000E-01  3.037691E-01 -1.478322E-02  0.000000E+00  1.252952E-02  4.469500E-05  1.373786E-19  9.772323E-02  0.000000E+00
  3.195690E-01 -1.441767E-02  5.000000E-01  3.227964E-01 -1.466061E-02  0.000000E+00  1.249277E-02  1.303156E-04 -1.148883E-19  8.464674E-02  0.000000E+00
  3.388440E-01 -1.413857E-02  5.000000E-01  3.422660E-01 -1.437870E-02  0.000000E+00  1.238125E-02  2.324696E-04 -1.625139E-19  7.619139E-02  0.000000E+00
  3.585140E-01 -1.368286E-02  5.000000E-01  3.621347E-01 -1.391838E-02  0.000000E+00  1.219332E-02  3.330206E-04 -1.588754E-19  7.334205E-02  0.000000E+00
  3.785290E-01 -1.305184E-02  5.000000E-01  3.823518E-01 -1.328099E-02  0.000000E+00  1.192813E-02  4.237852E-04 -5.166894E-20  7.473887E-02  0.000000E+00
  3.988350E-01 -1.224741E-02  5.000000E-01  4.028629E-01 -1.246843E-02  0.000000E+00  1.158925E-02  5.033979E-04 -3.658215E-19  7.924204E-02  0.000000E+00
  4.193750E-01 -1.127443E-02  5.000000E-01  4.236103E-01 -1.148563E-02  0.000000E+00  1.119400E-02  5.752554E-04 -9.502864E-19  8.647026E-02  0.000000E+00
  4.400850E-01 -1.012431E-02  5.000000E-01  4.445295E-01 -1.032390E-02  0.000000E+00  1.078230E-02  6.393693E-04 -4.366016E-19  9.658753E-02  0.000000E+00
  4.609060E-01 -8.807802E-03  5.000000E-01  4.655608E-01 -8.994090E-03  0.000000E+00  1.042017E-02  6.777625E-04  3.362612E-19  1.109732E-01  0.000000E+00
  4.818030E-01 -7.406751E-03  5.000000E-01  4.866688E-01 -7.578890E-03  0.000000E+00  1.017514E-02  6.650016E-04  4.295807E-19  1.298027E-01  0.000000E+00
  5.027520E-01 -6.072117E-03  5.000000E-01  5.078294E-01 -6.230777E-03  0.000000E+00  1.006207E-02  6.076927E-04  2.571688E-19  1.472045E-01  0.000000E+00
  5.237130E-01 -4.880139E-03  5.000000E-01  5.290021E-01 -5.026762E-03  0.000000E+00  1.001547E-02  5.569184E-04 -1.164351E-19  1.540415E-01  0.000000E+00
  5.446170E-01 -3.749862E-03  5.000000E-01  5.501172E-01 -3.885070E-03  0.000000E+00  9.937453E-03  5.570138E-04 -4.393186E-20  1.497341E-01  0.000000E+00
  5.653940E-01 -2.542381E-03  5.000000E-01  5.711040E-01 -2.665394E-03  0.000000E+00  9.772666E-03  5.983272E-04  8.413244E-20  1.455174E-01  0.000000E+00
  4.675910E-01  6.839433E-02  5.000000E-01  4.723133E-01  6.898772E-02  0.000000E+00  1.549268E-02 -7.784621E-04 -4.010947E-19 -6.907936E-01  0.000000E+00
  4.464640E-01  6.936889E-02  5.000000E-01  4.509729E-01  6.997212E-02  0.000000E+00  1.595911E-02 -6.623893E-04 -1.101132E-19 -7.199213E-01  0.000000E+00
  4.254410E-01  7.014698E-02  5.000000E-01  4.297376E-01  7.075807E-02  0.000000E+00  1.646383E-02 -5.284256E-04 -7.597462E-20 -7.494569E-01  0.000000E+00
  4.045840E-01  7.071669E-02  5.000000E-01  4.086700E-01  7.133353E-02  0.000000E+00  1.699399E-02 -3.756762E-04 -8.977432E-20 -7.795545E-01  0.000000E+00
  3.839530E-01  7.106817E-02  5.000000E-01  3.878306E-01  7.168856E-02  0.000000E+00  1.753944E-02 -1.995923E-04 -1.472360E-19 -8.094973E-01  0.000000E+00
  3.636060E-01  7.118795E-02  5.000000E-01  3.672781E-01  7.180955E-02  0.000000E+00  1.808975E-02  4.627384E-06 -2.748672E-19 -8.373475E-01  0.000000E+00
  3.435960E-01  7.106410E-02  5.000000E-01  3.470660E-01  7.168445E-02  0.000000E+00  1.862825E-02  2.384234E-04 -3.131807E-19 -8.607807E-01  0.000000E+00
  3.239710E-01  7.068748E-02  5.000000E-01  3.272428E-01  7.130402E-02  0.000000E+00  1.912917E-02  4.934350E-04  6.632064E-20 -8.794017E-01  0.000000E+00
  3.047740E-01  7.006818E-02  5.000000E-01  3.078520E-01  7.067847E-02  0.000000E+00  1.957139E-02  7.532064E-04  9.291407E-19 -8.952900E-01  0.000000E+00
  2.860450E-01  6.923288E-02  5.000000E-01  2.889338E-01  6.983473E-02  0.000000E+00  1.996271E-02  1.014928E-03  8.054949E-19 -9.093163E-01  0.000000E+00
  2.678190E-01  6.819503E-02  5.000000E-01  2.705237E-01  6.878640E-02  0.000000E+00  2.032873E-02  1.285786E-03 -5.011332E-19 -9.214082E-01  0.000000E+00
  2.501300E-01  6.696685E-02  5.000000E-01  2.526561E-01  6.754582E-02  0.000000E+00  2.069137E-02  1.567201E-03 -8.180064E-19 -9.334173E-01  0.000000E+00
  2.330040E-01  6.556305E-02  5.000000E-01  2.353571E-01  6.612785E-02  0.000000E+00  2.107162E-02  1.860501E-03 -1.839131E-19 -9.484502E-01  0.000000E+00
  2.164660E-01  6.399851E-02  5.000000E-01  2.186521E-01  6.454751E-02  0.000000E+00  2.149706E-02  2.173579E-03 -3.895180E-19 -9.680896E-01  0.000000E+00
  2.005340E-01  6.228562E-02  5.000000E-01  2.025592E-01  6.281732E-02  0.000000E+00  2.200436E-02  2.539000E-03 -1.071220E-18 -9.873445E-01  0.000000E+00
  1.852230E-01  6.040313E-02  5.000000E-01  1.870936E-01  6.091581E-02  0.000000E+00  2.259394E-02  2.983602E-03 -6.646787E-19 -9.991890E-01  0.000000E+00
  1.705440E-01  5.833589E-02  5.000000E-01  1.722664E-01  5.882769E-02  0.000000E+00  2.320238E-02  3.483834E-03  7.616659E-19 -1.004501E+00  0.000000E+00
  1.565000E-01  5.609873E-02  5.000000E-01  1.580805E-01  5.656794E-02  0.000000E+00  2.376575E-02  4.002219E-03  6.218543E-19 -1.010056E+00  0.000000E+00
  1.430940E-01  5.371951E-02  5.000000E-01  1.445391E-01  5.416470E-02  0.000000E+00  2.428152E-02  4.543641E-03 -2.235325E-18 -1.018608E+00  0.000000E+00
  1.303270E-01  5.120903E-02  5.000000E-01  1.316432E-01  5.162886E-02  0.000000E+00  2.479002E-02  5.165683E-03 -1.187053E-18 -1.021353E+00  0.000000E+00
  1.182110E-01  4.854621E-02  5.000000E-01  1.194048E-01  4.893915E-02  0.000000E+00  2.527555E-02  5.896591E-03  3.495919E-19 -1.004700E+00  0.000000E+00
  1.067560E-01  4.572452E-02  5.000000E-01  1.078341E-01  4.608897E-02  0.000000E+00  2.562488E-02  6.682192E-03 -6.047375E-19 -9.614622E-01  0.000000E+00
  9.596750E-02  4.275828E-02  5.000000E-01  9.693669E-02  4.309276E-02  0.000000E+00  2.568702E-02  7.377160E-03 -4.762170E-19 -9.009912E-01  0.000000E+00
  8.582800E-02  3.971936E-02  5.000000E-01  8.669479E-02  4.002315E-02  0.000000E+00  2.542043E-02  7.859655E-03 -2.850370E-19 -8.420542E-01  0.000000E+00
  8.582800E-02  3.971936E-02  5.000000E-01  8.669479E-02  4.002315E-02  0.000000E+00  2.542043E-02  7.859655E-03 -2.850370E-19 -8.420542E-01  0.000000E+00
  7.631050E-02  3.668364E-02  5.000000E-01  7.708118E-02  3.695678E-02  0.000000E+00  2.496792E-02  8.205001E-03 -3.321643E-20 -7.888686E-01  0.000000E+00
  6.740780E-02  3.367097E-02  5.000000E-01  6.808857E-02  3.391368E-02  0.000000E+00  2.449124E-02  8.544863E-03 -4.026945E-19 -7.353286E-01  0.000000E+00
  5.911740E-02  3.069033E-02  5.000000E-01  5.971444E-02  3.090294E-02  0.000000E+00  2.404618E-02  8.901497E-03  1.475749E-18 -6.794314E-01  0.000000E+00
  5.143150E-02  2.776203E-02  5.000000E-01  5.195092E-02  2.794507E-02  0.000000E+00  2.362122E-02  9.244912E-03  1.961497E-18 -6.222792E-01  0.000000E+00
  4.433770E-02  2.491085E-02  5.000000E-01  4.478548E-02  2.506509E-02  0.000000E+00  2.319064E-02  9.554590E-03  1.376658E-18 -5.662930E-01  0.000000E+00
  3.782240E-02  2.215966E-02  5.000000E-01  3.820438E-02  2.228612E-02  0.000000E+00  2.274301E-02  9.834683E-03  1.266697E-18 -5.148559E-01  0.000000E+00
  3.187460E-02  1.952531E-02  5.000000E-01  3.219651E-02  1.962516E-02  0.000000E+00  2.229262E-02  1.010953E-02 -2.363113E-18 -4.709696E-01  0.000000E+00
  2.648400E-02  1.702173E-02  5.000000E-01  2.675147E-02  1.709630E-02  0.000000E+00  2.187039E-02  1.043677E-02 -9.921583E-18 -4.303701E-01  0.000000E+00
  2.164990E-02  1.465300E-02  5.000000E-01  2.186855E-02  1.470365E-02  0.000000E+00  2.145733E-02  1.086186E-02 -2.035512E-17 -3.795609E-01  0.000000E+00
  1.737670E-02  1.242116E-02  5.000000E-01  1.755219E-02  1.244927E-02  0.000000E+00  2.093173E-02  1.127267E-02 -3.651188E-17 -3.139760E-01  0.000000E+00
  1.364080E-02  1.034696E-02  5.000000E-01  1.377857E-02  1.035412E-02  0.000000E+00  2.017820E-02  1.145192E-02 -6.328514E-17 -2.494349E-01  0.000000E+00
  1.039090E-02  8.459415E-03  5.000000E-01  1.049584E-02  8.447511E-03  0.000000E+00  1.924021E-02  1.136849E-02 -9.425458E-17 -2.059887E-01  0.000000E+00
  7.586340E-03  6.771933E-03  5.000000E-01  7.662961E-03  6.742986E-03  0.000000E+00  1.831428E-02  1.130919E-02 -1.029104E-16 -1.885455E-01  0.000000E+00
  5.226210E-03  5.275679E-03  5.000000E-01  5.278995E-03  5.231622E-03  0.000000E+00  1.767197E-02  1.171140E-02 -4.227374E-17 -1.934073E-01  0.000000E+00
  3.324300E-03  3.958185E-03  5.000000E-01  3.357878E-03  3.900822E-03  0.000000E+00  1.769879E-02  1.314413E-02  1.424886E-16 -2.204497E-01  0.000000E+00
  1.883580E-03  2.816419E-03  5.000000E-01  1.902608E-03  2.747525E-03  0.000000E+00  1.878441E-02  1.665549E-02  4.849190E-16 -2.530859E-01  0.000000E+00
  8.951490E-04  1.855351E-03  5.000000E-01  9.041943E-04  1.776752E-03  0.000000E+00  2.034377E-02  2.365000E-02  9.800185E-16 -2.347574E-01  0.000000E+00
  3.201820E-04  1.089026E-03  5.000000E-01  3.234206E-04  1.002687E-03  0.000000E+00  1.945595E-02  3.377932E-02  1.616763E-15 -9.662677E-02  0.000000E+00
  6.852390E-05  5.351660E-04  5.000000E-01  6.922102E-05  4.432336E-04  0.000000E+00  1.345211E-02  4.222254E-02  2.376671E-15  1.158485E-01  0.000000E+00
  4.217600E-06  2.051943E-04  5.000000E-01  4.265277E-06  1.099295E-04  0.000000E+00  5.420671E-03  4.673230E-02  3.187371E-15  1.891708E-01  0.000000E+00
 -5.032520E-09  9.636390E-05  5.000000E-01  0.000000E+00  0.000000E+00  0.000000E+00 -1.145459E-03  5.791260E-02  3.974888E-15  1.286201E-01  0.000000E+00
  5.154440E-06 -1.245810E-05  5.000000E-01  5.211579E-06 -1.099210E-04  0.000000E+00 -9.010607E-03  6.346834E-02  4.565134E-15  3.036784E-01  0.000000E+00