 Title = "ADflow Slice Data"
Variables =  "CoordinateX"  "CoordinateY"  "CoordinateZ"  "XoC"  "YoC"  "ZoC" "VelocityX" "VelocityY" "VelocityZ" "CoefPressure" "Mach" 
Zone T= "Slice_0001 None Absolute Regular z = 0.50000000"
 Nodes =          192  Elements=          184  ZONETYPE=FELINESEG
 DATAPACKING=POINT
  5.653940E-01  6.053819E-04  5.000000E-01  5.711039E-01  5.633248E-04  0.000000E+00  8.677106E-03  4.751457E-04  1.760190E-19  2.179952E-01  0.000000E+00
  5.859770E-01  1.677083E-03  5.000000E-01  5.918948E-01  1.645849E-03  0.000000E+00  8.760060E-03  4.486618E-04  9.339753E-19  2.137707E-01  0.000000E+00
  6.063060E-01  2.701454E-03  5.000000E-01  6.124291E-01  2.680565E-03  0.000000E+00  8.810690E-03  4.450923E-04  8.137877E-19  2.112335E-01  0.000000E+00
  6.263240E-01  3.716163E-03  5.000000E-01  6.326493E-01  3.705522E-03  0.000000E+00  8.820835E-03  4.474267E-04  5.882403E-19  2.119899E-01  0.000000E+00
  6.459860E-01  4.715031E-03  5.000000E-01  6.525098E-01  4.714478E-03  0.000000E+00  8.789325E-03  4.446709E-04  1.011742E-18  2.158013E-01  0.000000E+00
  6.652460E-01  5.685084E-03  5.000000E-01  6.719643E-01  5.694327E-03  0.000000E+00  8.704723E-03  4.404910E-04  7.906451E-19  2.206276E-01  0.000000E+00
  6.840650E-01  6.640132E-03  5.000000E-01  6.909734E-01  6.659020E-03  0.000000E+00  8.542926E-03  4.463019E-04 -1.049414E-18  2.248877E-01  0.000000E+00
  7.024070E-01  7.625687E-03  5.000000E-01  7.095006E-01  7.654528E-03  0.000000E+00  8.286272E-03  4.615235E-04 -1.908701E-18  2.304805E-01  0.000000E+00
  7.202400E-01  8.656796E-03  5.000000E-01  7.275137E-01  8.696050E-03  0.000000E+00  7.940093E-03  4.719634E-04 -1.271353E-18  2.407413E-01  0.000000E+00
  7.375350E-01  9.715364E-03  5.000000E-01  7.449834E-01  9.765308E-03  0.000000E+00  7.529965E-03  4.666551E-04 -6.573670E-20  2.560638E-01  0.000000E+00
  7.542690E-01  1.076629E-02  5.000000E-01  7.618864E-01  1.082685E-02  0.000000E+00  7.094935E-03  4.430634E-04  7.673118E-19  2.746180E-01  0.000000E+00
  7.704220E-01  1.176784E-02  5.000000E-01  7.782025E-01  1.183851E-02  0.000000E+00  6.680968E-03  4.033426E-04 -1.910415E-19  2.939354E-01  0.000000E+00
  7.859770E-01  1.267966E-02  5.000000E-01  7.939146E-01  1.275954E-02  0.000000E+00  6.340105E-03  3.425479E-04 -1.254521E-18  3.133726E-01  0.000000E+00
  8.009220E-01  1.341787E-02  5.000000E-01  8.090105E-01  1.350521E-02  0.000000E+00  6.122877E-03  2.524902E-04 -9.208397E-19  3.328281E-01  0.000000E+00
  8.152480E-01  1.388849E-02  5.000000E-01  8.234812E-01  1.398058E-02  0.000000E+00  6.050097E-03  1.423434E-04 -5.032863E-19  3.477603E-01  0.000000E+00
  8.289490E-01  1.407983E-02  5.000000E-01  8.373206E-01  1.417386E-02  0.000000E+00  6.104098E-03  2.950844E-05 -7.491695E-19  3.542934E-01  0.000000E+00
  8.420260E-01  1.402511E-02  5.000000E-01  8.505297E-01  1.411858E-02  0.000000E+00  6.250907E-03 -7.811358E-05 -4.318499E-19  3.542112E-01  0.000000E+00
  8.544790E-01  1.376973E-02  5.000000E-01  8.631084E-01  1.386062E-02  0.000000E+00  6.456786E-03 -1.785587E-04 -2.811335E-19  3.505245E-01  0.000000E+00
  8.663160E-01  1.336109E-02  5.000000E-01  8.750650E-01  1.344785E-02  0.000000E+00  6.691604E-03 -2.707695E-04  5.150486E-22  3.448003E-01  0.000000E+00
  8.775420E-01  1.284255E-02  5.000000E-01  8.864043E-01  1.292408E-02  0.000000E+00  6.929607E-03 -3.531497E-04  3.466624E-19  3.377842E-01  0.000000E+00
  8.881660E-01  1.225202E-02  5.000000E-01  8.971356E-01  1.232758E-02  0.000000E+00  7.151611E-03 -4.240987E-04  3.927475E-19  3.300633E-01  0.000000E+00
  8.981970E-01  1.162091E-02  5.000000E-01  9.072679E-01  1.169009E-02  0.000000E+00  7.348160E-03 -4.852742E-04 -9.496942E-20  3.224044E-01  0.000000E+00
  9.076460E-01  1.096843E-02  5.000000E-01  9.168124E-01  1.103103E-02  0.000000E+00  7.521860E-03 -5.433032E-04 -7.568105E-19  3.157125E-01  0.000000E+00
  9.165220E-01  1.029998E-02  5.000000E-01  9.257780E-01  1.035583E-02  0.000000E+00  7.683149E-03 -6.040146E-04 -1.857208E-19  3.099375E-01  0.000000E+00
  9.165220E-01  1.029998E-02  5.000000E-01  9.257780E-01  1.035583E-02  0.000000E+00  7.683149E-03 -6.040146E-04 -1.857208E-19  3.099375E-01  0.000000E+00
  9.248360E-01  9.619282E-03  5.000000E-01  9.341760E-01  9.668257E-03  0.000000E+00  7.842475E-03 -6.688629E-04  6.733135E-19  3.041767E-01  0.000000E+00
  9.325990E-01  8.931096E-03  5.000000E-01  9.420174E-01  8.973120E-03  0.000000E+00  8.007734E-03 -7.380850E-04  5.145291E-19  2.979583E-01  0.000000E+00
  9.398210E-01  8.240518E-03  5.000000E-01  9.493123E-01  8.275568E-03  0.000000E+00  8.185249E-03 -8.121319E-04 -3.651093E-19  2.912233E-01  0.000000E+00
  9.465130E-01  7.553002E-03  5.000000E-01  9.560719E-01  7.581109E-03  0.000000E+00  8.380075E-03 -8.914256E-04 -2.182876E-19  2.839047E-01  0.000000E+00
  9.526870E-01  6.874310E-03  5.000000E-01  9.623082E-01  6.895563E-03  0.000000E+00  8.595773E-03 -9.762866E-04  1.561078E-19  2.758974E-01  0.000000E+00
  9.583540E-01  6.210504E-03  5.000000E-01  9.680325E-01  6.225053E-03  0.000000E+00  8.834613E-03 -1.066895E-03 -1.656812E-19  2.671178E-01  0.000000E+00
  9.635240E-01  5.567900E-03  5.000000E-01  9.732547E-01  5.575960E-03  0.000000E+00  9.098220E-03 -1.163148E-03 -3.651094E-19  2.574896E-01  0.000000E+00
  9.682080E-01  4.952935E-03  5.000000E-01  9.779860E-01  4.954784E-03  0.000000E+00  9.389338E-03 -1.265171E-03 -2.207972E-19  2.470039E-01  0.000000E+00
  9.724140E-01  4.372121E-03  5.000000E-01  9.822344E-01  4.368105E-03  0.000000E+00  9.714267E-03 -1.373435E-03 -2.629861E-20  2.356939E-01  0.000000E+00
  9.761510E-01  3.831879E-03  5.000000E-01  9.860092E-01  3.822406E-03  0.000000E+00  1.008299E-02 -1.488392E-03 -6.174855E-19  2.235575E-01  0.000000E+00
  9.794290E-01  3.338347E-03  5.000000E-01  9.893203E-01  3.323890E-03  0.000000E+00  1.050202E-02 -1.610565E-03 -1.129605E-18  2.106328E-01  0.000000E+00
  9.822540E-01  2.897416E-03  5.000000E-01  9.921738E-01  2.878506E-03  0.000000E+00  1.095591E-02 -1.737962E-03 -9.285329E-19  1.971949E-01  0.000000E+00
  9.846330E-01  2.514442E-03  5.000000E-01  9.945768E-01  2.491665E-03  0.000000E+00  1.138805E-02 -1.858955E-03  2.491817E-19  1.845069E-01  0.000000E+00
  9.865710E-01  2.194203E-03  5.000000E-01  9.965344E-01  2.168192E-03  0.000000E+00  1.166193E-02 -1.938502E-03  1.948739E-18  1.714339E-01  0.000000E+00
  9.880740E-01  1.940732E-03  5.000000E-01  9.980526E-01  1.912160E-03  0.000000E+00  1.155712E-02 -1.967341E-03 -2.582232E-18  1.518197E-01  0.000000E+00
  9.891450E-01  1.757286E-03  5.000000E-01  9.991344E-01  1.726862E-03  0.000000E+00  1.174418E-02 -2.103104E-03 -2.600343E-17  1.526177E-01  0.000000E+00
  9.897860E-01  1.646263E-03  5.000000E-01  9.997819E-01  1.614718E-03  0.000000E+00  1.507773E-02 -2.139315E-03 -7.310725E-17  1.994718E-01  0.000000E+00
  9.900000E-01  1.609089E-03  5.000000E-01  9.999981E-01  1.577168E-03  0.000000E+00  1.051079E-02 -4.538463E-03 -7.701102E-17 -4.303978E-02  0.000000E+00
  9.900000E-01  1.687799E-03  5.000000E-01  9.999981E-01  1.656673E-03  0.000000E+00  1.052072E-03 -1.488720E-02  6.891799E-18 -1.797780E-01  0.000000E+00
  9.900000E-01  1.766519E-03  5.000000E-01  9.999981E-01  1.736188E-03  0.000000E+00 -5.246686E-04 -1.406242E-02  8.810405E-17 -5.089332E-03  0.000000E+00
  9.900000E-01  1.845239E-03  5.000000E-01  9.999981E-01  1.815703E-03  0.000000E+00 -2.907251E-04  2.078750E-03  1.042758E-16 -9.849956E-03  0.000000E+00
  9.900000E-01  1.923949E-03  5.000000E-01  9.999981E-01  1.895209E-03  0.000000E+00  6.938524E-04  3.579266E-03  1.306720E-16 -1.247131E-01  0.000000E+00
  9.900000E-01  2.002670E-03  5.000000E-01  9.999981E-01  1.974724E-03  0.000000E+00  5.700173E-03 -2.637974E-03  1.666955E-16 -3.304783E-02  0.000000E+00
  9.900000E-01  2.002670E-03  5.000000E-01  9.999981E-01  1.974724E-03  0.000000E+00  5.700173E-03 -2.637974E-03  1.666955E-16 -3.304783E-02  0.000000E+00
  9.897900E-01  2.049514E-03  5.000000E-01  9.997859E-01  2.022041E-03  0.000000E+00  7.386099E-03 -1.969626E-03  1.198116E-16  1.047108E-01  0.000000E+00
  9.891580E-01  2.190052E-03  5.000000E-01  9.991475E-01  2.163998E-03  0.000000E+00  4.517788E-03 -9.449695E-04  4.091883E-17  6.339105E-02  0.000000E+00
  9.881040E-01  2.424213E-03  5.000000E-01  9.980829E-01  2.400524E-03  0.000000E+00  3.746502E-03 -8.300189E-04  3.874085E-18  5.391832E-02  0.000000E+00
  9.866260E-01  2.751893E-03  5.000000E-01  9.965900E-01  2.731513E-03  0.000000E+00  3.540531E-03 -7.894338E-04 -5.167325E-18  5.574123E-02  0.000000E+00
  9.847200E-01  3.172941E-03  5.000000E-01  9.946647E-01  3.156814E-03  0.000000E+00  3.447766E-03 -7.595047E-04 -4.137290E-18  5.062712E-02  0.000000E+00
  9.823820E-01  3.687094E-03  5.000000E-01  9.923031E-01  3.676160E-03  0.000000E+00  3.490624E-03 -7.649929E-04 -1.568096E-18  4.270731E-02  0.000000E+00
  9.796080E-01  4.293934E-03  5.000000E-01  9.895011E-01  4.289127E-03  0.000000E+00  3.646115E-03 -7.949057E-04 -6.203014E-19  3.393554E-02  0.000000E+00
  9.763910E-01  4.992911E-03  5.000000E-01  9.862516E-01  4.995164E-03  0.000000E+00  3.872307E-03 -8.382105E-04 -4.129339E-19  2.379798E-02  0.000000E+00
  9.727270E-01  5.783124E-03  5.000000E-01  9.825506E-01  5.793357E-03  0.000000E+00  4.141735E-03 -8.889796E-04 -1.178958E-19  1.216141E-02  0.000000E+00
  9.686070E-01  6.663524E-03  5.000000E-01  9.783890E-01  6.682648E-03  0.000000E+00  4.438626E-03 -9.433410E-04 -3.326242E-19 -7.773889E-04  0.000000E+00
  9.640240E-01  7.632609E-03  5.000000E-01  9.737597E-01  7.661520E-03  0.000000E+00  4.754922E-03 -9.990212E-04 -4.813492E-19 -1.490214E-02  0.000000E+00
  9.589680E-01  8.688523E-03  5.000000E-01  9.686527E-01  8.728098E-03  0.000000E+00  5.087798E-03 -1.054962E-03 -4.282671E-19 -3.011701E-02  0.000000E+00
  9.534310E-01  9.828866E-03  5.000000E-01  9.630597E-01  9.879957E-03  0.000000E+00  5.436659E-03 -1.110534E-03 -2.611364E-19 -4.632682E-02  0.000000E+00
  9.474030E-01  1.105072E-02  5.000000E-01  9.569709E-01  1.111415E-02  0.000000E+00  5.800811E-03 -1.164805E-03 -2.109632E-19 -6.334593E-02  0.000000E+00
  9.408720E-01  1.235053E-02  5.000000E-01  9.503739E-01  1.242709E-02  0.000000E+00  6.178190E-03 -1.216772E-03 -8.170971E-19 -8.103657E-02  0.000000E+00
  9.338280E-01  1.372403E-02  5.000000E-01  9.432588E-01  1.381446E-02  0.000000E+00  6.565701E-03 -1.265299E-03 -1.061626E-18 -9.926270E-02  0.000000E+00
  9.262600E-01  1.516626E-02  5.000000E-01  9.356143E-01  1.527126E-02  0.000000E+00  6.959215E-03 -1.308753E-03  6.418702E-19 -1.178001E-01  0.000000E+00
  9.181550E-01  1.667120E-02  5.000000E-01  9.274275E-01  1.679139E-02  0.000000E+00  7.353142E-03 -1.345400E-03  1.630211E-18 -1.364554E-01  0.000000E+00
  9.095020E-01  1.823206E-02  5.000000E-01  9.186871E-01  1.836802E-02  0.000000E+00  7.740420E-03 -1.373267E-03  1.296927E-18 -1.548672E-01  0.000000E+00
  9.002880E-01  1.984075E-02  5.000000E-01  9.093800E-01  1.999296E-02  0.000000E+00  8.111541E-03 -1.390282E-03  1.107451E-18 -1.723865E-01  0.000000E+00
  8.905020E-01  2.148823E-02  5.000000E-01  8.994952E-01  2.165707E-02  0.000000E+00  8.454229E-03 -1.395865E-03  1.002673E-18 -1.885218E-01  0.000000E+00
  8.801320E-01  2.316807E-02  5.000000E-01  8.890205E-01  2.335388E-02  0.000000E+00  8.756344E-03 -1.391484E-03  2.064288E-18 -2.031840E-01  0.000000E+00
  8.691700E-01  2.487730E-02  5.000000E-01  8.779478E-01  2.508037E-02  0.000000E+00  9.009431E-03 -1.378984E-03  1.292530E-18 -2.164031E-01  0.000000E+00
  8.691700E-01  2.487730E-02  5.000000E-01  8.779478E-01  2.508037E-02  0.000000E+00  9.009431E-03 -1.378984E-03  1.292530E-18 -2.164031E-01  0.000000E+00
  8.576080E-01  2.661468E-02  5.000000E-01  8.662690E-01  2.683529E-02  0.000000E+00  9.209593E-03 -1.360060E-03 -5.981571E-19 -2.281151E-01  0.000000E+00
  8.454380E-01  2.838104E-02  5.000000E-01  8.539761E-01  2.861949E-02  0.000000E+00  9.356965E-03 -1.337580E-03 -1.940397E-19 -2.382903E-01  0.000000E+00
  8.326580E-01  3.018055E-02  5.000000E-01  8.410670E-01  3.043717E-02  0.000000E+00  9.456612E-03 -1.315650E-03  3.672509E-19 -2.470407E-01  0.000000E+00
  8.192630E-01  3.202220E-02  5.000000E-01  8.275368E-01  3.229742E-02  0.000000E+00  9.520211E-03 -1.299993E-03 -4.621623E-20 -2.551550E-01  0.000000E+00
  8.052550E-01  3.392208E-02  5.000000E-01  8.133873E-01  3.421649E-02  0.000000E+00  9.569004E-03 -1.296929E-03 -3.399763E-19 -2.644996E-01  0.000000E+00
  7.906370E-01  3.590154E-02  5.000000E-01  7.986217E-01  3.621594E-02  0.000000E+00  9.635340E-03 -1.309590E-03 -1.600516E-18 -2.773055E-01  0.000000E+00
  7.754120E-01  3.797772E-02  5.000000E-01  7.832429E-01  3.831309E-02  0.000000E+00  9.757178E-03 -1.335428E-03 -1.476061E-18 -2.949005E-01  0.000000E+00
  7.595880E-01  4.015098E-02  5.000000E-01  7.672591E-01  4.050829E-02  0.000000E+00  9.965967E-03 -1.367042E-03 -1.487264E-18 -3.170930E-01  0.000000E+00
  7.431760E-01  4.239937E-02  5.000000E-01  7.506814E-01  4.277939E-02  0.000000E+00  1.027446E-02 -1.397250E-03 -1.564856E-18 -3.431785E-01  0.000000E+00
  7.261880E-01  4.469260E-02  5.000000E-01  7.335218E-01  4.509579E-02  0.000000E+00  1.067481E-02 -1.420173E-03 -6.732892E-19 -3.722076E-01  0.000000E+00
  7.086430E-01  4.699366E-02  5.000000E-01  7.157996E-01  4.742008E-02  0.000000E+00  1.114318E-02 -1.428538E-03 -4.716076E-19 -4.021886E-01  0.000000E+00
  6.905640E-01  4.926067E-02  5.000000E-01  6.975380E-01  4.970998E-02  0.000000E+00  1.164298E-02 -1.416180E-03  1.271085E-19 -4.307134E-01  0.000000E+00
  6.719770E-01  5.145503E-02  5.000000E-01  6.787633E-01  5.192651E-02  0.000000E+00  1.213159E-02 -1.383030E-03  1.099642E-18 -4.564732E-01  0.000000E+00
  6.529150E-01  5.355386E-02  5.000000E-01  6.595088E-01  5.404653E-02  0.000000E+00  1.257345E-02 -1.334206E-03  1.896624E-18 -4.795043E-01  0.000000E+00
  6.334180E-01  5.554737E-02  5.000000E-01  6.398149E-01  5.606018E-02  0.000000E+00  1.295042E-02 -1.274637E-03  5.655630E-19 -5.002564E-01  0.000000E+00
  6.135280E-01  5.743085E-02  5.000000E-01  6.197240E-01  5.796267E-02  0.000000E+00  1.326141E-02 -1.208155E-03  7.711798E-19 -5.192802E-01  0.000000E+00
  5.932910E-01  5.920313E-02  5.000000E-01  5.992827E-01  5.975285E-02  0.000000E+00  1.351740E-02 -1.138365E-03  1.081458E-18 -5.369819E-01  0.000000E+00
  5.727570E-01  6.086466E-02  5.000000E-01  5.785413E-01  6.143116E-02  0.000000E+00  1.373636E-02 -1.068566E-03 -1.750058E-19 -5.534532E-01  0.000000E+00
  5.519810E-01  6.241755E-02  5.000000E-01  5.575555E-01  6.299973E-02  0.000000E+00  1.393897E-02 -1.002115E-03 -7.398248E-19 -5.692561E-01  0.000000E+00
  5.310180E-01  6.386623E-02  5.000000E-01  5.363808E-01  6.446304E-02  0.000000E+00  1.414757E-02 -9.432777E-04 -1.137604E-18 -5.868208E-01  0.000000E+00
  5.099250E-01  6.522087E-02  5.000000E-01  5.150748E-01  6.583136E-02  0.000000E+00  1.439076E-02 -8.949852E-04 -1.010736E-18 -6.100796E-01  0.000000E+00
  4.887640E-01  6.649294E-02  5.000000E-01  4.937001E-01  6.711629E-02  0.000000E+00  1.470855E-02 -8.469673E-04 -2.568439E-19 -6.401474E-01  0.000000E+00
  4.675910E-01  6.765981E-02  5.000000E-01  4.723132E-01  6.829493E-02  0.000000E+00  1.513390E-02 -7.778367E-04  4.283663E-19 -6.737538E-01  0.000000E+00
  7.860720E-05 -6.446492E-04  5.000000E-01  7.940614E-05 -6.993305E-04  0.000000E+00 -5.146358E-03  2.214029E-02  9.569861E-17  8.794470E-01  0.000000E+00
  3.989240E-04 -1.462934E-03  5.000000E-01  4.029578E-04 -1.525879E-03  0.000000E+00 -4.583834E-03  9.890314E-03  6.054481E-17  1.073161E+00  0.000000E+00
  1.196920E-03 -2.467102E-03  5.000000E-01  1.209013E-03 -2.540189E-03  0.000000E+00  1.932808E-05  7.418095E-04  3.313893E-17  1.074757E+00  0.000000E+00
  2.563580E-03 -3.529218E-03  5.000000E-01  2.589475E-03 -3.613031E-03  0.000000E+00  5.390360E-03 -3.316334E-03  1.000010E-17  9.445240E-01  0.000000E+00
  4.492740E-03 -4.584986E-03  5.000000E-01  4.538117E-03 -4.679461E-03  0.000000E+00  9.175971E-03 -4.364348E-03 -6.385903E-19  8.080077E-01  0.000000E+00
  6.952190E-03 -5.620041E-03  5.000000E-01  7.022405E-03 -5.724969E-03  0.000000E+00  1.141274E-02 -4.369552E-03 -3.201218E-18  7.036581E-01  0.000000E+00
  9.910730E-03 -6.653778E-03  5.000000E-01  1.001082E-02 -6.769145E-03  0.000000E+00  1.279454E-02 -4.189141E-03 -3.205234E-18  6.223135E-01  0.000000E+00
  1.334950E-02 -7.711046E-03  5.000000E-01  1.348432E-02 -7.837091E-03  0.000000E+00  1.375714E-02 -3.931335E-03 -2.618016E-18  5.435895E-01  0.000000E+00
  1.728780E-02 -8.758361E-03  5.000000E-01  1.746240E-02 -8.894982E-03  0.000000E+00  1.438689E-02 -3.470434E-03 -2.483900E-18  4.577023E-01  0.000000E+00
  2.175590E-02 -9.729458E-03  5.000000E-01  2.197562E-02 -9.875887E-03  0.000000E+00  1.466879E-02 -2.835144E-03 -1.990331E-18  3.787297E-01  0.000000E+00
  2.676920E-02 -1.057680E-02  5.000000E-01  2.703955E-02 -1.073179E-02  0.000000E+00  1.467031E-02 -2.182313E-03 -9.507440E-19  3.229935E-01  0.000000E+00
  3.232800E-02 -1.128869E-02  5.000000E-01  3.265449E-02 -1.145087E-02  0.000000E+00  1.450874E-02 -1.629371E-03 -1.421535E-19  2.918121E-01  0.000000E+00
  3.842930E-02 -1.187637E-02  5.000000E-01  3.881740E-02 -1.204448E-02  0.000000E+00  1.427383E-02 -1.209533E-03  4.979265E-20  2.761130E-01  0.000000E+00
  4.507220E-02 -1.236133E-02  5.000000E-01  4.552739E-02 -1.253434E-02  0.000000E+00  1.403189E-02 -9.260889E-04  4.339706E-19  2.686709E-01  0.000000E+00
  5.225680E-02 -1.278388E-02  5.000000E-01  5.278455E-02 -1.296116E-02  0.000000E+00  1.383995E-02 -7.667138E-04  9.436547E-19  2.653770E-01  0.000000E+00
  5.998640E-02 -1.318592E-02  5.000000E-01  6.059221E-02 -1.336726E-02  0.000000E+00  1.370954E-02 -6.782396E-04  5.406298E-19  2.597571E-01  0.000000E+00
  6.827110E-02 -1.357581E-02  5.000000E-01  6.896058E-02 -1.376108E-02  0.000000E+00  1.361006E-02 -6.078358E-04 -1.071394E-19  2.487002E-01  0.000000E+00
  7.712280E-02 -1.394962E-02  5.000000E-01  7.790167E-02 -1.413867E-02  0.000000E+00  1.351564E-02 -5.424804E-04 -6.603363E-19  2.358079E-01  0.000000E+00
  8.655260E-02 -1.430750E-02  5.000000E-01  8.742670E-02 -1.450016E-02  0.000000E+00  1.341349E-02 -4.815440E-04 -5.604010E-19  2.239891E-01  0.000000E+00
  9.657140E-02 -1.464660E-02  5.000000E-01  9.754668E-02 -1.484269E-02  0.000000E+00  1.328987E-02 -4.154192E-04  1.729152E-20  2.126311E-01  0.000000E+00
  1.071900E-01 -1.495123E-02  5.000000E-01  1.082725E-01 -1.515039E-02  0.000000E+00  1.314128E-02 -3.424113E-04  1.139368E-19  2.018440E-01  0.000000E+00
  1.184180E-01 -1.521337E-02  5.000000E-01  1.196139E-01 -1.541518E-02  0.000000E+00  1.299181E-02 -2.794859E-04  1.509475E-19  1.937634E-01  0.000000E+00
  1.302610E-01 -1.544558E-02  5.000000E-01  1.315765E-01 -1.564974E-02  0.000000E+00  1.287760E-02 -2.416576E-04  3.400692E-19  1.883571E-01  0.000000E+00
  1.427230E-01 -1.566878E-02  5.000000E-01  1.441644E-01 -1.587519E-02  0.000000E+00  1.282204E-02 -2.313407E-04  1.122372E-19  1.832483E-01  0.000000E+00
  1.427230E-01 -1.566878E-02  5.000000E-01  1.441644E-01 -1.587519E-02  0.000000E+00  1.282204E-02 -2.313407E-04  1.122372E-19  1.832483E-01  0.000000E+00
  1.558070E-01 -1.590688E-02  5.000000E-01  1.573805E-01 -1.611569E-02  0.000000E+00  1.282235E-02 -2.379033E-04 -1.774464E-19  1.757526E-01  0.000000E+00
  1.695140E-01 -1.616675E-02  5.000000E-01  1.712259E-01 -1.637819E-02  0.000000E+00  1.285100E-02 -2.417763E-04 -3.775757E-19  1.643518E-01  0.000000E+00
  1.838420E-01 -1.643452E-02  5.000000E-01  1.856986E-01 -1.664867E-02  0.000000E+00  1.287309E-02 -2.252267E-04 -5.470830E-19  1.499356E-01  0.000000E+00
  1.987870E-01 -1.667845E-02  5.000000E-01  2.007946E-01 -1.689505E-02  0.000000E+00  1.286303E-02 -1.765326E-04 -3.836318E-19  1.343203E-01  0.000000E+00
  2.143420E-01 -1.685168E-02  5.000000E-01  2.165067E-01 -1.707004E-02  0.000000E+00  1.282130E-02 -1.031060E-04  5.809200E-19  1.201166E-01  0.000000E+00
  2.304940E-01 -1.693006E-02  5.000000E-01  2.328218E-01 -1.714921E-02  0.000000E+00  1.278100E-02 -3.638268E-05  1.081608E-18  1.106460E-01  0.000000E+00
  2.472290E-01 -1.694258E-02  5.000000E-01  2.497258E-01 -1.716185E-02  0.000000E+00  1.277546E-02  4.471972E-06  2.252254E-19  1.049884E-01  0.000000E+00
  2.645310E-01 -1.691837E-02  5.000000E-01  2.672025E-01 -1.713740E-02  0.000000E+00  1.280182E-02  3.643089E-05 -1.937729E-19  9.771177E-02  0.000000E+00
  2.823750E-01 -1.684375E-02  5.000000E-01  2.852267E-01 -1.706203E-02  0.000000E+00  1.282732E-02  8.854070E-05 -3.089155E-19  8.589866E-02  0.000000E+00
  3.007320E-01 -1.666783E-02  5.000000E-01  3.037691E-01 -1.688433E-02  0.000000E+00  1.281744E-02  1.732811E-04 -3.434386E-19  7.219476E-02  0.000000E+00
  3.195690E-01 -1.633819E-02  5.000000E-01  3.227963E-01 -1.655137E-02  0.000000E+00  1.274844E-02  2.838752E-04  1.847391E-20  6.107396E-02  0.000000E+00
  3.388440E-01 -1.581547E-02  5.000000E-01  3.422660E-01 -1.602337E-02  0.000000E+00  1.260161E-02  4.059297E-04 -1.865979E-19  5.508763E-02  0.000000E+00
  3.585140E-01 -1.507983E-02  5.000000E-01  3.621347E-01 -1.528030E-02  0.000000E+00  1.235361E-02  5.278610E-04 -5.826949E-19  5.432534E-02  0.000000E+00
  3.785290E-01 -1.411579E-02  5.000000E-01  3.823518E-01 -1.430652E-02  0.000000E+00  1.197647E-02  6.434513E-04 -7.248310E-19  5.799170E-02  0.000000E+00
  3.988350E-01 -1.290770E-02  5.000000E-01  4.028629E-01 -1.308622E-02  0.000000E+00  1.145504E-02  7.470871E-04 -2.437863E-18  6.660649E-02  0.000000E+00
  4.193750E-01 -1.144429E-02  5.000000E-01  4.236103E-01 -1.160804E-02  0.000000E+00  1.080427E-02  8.367692E-04 -3.362193E-18  8.078143E-02  0.000000E+00
  4.400850E-01 -9.704184E-03  5.000000E-01  4.445294E-01 -9.850358E-03  0.000000E+00  1.008516E-02  9.045755E-04 -2.387374E-18  1.011125E-01  0.000000E+00
  4.609060E-01 -7.707782E-03  5.000000E-01  4.655607E-01 -7.833794E-03  0.000000E+00  9.412599E-03  9.209937E-04 -1.161793E-18  1.301917E-01  0.000000E+00
  4.818030E-01 -5.614565E-03  5.000000E-01  4.866688E-01 -5.719438E-03  0.000000E+00  8.910124E-03  8.630116E-04  8.082161E-19  1.665691E-01  0.000000E+00
  5.027520E-01 -3.657641E-03  5.000000E-01  5.078293E-01 -3.742751E-03  0.000000E+00  8.634811E-03  7.493776E-04  7.903025E-19  1.996675E-01  0.000000E+00
  5.237130E-01 -1.985943E-03  5.000000E-01  5.290020E-01 -2.054170E-03  0.000000E+00  8.554313E-03  6.275669E-04  2.951264E-19  2.182261E-01  0.000000E+00
  5.446170E-01 -5.909497E-04  5.000000E-01  5.501171E-01 -6.450886E-04  0.000000E+00  8.591715E-03  5.336417E-04  2.971731E-19  2.215718E-01  0.000000E+00
  5.653940E-01  6.053819E-04  5.000000E-01  5.711039E-01  5.633248E-04  0.000000E+00  8.677106E-03  4.751457E-04  1.760190E-19  2.179952E-01  0.000000E+00
  4.675910E-01  6.765981E-02  5.000000E-01  4.723132E-01  6.829493E-02  0.000000E+00  1.513390E-02 -7.778367E-04  4.283663E-19 -6.737538E-01  0.000000E+00
  4.464640E-01  6.867037E-02  5.000000E-01  4.509729E-01  6.931571E-02  0.000000E+00  1.566295E-02 -6.766073E-04 -5.063079E-20 -7.076217E-01  0.000000E+00
  4.254410E-01  6.948488E-02  5.000000E-01  4.297375E-01  7.013844E-02  0.000000E+00  1.625941E-02 -5.454152E-04 -2.070209E-19 -7.405913E-01  0.000000E+00
  4.045840E-01  7.007984E-02  5.000000E-01  4.086699E-01  7.073941E-02  0.000000E+00  1.688014E-02 -3.886067E-04  9.839454E-20 -7.725841E-01  0.000000E+00
  3.839530E-01  7.044485E-02  5.000000E-01  3.878306E-01  7.110810E-02  0.000000E+00  1.749341E-02 -2.062174E-04 -2.961907E-19 -8.029798E-01  0.000000E+00
  3.636060E-01  7.056848E-02  5.000000E-01  3.672781E-01  7.123299E-02  0.000000E+00  1.808035E-02  4.065851E-06 -5.394801E-19 -8.299506E-01  0.000000E+00
  3.435960E-01  7.044235E-02  5.000000E-01  3.470660E-01  7.110558E-02  0.000000E+00  1.862594E-02  2.414682E-04 -4.479691E-19 -8.514401E-01  0.000000E+00
  3.239710E-01  7.006152E-02  5.000000E-01  3.272428E-01  7.072090E-02  0.000000E+00  1.911203E-02  4.959315E-04 -1.552099E-19 -8.674247E-01  0.000000E+00
  3.047740E-01  6.944028E-02  5.000000E-01  3.078519E-01  7.009339E-02  0.000000E+00  1.952617E-02  7.504120E-04 -1.396170E-19 -8.804987E-01  0.000000E+00
  2.860450E-01  6.860853E-02  5.000000E-01  2.889338E-01  6.925324E-02  0.000000E+00  1.988162E-02  1.002668E-03 -3.095970E-19 -8.921071E-01  0.000000E+00
  2.678190E-01  6.758152E-02  5.000000E-01  2.705237E-01  6.821586E-02  0.000000E+00  2.020436E-02  1.260926E-03 -2.671349E-19 -9.023115E-01  0.000000E+00
  2.501300E-01  6.637186E-02  5.000000E-01  2.526561E-01  6.699398E-02  0.000000E+00  2.051130E-02  1.527320E-03 -7.224940E-19 -9.117924E-01  0.000000E+00
  2.330040E-01  6.499370E-02  5.000000E-01  2.353571E-01  6.560190E-02  0.000000E+00  2.081165E-02  1.802644E-03 -7.438552E-19 -9.208685E-01  0.000000E+00
  2.164660E-01  6.346072E-02  5.000000E-01  2.186521E-01  6.405344E-02  0.000000E+00  2.111054E-02  2.088732E-03 -5.959570E-19 -9.287002E-01  0.000000E+00
  2.005340E-01  6.178656E-02  5.000000E-01  2.025592E-01  6.236238E-02  0.000000E+00  2.141180E-02  2.388800E-03 -8.978448E-19 -9.333434E-01  0.000000E+00
  1.852230E-01  5.998158E-02  5.000000E-01  1.870936E-01  6.053916E-02  0.000000E+00  2.171464E-02  2.700730E-03  7.935139E-20 -9.345317E-01  0.000000E+00
  1.705440E-01  5.806267E-02  5.000000E-01  1.722663E-01  5.860087E-02  0.000000E+00  2.201835E-02  3.014720E-03  1.217936E-18 -9.369251E-01  0.000000E+00
  1.565000E-01  5.605294E-02  5.000000E-01  1.580805E-01  5.657085E-02  0.000000E+00  2.234533E-02  3.329129E-03  5.473731E-19 -9.486375E-01  0.000000E+00
  1.430940E-01  5.397534E-02  5.000000E-01  1.445391E-01  5.447227E-02  0.000000E+00  2.275916E-02  3.677067E-03 -1.091910E-20 -9.731829E-01  0.000000E+00
  1.303270E-01  5.182902E-02  5.000000E-01  1.316432E-01  5.230427E-02  0.000000E+00  2.333428E-02  4.135116E-03 -1.724021E-19 -1.000981E+00  0.000000E+00
  1.182110E-01  4.957585E-02  5.000000E-01  1.194048E-01  5.002834E-02  0.000000E+00  2.405714E-02  4.750254E-03 -7.549591E-19 -1.015609E+00  0.000000E+00
  1.067560E-01  4.718963E-02  5.000000E-01  1.078341E-01  4.761803E-02  0.000000E+00  2.478344E-02  5.488685E-03 -9.127062E-19 -1.006070E+00  0.000000E+00
  9.596750E-02  4.466407E-02  5.000000E-01  9.693668E-02  4.506697E-02  0.000000E+00  2.530188E-02  6.213598E-03 -1.239400E-18 -9.797126E-01  0.000000E+00
  8.582800E-02  4.205691E-02  5.000000E-01  8.669479E-02  4.243347E-02  0.000000E+00  2.551499E-02  6.792658E-03 -5.572927E-19 -9.559621E-01  0.000000E+00
  8.582800E-02  4.205691E-02  5.000000E-01  8.669479E-02  4.243347E-02  0.000000E+00  2.551499E-02  6.792658E-03 -5.572927E-19 -9.559621E-01  0.000000E+00
  7.631050E-02  3.943510E-02  5.000000E-01  7.708117E-02  3.978519E-02  0.000000E+00  2.555485E-02  7.296019E-03  7.510066E-19 -9.389473E-01  0.000000E+00
  6.740780E-02  3.680469E-02  5.000000E-01  6.808856E-02  3.712821E-02  0.000000E+00  2.559802E-02  7.867328E-03  4.894279E-19 -9.203142E-01  0.000000E+00
  5.911740E-02  3.415913E-02  5.000000E-01  5.971443E-02  3.445593E-02  0.000000E+00  2.569555E-02  8.536393E-03  7.522765E-19 -8.957917E-01  0.000000E+00
  5.143150E-02  3.150592E-02  5.000000E-01  5.195091E-02  3.177593E-02  0.000000E+00  2.580727E-02  9.267977E-03  1.812550E-18 -8.654900E-01  0.000000E+00
  4.433770E-02  2.886022E-02  5.000000E-01  4.478547E-02  2.910351E-02  0.000000E+00  2.587074E-02  1.003078E-02  6.621343E-19 -8.322213E-01  0.000000E+00
  3.782240E-02  2.623776E-02  5.000000E-01  3.820437E-02  2.645456E-02  0.000000E+00  2.584634E-02  1.082253E-02 -6.487236E-20 -8.001048E-01  0.000000E+00
  3.187460E-02  2.364940E-02  5.000000E-01  3.219651E-02  2.384006E-02  0.000000E+00  2.573652E-02  1.166950E-02  5.693868E-19 -7.711794E-01  0.000000E+00
  2.648400E-02  2.110530E-02  5.000000E-01  2.675147E-02  2.127027E-02  0.000000E+00  2.556947E-02  1.265078E-02  1.676064E-18 -7.355032E-01  0.000000E+00
  2.164990E-02  1.860421E-02  5.000000E-01  2.186855E-02  1.874392E-02  0.000000E+00  2.529054E-02  1.382530E-02  2.204347E-18 -6.704526E-01  0.000000E+00
  1.737670E-02  1.614410E-02  5.000000E-01  1.755219E-02  1.625897E-02  0.000000E+00  2.468884E-02  1.498031E-02  2.017526E-18 -5.695446E-01  0.000000E+00
  1.364080E-02  1.375765E-02  5.000000E-01  1.377856E-02  1.384841E-02  0.000000E+00  2.360978E-02  1.571445E-02  2.622944E-18 -4.589970E-01  0.000000E+00
  1.039090E-02  1.150038E-02  5.000000E-01  1.049584E-02  1.156835E-02  0.000000E+00  2.219307E-02  1.595614E-02  3.119783E-18 -3.698127E-01  0.000000E+00
  7.586340E-03  9.409459E-03  5.000000E-01  7.662960E-03  9.456315E-03  0.000000E+00  2.077123E-02  1.618594E-02  4.235802E-18 -3.046097E-01  0.000000E+00
  5.226210E-03  7.485913E-03  5.000000E-01  5.278995E-03  7.513343E-03  0.000000E+00  1.960273E-02  1.704041E-02  4.463258E-18 -2.452810E-01  0.000000E+00
  3.324300E-03  5.724023E-03  5.000000E-01  3.357877E-03  5.733659E-03  0.000000E+00  1.871646E-02  1.895927E-02  3.742805E-18 -1.756041E-01  0.000000E+00
  1.883580E-03  4.134966E-03  5.000000E-01  1.902607E-03  4.128554E-03  0.000000E+00  1.776010E-02  2.221670E-02  8.666933E-18 -7.425901E-02  0.000000E+00
  8.951490E-04  2.744604E-03  5.000000E-01  9.041942E-04  2.724151E-03  0.000000E+00  1.582448E-02  2.657717E-02  2.630380E-17  8.524669E-02  0.000000E+00
  3.201820E-04  1.596121E-03  5.000000E-01  3.234206E-04  1.564070E-03  0.000000E+00  1.195198E-02  3.050349E-02  5.359372E-17  3.029502E-01  0.000000E+00
  6.852390E-05  7.412875E-04  5.000000E-01  6.922101E-05  7.006029E-04  0.000000E+00  6.698397E-03  3.155856E-02  8.012456E-17  5.083798E-01  0.000000E+00
  4.217600E-06  2.211529E-04  5.000000E-01  4.265277E-06  1.752154E-04  0.000000E+00  2.297971E-03  3.003933E-02  1.051058E-16  5.801299E-01  0.000000E+00
 -5.032520E-09  4.768929E-05  5.000000E-01  0.000000E+00  0.000000E+00  0.000000E+00 -2.937309E-04  3.092104E-02  1.296007E-16  5.567733E-01  0.000000E+00
  5.154440E-06 -1.267471E-04  5.000000E-01  5.211578E-06 -1.761980E-04  0.000000E+00 -2.667910E-03  3.058447E-02  1.294917E-16  6.437708E-01  0.000000E+00