 Title = "ADflow Slice Data"
Variables =  "CoordinateX"  "CoordinateY"  "CoordinateZ"  "XoC"  "YoC"  "ZoC" "VelocityX" "VelocityY" "VelocityZ" "CoefPressure" "Mach" 
Zone T= "Slice_0001 None Absolute Regular z = 0.50000000"
 Nodes =          192  Elements=          184  ZONETYPE=FELINESEG
 DATAPACKING=POINT
  5.653940E-01 -5.231922E-03  5.000000E-01  5.711039E-01 -5.354307E-03  0.000000E+00  4.427557E-03  1.323040E-03  2.966654E-18  6.124878E-02  0.000000E+00
  5.859770E-01  1.507796E-03  5.000000E-01  5.918947E-01  1.453475E-03  0.000000E+00  2.224224E-03  7.425667E-04 -5.670554E-19  1.894581E-01  0.000000E+00
  6.063060E-01  8.559647E-03  5.000000E-01  6.124290E-01  8.576542E-03  0.000000E+00  7.633635E-04  2.670941E-04 -1.626558E-20  2.995529E-01  0.000000E+00
  6.263240E-01  1.540375E-02  5.000000E-01  6.326492E-01  1.548977E-02  0.000000E+00 -8.363556E-05 -2.213390E-05  1.816421E-18  3.734743E-01  0.000000E+00
  6.459860E-01  2.154263E-02  5.000000E-01  6.525097E-01  2.169064E-02  0.000000E+00 -5.006971E-04 -1.406832E-04  2.074178E-18  4.175015E-01  0.000000E+00
  6.652460E-01  2.655310E-02  5.000000E-01  6.719642E-01  2.675171E-02  0.000000E+00 -6.332623E-04 -1.448114E-04  1.553247E-18  4.452362E-01  0.000000E+00
  6.840650E-01  3.025351E-02  5.000000E-01  6.909733E-01  3.048949E-02  0.000000E+00 -5.754994E-04 -9.889000E-05  2.387621E-18  4.649118E-01  0.000000E+00
  7.024070E-01  3.281134E-02  5.000000E-01  7.095005E-01  3.307315E-02  0.000000E+00 -3.894963E-04 -4.800082E-05  3.445906E-18  4.804704E-01  0.000000E+00
  7.202400E-01  3.443611E-02  5.000000E-01  7.275136E-01  3.471433E-02  0.000000E+00 -1.167901E-04 -1.142193E-05  3.261058E-18  4.935534E-01  0.000000E+00
  7.375350E-01  3.531772E-02  5.000000E-01  7.449833E-01  3.560484E-02  0.000000E+00  2.158126E-04  4.533753E-06  1.825382E-18  5.037047E-01  0.000000E+00
  7.542690E-01  3.561649E-02  5.000000E-01  7.618863E-01  3.590663E-02  0.000000E+00  5.902955E-04 -1.560856E-07  9.414892E-19  5.100910E-01  0.000000E+00
  7.704220E-01  3.545868E-02  5.000000E-01  7.782024E-01  3.574723E-02  0.000000E+00  9.949655E-04 -2.386417E-05  2.288624E-18  5.123575E-01  0.000000E+00
  7.859770E-01  3.493983E-02  5.000000E-01  7.939145E-01  3.522313E-02  0.000000E+00  1.424827E-03 -6.674674E-05  3.770713E-19  5.114997E-01  0.000000E+00
  8.009220E-01  3.409662E-02  5.000000E-01  8.090104E-01  3.437141E-02  0.000000E+00  1.881322E-03 -1.318843E-04 -2.697449E-18  5.089198E-01  0.000000E+00
  8.152480E-01  3.294066E-02  5.000000E-01  8.234811E-01  3.320377E-02  0.000000E+00  2.365292E-03 -2.198818E-04  3.438205E-19  5.039228E-01  0.000000E+00
  8.289490E-01  3.152829E-02  5.000000E-01  8.373205E-01  3.177714E-02  0.000000E+00  2.869741E-03 -3.255248E-04  2.352741E-18  4.952302E-01  0.000000E+00
  8.420260E-01  2.993110E-02  5.000000E-01  8.505295E-01  3.016382E-02  0.000000E+00  3.382091E-03 -4.417133E-04  2.001640E-18  4.834551E-01  0.000000E+00
  8.544790E-01  2.821448E-02  5.000000E-01  8.631083E-01  2.842986E-02  0.000000E+00  3.889277E-03 -5.622018E-04  7.792710E-19  4.697910E-01  0.000000E+00
  8.663160E-01  2.643376E-02  5.000000E-01  8.750648E-01  2.663116E-02  0.000000E+00  4.379018E-03 -6.815229E-04 -2.830240E-19  4.549669E-01  0.000000E+00
  8.775420E-01  2.463431E-02  5.000000E-01  8.864042E-01  2.481354E-02  0.000000E+00  4.840385E-03 -7.947219E-04 -6.638551E-19  4.395335E-01  0.000000E+00
  8.881660E-01  2.285222E-02  5.000000E-01  8.971355E-01  2.301345E-02  0.000000E+00  5.265189E-03 -8.979276E-04 -1.743302E-18  4.239792E-01  0.000000E+00
  8.981970E-01  2.111542E-02  5.000000E-01  9.072678E-01  2.125912E-02  0.000000E+00  5.649882E-03 -9.909152E-04 -1.077262E-18  4.088402E-01  0.000000E+00
  9.076460E-01  1.943860E-02  5.000000E-01  9.168122E-01  1.956536E-02  0.000000E+00  5.997957E-03 -1.078753E-03 -1.230436E-18  3.948297E-01  0.000000E+00
  9.165220E-01  1.782240E-02  5.000000E-01  9.257779E-01  1.793283E-02  0.000000E+00  6.318839E-03 -1.167175E-03 -2.569285E-18  3.819895E-01  0.000000E+00
  9.165220E-01  1.782240E-02  5.000000E-01  9.257779E-01  1.793283E-02  0.000000E+00  6.318839E-03 -1.167175E-03 -2.569285E-18  3.819895E-01  0.000000E+00
  9.248360E-01  1.626577E-02  5.000000E-01  9.341758E-01  1.636048E-02  0.000000E+00  6.622968E-03 -1.258760E-03 -8.965426E-19  3.696294E-01  0.000000E+00
  9.325990E-01  1.476920E-02  5.000000E-01  9.420172E-01  1.484881E-02  0.000000E+00  6.919232E-03 -1.354817E-03  1.400701E-18  3.573246E-01  0.000000E+00
  9.398210E-01  1.333417E-02  5.000000E-01  9.493121E-01  1.339928E-02  0.000000E+00  7.215260E-03 -1.456565E-03  1.455657E-18  3.449505E-01  0.000000E+00
  9.465130E-01  1.196287E-02  5.000000E-01  9.560717E-01  1.201413E-02  0.000000E+00  7.517435E-03 -1.564990E-03  4.929151E-19  3.323715E-01  0.000000E+00
  9.526870E-01  1.065818E-02  5.000000E-01  9.623081E-01  1.069626E-02  0.000000E+00  7.830638E-03 -1.680790E-03  1.552442E-19  3.194378E-01  0.000000E+00
  9.583540E-01  9.423705E-03  5.000000E-01  9.680323E-01  9.449326E-03  0.000000E+00  8.158587E-03 -1.804421E-03 -1.002595E-18  3.060314E-01  0.000000E+00
  9.635240E-01  8.263695E-03  5.000000E-01  9.732545E-01  8.277601E-03  0.000000E+00  8.504801E-03 -1.936153E-03 -1.678397E-18  2.920354E-01  0.000000E+00
  9.682080E-01  7.182603E-03  5.000000E-01  9.779858E-01  7.185591E-03  0.000000E+00  8.874882E-03 -2.076854E-03 -3.358862E-19  2.774064E-01  0.000000E+00
  9.724140E-01  6.185403E-03  5.000000E-01  9.822343E-01  6.178320E-03  0.000000E+00  9.279335E-03 -2.228482E-03  1.001547E-18  2.621420E-01  0.000000E+00
  9.761510E-01  5.276977E-03  5.000000E-01  9.860090E-01  5.260721E-03  0.000000E+00  9.732997E-03 -2.393627E-03  1.172536E-18  2.461864E-01  0.000000E+00
  9.794290E-01  4.461912E-03  5.000000E-01  9.893201E-01  4.437424E-03  0.000000E+00  1.024511E-02 -2.574176E-03 -1.356356E-19  2.295262E-01  0.000000E+00
  9.822540E-01  3.744995E-03  5.000000E-01  9.921737E-01  3.713267E-03  0.000000E+00  1.079608E-02 -2.765565E-03 -2.092867E-19  2.124375E-01  0.000000E+00
  9.846330E-01  3.130441E-03  5.000000E-01  9.945767E-01  3.092507E-03  0.000000E+00  1.131171E-02 -2.945608E-03  2.414043E-18  1.961166E-01  0.000000E+00
  9.865710E-01  2.622135E-03  5.000000E-01  9.965343E-01  2.579067E-03  0.000000E+00  1.161986E-02 -3.057466E-03  4.221903E-18  1.791278E-01  0.000000E+00
  9.880740E-01  2.223184E-03  5.000000E-01  9.980524E-01  2.176087E-03  0.000000E+00  1.146635E-02 -3.063943E-03 -4.107804E-19  1.564724E-01  0.000000E+00
  9.891450E-01  1.936278E-03  5.000000E-01  9.991343E-01  1.886284E-03  0.000000E+00  1.148822E-02 -3.160825E-03 -2.212258E-17  1.568300E-01  0.000000E+00
  9.897860E-01  1.763417E-03  5.000000E-01  9.997817E-01  1.711678E-03  0.000000E+00  1.427570E-02 -3.382866E-03 -6.576455E-17  1.953635E-01  0.000000E+00
  9.900000E-01  1.705612E-03  5.000000E-01  9.999979E-01  1.653289E-03  0.000000E+00  9.827531E-03 -5.812834E-03 -7.070720E-17 -4.120661E-02  0.000000E+00
  9.900000E-01  1.784322E-03  5.000000E-01  9.999979E-01  1.732794E-03  0.000000E+00  9.883682E-04 -1.546020E-02  3.649214E-18 -1.684008E-01  0.000000E+00
  9.900000E-01  1.863042E-03  5.000000E-01  9.999979E-01  1.812309E-03  0.000000E+00 -5.057920E-04 -1.510964E-02  7.885421E-17 -5.260614E-03  0.000000E+00
  9.900000E-01  1.941763E-03  5.000000E-01  9.999979E-01  1.891824E-03  0.000000E+00 -2.062526E-04 -1.186030E-03  9.903379E-17 -1.143164E-02  0.000000E+00
  9.900000E-01  2.020473E-03  5.000000E-01  9.999979E-01  1.971329E-03  0.000000E+00  5.414077E-04  9.431456E-04  1.196513E-16 -9.797415E-02  0.000000E+00
  9.900000E-01  2.099193E-03  5.000000E-01  9.999979E-01  2.050844E-03  0.000000E+00  4.147564E-03 -2.990266E-03  1.393064E-16 -2.405930E-02  0.000000E+00
  9.900000E-01  2.099193E-03  5.000000E-01  9.999979E-01  2.050844E-03  0.000000E+00  4.147564E-03 -2.990266E-03  1.393064E-16 -2.405930E-02  0.000000E+00
  9.897900E-01  2.166333E-03  5.000000E-01  9.997858E-01  2.118663E-03  0.000000E+00  5.122182E-03 -1.884596E-03  9.598573E-17  7.872627E-02  0.000000E+00
  9.891580E-01  2.368009E-03  5.000000E-01  9.991474E-01  2.322375E-03  0.000000E+00  2.642061E-03 -7.960723E-04  3.248351E-17  4.585020E-02  0.000000E+00
  9.881040E-01  2.704317E-03  5.000000E-01  9.980827E-01  2.662079E-03  0.000000E+00  1.760815E-03 -5.600534E-04  3.201608E-18  3.767531E-02  0.000000E+00
  9.866260E-01  3.175627E-03  5.000000E-01  9.965898E-01  3.138150E-03  0.000000E+00  1.372174E-03 -4.418097E-04 -2.890958E-18  3.927942E-02  0.000000E+00
  9.847200E-01  3.782570E-03  5.000000E-01  9.946646E-01  3.751221E-03  0.000000E+00  1.122688E-03 -3.572146E-04 -2.213720E-18  3.579281E-02  0.000000E+00
  9.823820E-01  4.525772E-03  5.000000E-01  9.923030E-01  4.501930E-03  0.000000E+00  1.021627E-03 -3.239560E-04 -1.911497E-18  2.938769E-02  0.000000E+00
  9.796080E-01  5.405820E-03  5.000000E-01  9.895009E-01  5.390864E-03  0.000000E+00  1.049577E-03 -3.324734E-04 -1.967167E-18  2.179830E-02  0.000000E+00
  9.763910E-01  6.423566E-03  5.000000E-01  9.862515E-01  6.418889E-03  0.000000E+00  1.166970E-03 -3.686440E-04 -2.077732E-18  1.273829E-02  0.000000E+00
  9.727270E-01  7.579319E-03  5.000000E-01  9.825505E-01  7.586314E-03  0.000000E+00  1.344124E-03 -4.230678E-04 -9.238591E-19  1.917056E-03  0.000000E+00
  9.686070E-01  8.873824E-03  5.000000E-01  9.783889E-01  8.893892E-03  0.000000E+00  1.563406E-03 -4.900117E-04  8.801869E-19 -1.073628E-02  0.000000E+00
  9.640240E-01  1.030726E-02  5.000000E-01  9.737596E-01  1.034180E-02  0.000000E+00  1.816587E-03 -5.664601E-04 -2.009093E-19 -2.533491E-02  0.000000E+00
  9.589680E-01  1.187979E-02  5.000000E-01  9.686525E-01  1.193021E-02  0.000000E+00  2.101991E-03 -6.515171E-04 -1.477946E-18 -4.197047E-02  0.000000E+00
  9.534310E-01  1.359088E-02  5.000000E-01  9.630596E-01  1.365859E-02  0.000000E+00  2.421245E-03 -7.452076E-04 -5.345570E-19 -6.072327E-02  0.000000E+00
  9.474030E-01  1.543968E-02  5.000000E-01  9.569707E-01  1.552605E-02  0.000000E+00  2.776777E-03 -8.475659E-04  7.312710E-19 -8.164222E-02  0.000000E+00
  9.408720E-01  1.742482E-02  5.000000E-01  9.503738E-01  1.753124E-02  0.000000E+00  3.170360E-03 -9.583861E-04  1.584540E-18 -1.047931E-01  0.000000E+00
  9.338280E-01  1.954391E-02  5.000000E-01  9.432586E-01  1.967173E-02  0.000000E+00  3.602752E-03 -1.077028E-03  1.431399E-18 -1.302323E-01  0.000000E+00
  9.262600E-01  2.179375E-02  5.000000E-01  9.356142E-01  2.194429E-02  0.000000E+00  4.073564E-03 -1.202166E-03  1.440188E-18 -1.579660E-01  0.000000E+00
  9.181550E-01  2.416997E-02  5.000000E-01  9.274273E-01  2.434451E-02  0.000000E+00  4.581187E-03 -1.331945E-03  1.882550E-18 -1.880232E-01  0.000000E+00
  9.095020E-01  2.666679E-02  5.000000E-01  9.186870E-01  2.686654E-02  0.000000E+00  5.122852E-03 -1.463869E-03 -1.343030E-19 -2.202792E-01  0.000000E+00
  9.002880E-01  2.927667E-02  5.000000E-01  9.093799E-01  2.950279E-02  0.000000E+00  5.693761E-03 -1.594817E-03 -1.434942E-18 -2.543364E-01  0.000000E+00
  8.905020E-01  3.199008E-02  5.000000E-01  8.994951E-01  3.224360E-02  0.000000E+00  6.287138E-03 -1.722165E-03 -3.277691E-19 -2.899463E-01  0.000000E+00
  8.801320E-01  3.479906E-02  5.000000E-01  8.890204E-01  3.508094E-02  0.000000E+00  6.897454E-03 -1.844879E-03 -6.838456E-19 -3.272783E-01  0.000000E+00
  8.691700E-01  3.769695E-02  5.000000E-01  8.779476E-01  3.800810E-02  0.000000E+00  7.524413E-03 -1.962926E-03 -7.697856E-19 -3.666556E-01  0.000000E+00
  8.691700E-01  3.769695E-02  5.000000E-01  8.779476E-01  3.800810E-02  0.000000E+00  7.524413E-03 -1.962926E-03 -7.697856E-19 -3.666556E-01  0.000000E+00
  8.576080E-01  4.067620E-02  5.000000E-01  8.662689E-01  4.101744E-02  0.000000E+00  8.174335E-03 -2.076707E-03  2.002292E-19 -4.083900E-01  0.000000E+00
  8.454380E-01  4.372737E-02  5.000000E-01  8.539760E-01  4.409942E-02  0.000000E+00  8.860088E-03 -2.187547E-03 -4.206770E-19 -4.529717E-01  0.000000E+00
  8.326580E-01  4.683786E-02  5.000000E-01  8.410669E-01  4.724132E-02  0.000000E+00  9.602141E-03 -2.297357E-03 -1.964525E-18 -5.010690E-01  0.000000E+00
  8.192630E-01  4.999178E-02  5.000000E-01  8.275366E-01  5.042710E-02  0.000000E+00  1.042960E-02 -2.408434E-03 -1.976752E-18 -5.537532E-01  0.000000E+00
  8.052550E-01  5.316821E-02  5.000000E-01  8.133872E-01  5.363561E-02  0.000000E+00  1.138185E-02 -2.521960E-03 -1.661549E-18 -6.126545E-01  0.000000E+00
  7.906370E-01  5.633795E-02  5.000000E-01  7.986216E-01  5.683735E-02  0.000000E+00  1.250830E-02 -2.633642E-03 -6.388686E-19 -6.796690E-01  0.000000E+00
  7.754120E-01  5.945631E-02  5.000000E-01  7.832428E-01  5.998720E-02  0.000000E+00  1.386094E-02 -2.728586E-03  1.610119E-18 -7.567565E-01  0.000000E+00
  7.595880E-01  6.245684E-02  5.000000E-01  7.672590E-01  6.301803E-02  0.000000E+00  1.547916E-02 -2.773715E-03  2.482340E-18 -8.447088E-01  0.000000E+00
  7.431760E-01  6.524259E-02  5.000000E-01  7.506813E-01  6.583192E-02  0.000000E+00  1.736181E-02 -2.715850E-03  2.514053E-18 -9.410259E-01  0.000000E+00
  7.261880E-01  6.769530E-02  5.000000E-01  7.335217E-01  6.830940E-02  0.000000E+00  1.943183E-02 -2.486138E-03  1.749470E-18 -1.036123E+00  0.000000E+00
  7.086430E-01  6.967968E-02  5.000000E-01  7.157995E-01  7.031382E-02  0.000000E+00  2.151110E-02 -2.013849E-03  9.539238E-19 -1.110214E+00  0.000000E+00
  6.905640E-01  7.105320E-02  5.000000E-01  6.975379E-01  7.170121E-02  0.000000E+00  2.331133E-02 -1.262543E-03  2.137886E-19 -1.137391E+00  0.000000E+00
  6.719770E-01  7.168678E-02  5.000000E-01  6.787632E-01  7.234119E-02  0.000000E+00  2.446698E-02 -2.826551E-04 -2.751520E-19 -1.098009E+00  0.000000E+00
  6.529150E-01  7.149596E-02  5.000000E-01  6.595087E-01  7.214844E-02  0.000000E+00  2.463885E-02  7.275712E-04 -1.120517E-18 -9.956831E-01  0.000000E+00
  6.334180E-01  7.053360E-02  5.000000E-01  6.398148E-01  7.117637E-02  0.000000E+00  2.370780E-02  1.489176E-03 -1.363746E-18 -8.573121E-01  0.000000E+00
  6.135280E-01  6.899715E-02  5.000000E-01  6.197240E-01  6.962440E-02  0.000000E+00  2.190783E-02  1.860030E-03  2.595273E-19 -7.097374E-01  0.000000E+00
  5.932910E-01  6.710749E-02  5.000000E-01  5.992826E-01  6.771565E-02  0.000000E+00  1.966331E-02  1.879378E-03  5.373205E-19 -5.701548E-01  0.000000E+00
  5.727570E-01  6.509264E-02  5.000000E-01  5.785412E-01  6.568045E-02  0.000000E+00  1.734938E-02  1.651347E-03  1.239729E-18 -4.518999E-01  0.000000E+00
  5.519810E-01  6.318140E-02  5.000000E-01  5.575554E-01  6.374991E-02  0.000000E+00  1.522111E-02  1.291029E-03  1.793339E-18 -3.632526E-01  0.000000E+00
  5.310180E-01  6.157318E-02  5.000000E-01  5.363807E-01  6.212545E-02  0.000000E+00  1.342667E-02  9.133076E-04  2.634068E-18 -3.020169E-01  0.000000E+00
  5.099250E-01  6.034602E-02  5.000000E-01  5.150747E-01  6.088590E-02  0.000000E+00  1.201693E-02  5.827495E-04  1.887904E-18 -2.620521E-01  0.000000E+00
  4.887640E-01  5.954742E-02  5.000000E-01  4.937000E-01  6.007923E-02  0.000000E+00  1.097419E-02  3.035687E-04 -1.319876E-18 -2.398134E-01  0.000000E+00
  4.675910E-01  5.919516E-02  5.000000E-01  4.723132E-01  5.972342E-02  0.000000E+00  1.026237E-02  6.534250E-05 -9.810581E-19 -2.336978E-01  0.000000E+00
  7.860720E-05 -3.611498E-04  5.000000E-01  7.940613E-05 -4.343451E-04  0.000000E+00  2.443938E-05  3.688653E-03  4.014897E-14  1.081444E+00  0.000000E+00
  3.989240E-04 -8.630003E-04  5.000000E-01  4.029578E-04 -9.412636E-04  0.000000E+00  6.760955E-03 -6.031948E-03  2.933979E-14  1.012751E+00  0.000000E+00
  1.196920E-03 -1.472124E-03  5.000000E-01  1.209013E-03 -1.556539E-03  0.000000E+00  1.287883E-02 -7.713998E-03  1.612892E-14  7.843307E-01  0.000000E+00
  2.563580E-03 -2.115385E-03  5.000000E-01  2.589474E-03 -2.206296E-03  0.000000E+00  1.496325E-02 -6.045664E-03  5.234065E-15  6.074758E-01  0.000000E+00
  4.492740E-03 -2.762792E-03  5.000000E-01  4.538117E-03 -2.860241E-03  0.000000E+00  1.499193E-02 -4.508263E-03 -6.558912E-16  5.179414E-01  0.000000E+00
  6.952190E-03 -3.415051E-03  5.000000E-01  7.022404E-03 -3.519087E-03  0.000000E+00  1.477972E-02 -3.652644E-03 -2.211722E-15  4.665778E-01  0.000000E+00
  9.910730E-03 -4.093283E-03  5.000000E-01  1.001082E-02 -4.204169E-03  0.000000E+00  1.485784E-02 -3.273778E-03 -1.656890E-15  4.236530E-01  0.000000E+00
  1.334950E-02 -4.821638E-03  5.000000E-01  1.348432E-02 -4.939879E-03  0.000000E+00  1.517363E-02 -3.070786E-03 -7.416931E-16  3.750422E-01  0.000000E+00
  1.728780E-02 -5.583930E-03  5.000000E-01  1.746239E-02 -5.709870E-03  0.000000E+00  1.549292E-02 -2.804860E-03 -1.653172E-16  3.174797E-01  0.000000E+00
  2.175590E-02 -6.337811E-03  5.000000E-01  2.197562E-02 -6.471364E-03  0.000000E+00  1.564563E-02 -2.430989E-03  4.717069E-17  2.632432E-01  0.000000E+00
  2.676920E-02 -7.048708E-03  5.000000E-01  2.703954E-02 -7.189440E-03  0.000000E+00  1.561358E-02 -2.028440E-03  6.917620E-17  2.242090E-01  0.000000E+00
  3.232800E-02 -7.703322E-03  5.000000E-01  3.265448E-02 -7.850665E-03  0.000000E+00  1.546074E-02 -1.670811E-03  4.001890E-17  2.010588E-01  0.000000E+00
  3.842930E-02 -8.302909E-03  5.000000E-01  3.881740E-02 -8.456308E-03  0.000000E+00  1.525464E-02 -1.384891E-03  1.351457E-17  1.874724E-01  0.000000E+00
  4.507220E-02 -8.855780E-03  5.000000E-01  4.552738E-02 -9.014761E-03  0.000000E+00  1.505606E-02 -1.182275E-03  5.576662E-19  1.788718E-01  0.000000E+00
  5.225680E-02 -9.385308E-03  5.000000E-01  5.278454E-02 -9.549638E-03  0.000000E+00  1.491764E-02 -1.063298E-03 -2.902554E-18  1.727887E-01  0.000000E+00
  5.998640E-02 -9.917721E-03  5.000000E-01  6.059220E-02 -1.008743E-02  0.000000E+00  1.484727E-02 -9.898595E-04 -1.605937E-18  1.641982E-01  0.000000E+00
  6.827110E-02 -1.045270E-02  5.000000E-01  6.896057E-02 -1.062781E-02  0.000000E+00  1.481106E-02 -9.180297E-04 -2.709686E-19  1.504419E-01  0.000000E+00
  7.712280E-02 -1.097835E-02  5.000000E-01  7.790166E-02 -1.115877E-02  0.000000E+00  1.477590E-02 -8.355559E-04 -6.085736E-19  1.346777E-01  0.000000E+00
  8.655260E-02 -1.148422E-02  5.000000E-01  8.742669E-02 -1.166974E-02  0.000000E+00  1.471792E-02 -7.407939E-04 -8.187482E-19  1.198865E-01  0.000000E+00
  9.657140E-02 -1.195527E-02  5.000000E-01  9.754667E-02 -1.214555E-02  0.000000E+00  1.460986E-02 -6.237513E-04 -1.730230E-18  1.061331E-01  0.000000E+00
  1.071900E-01 -1.236271E-02  5.000000E-01  1.082725E-01 -1.255711E-02  0.000000E+00  1.443189E-02 -4.828748E-04 -3.290170E-18  9.421093E-02  0.000000E+00
  1.184180E-01 -1.268200E-02  5.000000E-01  1.196139E-01 -1.287962E-02  0.000000E+00  1.418889E-02 -3.367832E-04 -3.379457E-18  8.693558E-02  0.000000E+00
  1.302610E-01 -1.290582E-02  5.000000E-01  1.315765E-01 -1.310570E-02  0.000000E+00  1.389649E-02 -2.039959E-04 -1.836897E-18  8.521366E-02  0.000000E+00
  1.427230E-01 -1.303489E-02  5.000000E-01  1.441643E-01 -1.323607E-02  0.000000E+00  1.355993E-02 -9.160318E-05 -1.020697E-18  8.769914E-02  0.000000E+00
  1.427230E-01 -1.303489E-02  5.000000E-01  1.441643E-01 -1.323607E-02  0.000000E+00  1.355993E-02 -9.160318E-05 -1.020697E-18  8.769914E-02  0.000000E+00
  1.558070E-01 -1.307516E-02  5.000000E-01  1.573805E-01 -1.327676E-02  0.000000E+00  1.316693E-02  4.420175E-06 -5.498971E-19  9.268506E-02  0.000000E+00
  1.695140E-01 -1.302281E-02  5.000000E-01  1.712259E-01 -1.322388E-02  0.000000E+00  1.269685E-02  9.227668E-05 -2.210573E-18  9.948021E-02  0.000000E+00
  1.838420E-01 -1.286744E-02  5.000000E-01  1.856986E-01 -1.306693E-02  0.000000E+00  1.214317E-02  1.706393E-04 -2.091804E-18  1.093735E-01  0.000000E+00
  1.987870E-01 -1.260673E-02  5.000000E-01  2.007945E-01 -1.280359E-02  0.000000E+00  1.152937E-02  2.260789E-04  7.692269E-19  1.241680E-01  0.000000E+00
  2.143420E-01 -1.226518E-02  5.000000E-01  2.165066E-01 -1.245859E-02  0.000000E+00  1.091056E-02  2.392913E-04  1.400054E-18  1.444389E-01  0.000000E+00
  2.304940E-01 -1.191064E-02  5.000000E-01  2.328217E-01 -1.210047E-02  0.000000E+00  1.035884E-02  1.982960E-04  1.206014E-18  1.678860E-01  0.000000E+00
  2.472290E-01 -1.163947E-02  5.000000E-01  2.497257E-01 -1.182657E-02  0.000000E+00  9.949187E-03  1.031647E-04 -3.545357E-19  1.902146E-01  0.000000E+00
  2.645310E-01 -1.156463E-02  5.000000E-01  2.672025E-01 -1.175097E-02  0.000000E+00  9.754555E-03 -3.805243E-05 -2.325447E-18  2.067920E-01  0.000000E+00
  2.823750E-01 -1.178292E-02  5.000000E-01  2.852267E-01 -1.197147E-02  0.000000E+00  9.847789E-03 -2.212524E-04 -1.304027E-18  2.137071E-01  0.000000E+00
  3.007320E-01 -1.237864E-02  5.000000E-01  3.037691E-01 -1.257320E-02  0.000000E+00  1.030442E-02 -4.637861E-04 -8.904319E-19  2.088967E-01  0.000000E+00
  3.195690E-01 -1.344614E-02  5.000000E-01  3.227963E-01 -1.365148E-02  0.000000E+00  1.118496E-02 -7.975705E-04  1.576805E-19  1.907736E-01  0.000000E+00
  3.388440E-01 -1.507524E-02  5.000000E-01  3.422660E-01 -1.529703E-02  0.000000E+00  1.248181E-02 -1.204750E-03  7.826662E-19  1.522649E-01  0.000000E+00
  3.585140E-01 -1.718779E-02  5.000000E-01  3.621346E-01 -1.743091E-02  0.000000E+00  1.407734E-02 -1.572179E-03 -1.487701E-19  8.376057E-02  0.000000E+00
  3.785290E-01 -1.950256E-02  5.000000E-01  3.823517E-01 -1.976906E-02  0.000000E+00  1.576060E-02 -1.756518E-03  1.773800E-18 -1.136278E-02  0.000000E+00
  3.988350E-01 -2.168865E-02  5.000000E-01  4.028628E-01 -2.197723E-02  0.000000E+00  1.724117E-02 -1.632063E-03  2.287321E-18 -1.182974E-01  0.000000E+00
  4.193750E-01 -2.338616E-02  5.000000E-01  4.236102E-01 -2.369188E-02  0.000000E+00  1.816640E-02 -1.101281E-03 -9.542115E-20 -2.226482E-01  0.000000E+00
  4.400850E-01 -2.420231E-02  5.000000E-01  4.445294E-01 -2.451628E-02  0.000000E+00  1.823553E-02 -1.986208E-04 -7.829514E-20 -3.070978E-01  0.000000E+00
  4.609060E-01 -2.381787E-02  5.000000E-01  4.655606E-01 -2.412795E-02  0.000000E+00  1.737342E-02  8.016431E-04  1.234217E-18 -3.435261E-01  0.000000E+00
  4.818030E-01 -2.221956E-02  5.000000E-01  4.866687E-01 -2.251350E-02  0.000000E+00  1.569188E-02  1.573451E-03  1.941618E-18 -3.164794E-01  0.000000E+00
  5.027520E-01 -1.954702E-02  5.000000E-01  5.078292E-01 -1.981397E-02  0.000000E+00  1.331600E-02  1.984531E-03  1.747450E-18 -2.433292E-01  0.000000E+00
  5.237130E-01 -1.587934E-02  5.000000E-01  5.290019E-01 -1.610926E-02  0.000000E+00  1.040527E-02  2.052487E-03  1.811978E-18 -1.520298E-01  0.000000E+00
  5.446170E-01 -1.113850E-02  5.000000E-01  5.501170E-01 -1.132053E-02  0.000000E+00  7.282879E-03  1.814326E-03  4.659149E-18 -5.407742E-02  0.000000E+00
  5.653940E-01 -5.231922E-03  5.000000E-01  5.711039E-01 -5.354307E-03  0.000000E+00  4.427557E-03  1.323040E-03  2.966654E-18  6.124878E-02  0.000000E+00
  4.675910E-01  5.919516E-02  5.000000E-01  4.723132E-01  5.972342E-02  0.000000E+00  1.026237E-02  6.534250E-05 -9.810581E-19 -2.336978E-01  0.000000E+00
  4.464640E-01  5.928834E-02  5.000000E-01  4.509728E-01  5.981754E-02  0.000000E+00  9.854548E-03 -1.504715E-04 -8.092533E-19 -2.474515E-01  0.000000E+00
  4.254410E-01  5.984059E-02  5.000000E-01  4.297375E-01  6.037536E-02  0.000000E+00  9.760357E-03 -3.462343E-04 -1.913468E-18 -2.824989E-01  0.000000E+00
  4.045840E-01  6.077155E-02  5.000000E-01  4.086699E-01  6.131573E-02  0.000000E+00  1.001072E-02 -5.092495E-04 -1.154229E-18 -3.346036E-01  0.000000E+00
  3.839530E-01  6.194502E-02  5.000000E-01  3.878305E-01  6.250105E-02  0.000000E+00  1.061890E-02 -6.372626E-04 -7.081236E-19 -4.007128E-01  0.000000E+00
  3.636060E-01  6.322537E-02  5.000000E-01  3.672780E-01  6.379433E-02  0.000000E+00  1.157655E-02 -7.284961E-04 -5.490213E-19 -4.794488E-01  0.000000E+00
  3.435960E-01  6.448401E-02  5.000000E-01  3.470659E-01  6.506568E-02  0.000000E+00  1.286063E-02 -7.690455E-04 -8.485602E-20 -5.698962E-01  0.000000E+00
  3.239710E-01  6.560139E-02  5.000000E-01  3.272427E-01  6.619434E-02  0.000000E+00  1.443722E-02 -7.307888E-04 -2.246689E-18 -6.700334E-01  0.000000E+00
  3.047740E-01  6.646404E-02  5.000000E-01  3.078519E-01  6.706571E-02  0.000000E+00  1.625632E-02 -5.711225E-04 -5.049006E-18 -7.736383E-01  0.000000E+00
  2.860450E-01  6.695879E-02  5.000000E-01  2.889337E-01  6.756545E-02  0.000000E+00  1.822687E-02 -2.468342E-04 -4.462511E-18 -8.707723E-01  0.000000E+00
  2.678190E-01  6.699583E-02  5.000000E-01  2.705237E-01  6.760287E-02  0.000000E+00  2.020092E-02  2.601225E-04 -2.955825E-18 -9.514382E-01  0.000000E+00
  2.501300E-01  6.652867E-02  5.000000E-01  2.526560E-01  6.713099E-02  0.000000E+00  2.199678E-02  9.307047E-04 -2.394267E-18 -1.007120E+00  0.000000E+00
  2.330040E-01  6.555230E-02  5.000000E-01  2.353571E-01  6.614476E-02  0.000000E+00  2.344524E-02  1.715687E-03 -1.941587E-18 -1.030733E+00  0.000000E+00
  2.164660E-01  6.409046E-02  5.000000E-01  2.186521E-01  6.466816E-02  0.000000E+00  2.442675E-02  2.544388E-03 -1.286160E-18 -1.018554E+00  0.000000E+00
  2.005340E-01  6.218878E-02  5.000000E-01  2.025592E-01  6.274727E-02  0.000000E+00  2.488456E-02  3.314601E-03  5.627020E-19 -9.760572E-01  0.000000E+00
  1.852230E-01  5.993913E-02  5.000000E-01  1.870936E-01  6.047490E-02  0.000000E+00  2.485749E-02  3.927895E-03  2.348662E-18 -9.174421E-01  0.000000E+00
  1.705440E-01  5.745462E-02  5.000000E-01  1.722663E-01  5.796530E-02  0.000000E+00  2.449852E-02  4.362538E-03  2.347488E-18 -8.572250E-01  0.000000E+00
  1.565000E-01  5.482625E-02  5.000000E-01  1.580805E-01  5.531039E-02  0.000000E+00  2.400935E-02  4.666671E-03  1.953721E-18 -8.066449E-01  0.000000E+00
  1.430940E-01  5.211962E-02  5.000000E-01  1.445391E-01  5.257642E-02  0.000000E+00  2.357118E-02  4.924628E-03  2.157116E-18 -7.700381E-01  0.000000E+00
  1.303270E-01  4.936029E-02  5.000000E-01  1.316432E-01  4.978922E-02  0.000000E+00  2.330357E-02  5.240182E-03 -6.891966E-20 -7.397638E-01  0.000000E+00
  1.182110E-01  4.653010E-02  5.000000E-01  1.194048E-01  4.693045E-02  0.000000E+00  2.320721E-02  5.662510E-03 -2.342585E-18 -7.030115E-01  0.000000E+00
  1.067560E-01  4.361812E-02  5.000000E-01  1.078341E-01  4.398907E-02  0.000000E+00  2.316767E-02  6.154144E-03 -4.613609E-19 -6.513375E-01  0.000000E+00
  9.596750E-02  4.063019E-02  5.000000E-01  9.693667E-02  4.097096E-02  0.000000E+00  2.302874E-02  6.596833E-03  1.869004E-18 -5.901546E-01  0.000000E+00
  8.582800E-02  3.762643E-02  5.000000E-01  8.669477E-02  3.793687E-02  0.000000E+00  2.271845E-02  6.889872E-03  2.091516E-18 -5.337363E-01  0.000000E+00
  8.582800E-02  3.762643E-02  5.000000E-01  8.669477E-02  3.793687E-02  0.000000E+00  2.271845E-02  6.889872E-03  2.091516E-18 -5.337363E-01  0.000000E+00
  7.631050E-02  3.467083E-02  5.000000E-01  7.708116E-02  3.495142E-02  0.000000E+00  2.231161E-02  7.094058E-03  1.269608E-18 -4.841566E-01  0.000000E+00
  6.740780E-02  3.177363E-02  5.000000E-01  6.808855E-02  3.202496E-02  0.000000E+00  2.190670E-02  7.313707E-03 -4.366755E-19 -4.351378E-01  0.000000E+00
  5.911740E-02  2.893513E-02  5.000000E-01  5.971442E-02  2.915780E-02  0.000000E+00  2.153277E-02  7.562081E-03 -6.302277E-19 -3.845145E-01  0.000000E+00
  5.143150E-02  2.616731E-02  5.000000E-01  5.195091E-02  2.636202E-02  0.000000E+00  2.117480E-02  7.811203E-03 -7.145008E-19 -3.326023E-01  0.000000E+00
  4.433770E-02  2.348736E-02  5.000000E-01  4.478547E-02  2.365501E-02  0.000000E+00  2.080647E-02  8.041617E-03 -1.810229E-18 -2.805577E-01  0.000000E+00
  3.782240E-02  2.091156E-02  5.000000E-01  3.820437E-02  2.105319E-02  0.000000E+00  2.040850E-02  8.252619E-03  1.287147E-18 -2.304720E-01  0.000000E+00
  3.187460E-02  1.845108E-02  5.000000E-01  3.219650E-02  1.856787E-02  0.000000E+00  1.997951E-02  8.457952E-03  1.174868E-17 -1.847926E-01  0.000000E+00
  2.648400E-02  1.611511E-02  5.000000E-01  2.675146E-02  1.620831E-02  0.000000E+00  1.953340E-02  8.699317E-03  3.115563E-17 -1.401495E-01  0.000000E+00
  2.164990E-02  1.390371E-02  5.000000E-01  2.186854E-02  1.397457E-02  0.000000E+00  1.905130E-02  9.012428E-03  4.148376E-17 -8.466816E-02  0.000000E+00
  1.737670E-02  1.181547E-02  5.000000E-01  1.755219E-02  1.186525E-02  0.000000E+00  1.845179E-02  9.310673E-03 -3.052954E-17 -1.370687E-02  0.000000E+00
  1.364080E-02  9.868897E-03  5.000000E-01  1.377856E-02  9.899014E-03  0.000000E+00  1.769628E-02  9.438317E-03 -3.258731E-16  6.000617E-02  0.000000E+00
  1.039090E-02  8.092421E-03  5.000000E-01  1.049584E-02  8.104597E-03  0.000000E+00  1.691368E-02  9.419539E-03 -9.912600E-16  1.210641E-01  0.000000E+00
  7.586340E-03  6.499721E-03  5.000000E-01  7.662959E-03  6.495812E-03  0.000000E+00  1.635977E-02  9.557305E-03 -1.926152E-15  1.691253E-01  0.000000E+00
  5.226210E-03  5.081907E-03  5.000000E-01  5.278994E-03  5.063681E-03  0.000000E+00  1.626737E-02  1.025674E-02 -2.316033E-15  2.136608E-01  0.000000E+00
  3.324300E-03  3.826371E-03  5.000000E-01  3.357877E-03  3.795465E-03  0.000000E+00  1.673331E-02  1.190467E-02 -3.318965E-16  2.626130E-01  0.000000E+00
  1.883580E-03  2.730475E-03  5.000000E-01  1.902607E-03  2.688502E-03  0.000000E+00  1.748507E-02  1.492643E-02  6.243407E-15  3.343285E-01  0.000000E+00
  8.951490E-04  1.800161E-03  5.000000E-01  9.041941E-04  1.748792E-03  0.000000E+00  1.730469E-02  1.935804E-02  1.806749E-14  4.634071E-01  0.000000E+00
  3.201820E-04  1.051417E-03  5.000000E-01  3.234206E-04  9.924874E-04  0.000000E+00  1.411543E-02  2.337623E-02  3.243960E-14  6.636623E-01  0.000000E+00
  6.852390E-05  5.052824E-04  5.000000E-01  6.922100E-05  4.408371E-04  0.000000E+00  7.889452E-03  2.293317E-02  4.429320E-14  8.537641E-01  0.000000E+00
  4.217600E-06  1.774493E-04  5.000000E-01  4.265276E-06  1.096933E-04  0.000000E+00  2.356606E-03  1.830261E-02  4.955896E-14  8.872461E-01  0.000000E+00
 -5.032520E-09  6.885270E-05  5.000000E-01  0.000000E+00  0.000000E+00  0.000000E+00 -5.278359E-04  1.792238E-02  4.904612E-14  8.361535E-01  0.000000E+00
  5.154440E-06 -3.999064E-05  5.000000E-01  5.211577E-06 -1.099425E-04  0.000000E+00 -1.979681E-03  1.562315E-02  4.611168E-14  9.319235E-01  0.000000E+00