 Title = "ADflow Slice Data"
Variables =  "CoordinateX"  "CoordinateY"  "CoordinateZ"  "XoC"  "YoC"  "ZoC" "VelocityX" "VelocityY" "VelocityZ" "CoefPressure" "Mach" 
Zone T= "Slice_0001 None Absolute Regular z = 0.50000000"
 Nodes =          192  Elements=          184  ZONETYPE=FELINESEG
 DATAPACKING=POINT
  5.653940E-01 -1.284704E-03  5.000000E-01  5.711039E-01 -1.316607E-03  0.000000E+00  8.895191E-03  5.808394E-04  1.168982E-18  2.036170E-01  0.000000E+00
  5.859770E-01  9.180965E-05  5.000000E-01  5.918947E-01  7.380727E-05  0.000000E+00  8.724699E-03  5.952904E-04  1.431349E-18  2.076810E-01  0.000000E+00
  6.063060E-01  1.507847E-03  5.000000E-01  6.124291E-01  1.504145E-03  0.000000E+00  8.533568E-03  5.985440E-04  4.000758E-19  2.179751E-01  0.000000E+00
  6.263240E-01  2.921300E-03  5.000000E-01  6.326492E-01  2.931872E-03  0.000000E+00  8.364658E-03  5.794985E-04 -3.955496E-19  2.309500E-01  0.000000E+00
  6.459860E-01  4.256990E-03  5.000000E-01  6.525098E-01  4.281052E-03  0.000000E+00  8.248103E-03  5.355817E-04 -5.168112E-19  2.438914E-01  0.000000E+00
  6.652460E-01  5.448932E-03  5.000000E-01  6.719643E-01  5.485031E-03  0.000000E+00  8.180433E-03  4.804751E-04 -2.159026E-19  2.537446E-01  0.000000E+00
  6.840650E-01  6.491892E-03  5.000000E-01  6.909733E-01  6.538524E-03  0.000000E+00  8.120039E-03  4.395029E-04  1.404935E-19  2.579620E-01  0.000000E+00
  7.024070E-01  7.459089E-03  5.000000E-01  7.095006E-01  7.515488E-03  0.000000E+00  8.014717E-03  4.234969E-04  1.261997E-18  2.589911E-01  0.000000E+00
  7.202400E-01  8.405033E-03  5.000000E-01  7.275137E-01  8.470985E-03  0.000000E+00  7.831360E-03  4.218999E-04  1.090482E-18  2.623787E-01  0.000000E+00
  7.375350E-01  9.352977E-03  5.000000E-01  7.449833E-01  9.428502E-03  0.000000E+00  7.561436E-03  4.220471E-04  4.565678E-19  2.704660E-01  0.000000E+00
  7.542690E-01  1.030509E-02  5.000000E-01  7.618863E-01  1.039023E-02  0.000000E+00  7.220083E-03  4.163531E-04  5.419646E-19  2.827689E-01  0.000000E+00
  7.704220E-01  1.124878E-02  5.000000E-01  7.782024E-01  1.134345E-02  0.000000E+00  6.842772E-03  4.008851E-04 -9.631958E-21  2.976536E-01  0.000000E+00
  7.859770E-01  1.216257E-02  5.000000E-01  7.939145E-01  1.226647E-02  0.000000E+00  6.484627E-03  3.646265E-04 -5.022496E-19  3.149620E-01  0.000000E+00
  8.009220E-01  1.296630E-02  5.000000E-01  8.090105E-01  1.307831E-02  0.000000E+00  6.209990E-03  2.944863E-04 -7.693003E-19  3.348426E-01  0.000000E+00
  8.152480E-01  1.355118E-02  5.000000E-01  8.234811E-01  1.366910E-02  0.000000E+00  6.057038E-03  1.986207E-04 -7.627736E-20  3.522230E-01  0.000000E+00
  8.289490E-01  1.388525E-02  5.000000E-01  8.373205E-01  1.400655E-02  0.000000E+00  6.021898E-03  9.634876E-05  2.569369E-19  3.620856E-01  0.000000E+00
  8.420260E-01  1.398425E-02  5.000000E-01  8.505296E-01  1.410655E-02  0.000000E+00  6.079224E-03 -2.859733E-06  1.712491E-19  3.654743E-01  0.000000E+00
  8.544790E-01  1.388050E-02  5.000000E-01  8.631083E-01  1.400175E-02  0.000000E+00  6.200342E-03 -9.656837E-05  1.869121E-19  3.651771E-01  0.000000E+00
  8.663160E-01  1.361279E-02  5.000000E-01  8.750649E-01  1.373133E-02  0.000000E+00  6.358146E-03 -1.839358E-04  2.876174E-19  3.627127E-01  0.000000E+00
  8.775420E-01  1.321910E-02  5.000000E-01  8.864042E-01  1.333367E-02  0.000000E+00  6.528762E-03 -2.637997E-04  6.690022E-20  3.587870E-01  0.000000E+00
  8.881660E-01  1.273449E-02  5.000000E-01  8.971355E-01  1.284417E-02  0.000000E+00  6.694284E-03 -3.349938E-04 -4.693933E-19  3.539076E-01  0.000000E+00
  8.981970E-01  1.218907E-02  5.000000E-01  9.072678E-01  1.229324E-02  0.000000E+00  6.846456E-03 -3.996525E-04 -3.797485E-19  3.487886E-01  0.000000E+00
  9.076460E-01  1.160088E-02  5.000000E-01  9.168123E-01  1.169911E-02  0.000000E+00  6.989334E-03 -4.648570E-04  1.029307E-19  3.443284E-01  0.000000E+00
  9.165220E-01  1.097378E-02  5.000000E-01  9.257779E-01  1.106567E-02  0.000000E+00  7.134570E-03 -5.364712E-04  1.370363E-19  3.403777E-01  0.000000E+00
  9.165220E-01  1.097378E-02  5.000000E-01  9.257779E-01  1.106567E-02  0.000000E+00  7.134570E-03 -5.364712E-04  1.370363E-19  3.403777E-01  0.000000E+00
  9.248360E-01  1.031143E-02  5.000000E-01  9.341759E-01  1.039664E-02  0.000000E+00  7.292796E-03 -6.154965E-04 -3.522483E-19  3.358845E-01  0.000000E+00
  9.325990E-01  9.620170E-03  5.000000E-01  9.420173E-01  9.698394E-03  0.000000E+00  7.470978E-03 -7.015942E-04 -4.642699E-19  3.303358E-01  0.000000E+00
  9.398210E-01  8.907695E-03  5.000000E-01  9.493122E-01  8.978723E-03  0.000000E+00  7.673851E-03 -7.946926E-04 -3.640853E-19  3.237163E-01  0.000000E+00
  9.465130E-01  8.182761E-03  5.000000E-01  9.560718E-01  8.246468E-03  0.000000E+00  7.904547E-03 -8.947590E-04 -5.604965E-19  3.160152E-01  0.000000E+00
  9.526870E-01  7.454736E-03  5.000000E-01  9.623081E-01  7.511091E-03  0.000000E+00  8.164542E-03 -1.001703E-03  8.164639E-20  3.071874E-01  0.000000E+00
  9.583540E-01  6.733293E-03  5.000000E-01  9.680324E-01  6.782362E-03  0.000000E+00  8.454079E-03 -1.115324E-03  1.753355E-19  2.972180E-01  0.000000E+00
  9.635240E-01  6.028151E-03  5.000000E-01  9.732546E-01  6.070099E-03  0.000000E+00  8.773036E-03 -1.235201E-03 -2.973276E-19  2.860977E-01  0.000000E+00
  9.682080E-01  5.348786E-03  5.000000E-01  9.779859E-01  5.383874E-03  0.000000E+00  9.122938E-03 -1.361252E-03  3.997846E-20  2.738874E-01  0.000000E+00
  9.724140E-01  4.704334E-03  5.000000E-01  9.822344E-01  4.732913E-03  0.000000E+00  9.509521E-03 -1.493928E-03 -1.057550E-19  2.606821E-01  0.000000E+00
  9.761510E-01  4.103360E-03  5.000000E-01  9.860091E-01  4.125870E-03  0.000000E+00  9.942671E-03 -1.633852E-03 -1.731139E-19  2.465277E-01  0.000000E+00
  9.794290E-01  3.553665E-03  5.000000E-01  9.893202E-01  3.570624E-03  0.000000E+00  1.042865E-02 -1.781691E-03  5.948186E-21  2.315106E-01  0.000000E+00
  9.822540E-01  3.062427E-03  5.000000E-01  9.921737E-01  3.074425E-03  0.000000E+00  1.095025E-02 -1.934939E-03  9.601284E-20  2.159551E-01  0.000000E+00
  9.846330E-01  2.635906E-03  5.000000E-01  9.945768E-01  2.643596E-03  0.000000E+00  1.144557E-02 -2.079924E-03  8.550842E-19  2.011633E-01  0.000000E+00
  9.865710E-01  2.279506E-03  5.000000E-01  9.965343E-01  2.283597E-03  0.000000E+00  1.176773E-02 -2.177128E-03  2.049134E-18  1.860035E-01  0.000000E+00
  9.880740E-01  1.997629E-03  5.000000E-01  9.980525E-01  1.998873E-03  0.000000E+00  1.168395E-02 -2.211167E-03 -2.690145E-18  1.645305E-01  0.000000E+00
  9.891450E-01  1.793776E-03  5.000000E-01  9.991343E-01  1.792962E-03  0.000000E+00  1.185693E-02 -2.348021E-03 -2.595355E-17  1.642073E-01  0.000000E+00
  9.897860E-01  1.670481E-03  5.000000E-01  9.997818E-01  1.668422E-03  0.000000E+00  1.510849E-02 -2.432505E-03 -7.234603E-17  2.090696E-01  0.000000E+00
  9.900000E-01  1.629201E-03  5.000000E-01  9.999980E-01  1.626725E-03  0.000000E+00  1.049062E-02 -4.866198E-03 -7.640641E-17 -3.479870E-02  0.000000E+00
  9.900000E-01  1.707911E-03  5.000000E-01  9.999980E-01  1.706230E-03  0.000000E+00  1.046597E-03 -1.518911E-02  6.386559E-18 -1.708646E-01  0.000000E+00
  9.900000E-01  1.786631E-03  5.000000E-01  9.999980E-01  1.785745E-03  0.000000E+00 -5.244276E-04 -1.454630E-02  8.784063E-17  2.919619E-03  0.000000E+00
  9.900000E-01  1.865351E-03  5.000000E-01  9.999980E-01  1.865260E-03  0.000000E+00 -2.698974E-04  1.151777E-03  1.057407E-16 -2.136650E-03  0.000000E+00
  9.900000E-01  1.944061E-03  5.000000E-01  9.999980E-01  1.944765E-03  0.000000E+00  6.557677E-04  2.891899E-03  1.296755E-16 -1.102041E-01  0.000000E+00
  9.900000E-01  2.022781E-03  5.000000E-01  9.999980E-01  2.024280E-03  0.000000E+00  5.286928E-03 -2.727276E-03  1.601953E-16 -2.294596E-02  0.000000E+00
  9.900000E-01  2.022781E-03  5.000000E-01  9.999980E-01  2.024280E-03  0.000000E+00  5.286928E-03 -2.727276E-03  1.601953E-16 -2.294596E-02  0.000000E+00
  9.897900E-01  2.073867E-03  5.000000E-01  9.997858E-01  2.075881E-03  0.000000E+00  6.763580E-03 -1.948892E-03  1.134930E-16  1.059362E-01  0.000000E+00
  9.891580E-01  2.227207E-03  5.000000E-01  9.991474E-01  2.230770E-03  0.000000E+00  3.979728E-03 -9.091167E-04  3.850152E-17  6.648511E-02  0.000000E+00
  9.881040E-01  2.482848E-03  5.000000E-01  9.980828E-01  2.488992E-03  0.000000E+00  3.172983E-03 -7.676552E-04  4.074331E-18  5.723445E-02  0.000000E+00
  9.866260E-01  2.840914E-03  5.000000E-01  9.965899E-01  2.850675E-03  0.000000E+00  2.920608E-03 -7.123191E-04 -3.761993E-18  5.882452E-02  0.000000E+00
  9.847200E-01  3.301590E-03  5.000000E-01  9.946646E-01  3.316003E-03  0.000000E+00  2.796337E-03 -6.745417E-04 -3.077063E-18  5.374951E-02  0.000000E+00
  9.823820E-01  3.865000E-03  5.000000E-01  9.923030E-01  3.885103E-03  0.000000E+00  2.818086E-03 -6.773208E-04 -1.574419E-18  4.570347E-02  0.000000E+00
  9.796080E-01  4.531153E-03  5.000000E-01  9.895010E-01  4.557983E-03  0.000000E+00  2.961675E-03 -7.095014E-04 -1.165534E-18  3.658583E-02  0.000000E+00
  9.763910E-01  5.299990E-03  5.000000E-01  9.862515E-01  5.334585E-03  0.000000E+00  3.184672E-03 -7.590757E-04 -7.430480E-19  2.589082E-02  0.000000E+00
  9.727270E-01  6.171029E-03  5.000000E-01  9.825505E-01  6.214421E-03  0.000000E+00  3.459495E-03 -8.194101E-04 -2.609947E-20  1.340079E-02  0.000000E+00
  9.686070E-01  7.143649E-03  5.000000E-01  9.783889E-01  7.196863E-03  0.000000E+00  3.771347E-03 -8.864511E-04  4.470727E-20 -7.852692E-04  0.000000E+00
  9.640240E-01  8.216605E-03  5.000000E-01  9.737596E-01  8.280655E-03  0.000000E+00  4.113957E-03 -9.579624E-04  1.191634E-19 -1.663386E-02  0.000000E+00
  9.589680E-01  9.388108E-03  5.000000E-01  9.686526E-01  9.463988E-03  0.000000E+00  4.486714E-03 -1.033016E-03 -2.661814E-20 -3.412747E-02  0.000000E+00
  9.534310E-01  1.065546E-02  5.000000E-01  9.630596E-01  1.074414E-02  0.000000E+00  4.891536E-03 -1.111056E-03 -2.678711E-20 -5.324768E-02  0.000000E+00
  9.474030E-01  1.201499E-02  5.000000E-01  9.569708E-01  1.211740E-02  0.000000E+00  5.330412E-03 -1.191049E-03  2.438192E-19 -7.388018E-02  0.000000E+00
  9.408720E-01  1.346176E-02  5.000000E-01  9.503738E-01  1.357878E-02  0.000000E+00  5.803926E-03 -1.271570E-03 -3.870088E-19 -9.593526E-02  0.000000E+00
  9.338280E-01  1.498920E-02  5.000000E-01  9.432587E-01  1.512164E-02  0.000000E+00  6.311264E-03 -1.350633E-03 -1.060831E-18 -1.192924E-01  0.000000E+00
  9.262600E-01  1.658898E-02  5.000000E-01  9.356142E-01  1.673758E-02  0.000000E+00  6.849847E-03 -1.425177E-03 -3.403513E-19 -1.437039E-01  0.000000E+00
  9.181550E-01  1.825029E-02  5.000000E-01  9.274274E-01  1.841567E-02  0.000000E+00  7.414396E-03 -1.491365E-03  6.672811E-19 -1.688837E-01  0.000000E+00
  9.095020E-01  1.995992E-02  5.000000E-01  9.186870E-01  2.014257E-02  0.000000E+00  7.996108E-03 -1.544305E-03  2.929710E-19 -1.942372E-01  0.000000E+00
  9.002880E-01  2.170136E-02  5.000000E-01  9.093800E-01  2.190159E-02  0.000000E+00  8.580448E-03 -1.578185E-03  3.993596E-19 -2.186896E-01  0.000000E+00
  8.905020E-01  2.345498E-02  5.000000E-01  8.994951E-01  2.367292E-02  0.000000E+00  9.145585E-03 -1.588423E-03  1.165946E-18 -2.411734E-01  0.000000E+00
  8.801320E-01  2.520217E-02  5.000000E-01  8.890204E-01  2.543776E-02  0.000000E+00  9.664614E-03 -1.572924E-03  7.267326E-19 -2.609342E-01  0.000000E+00
  8.691700E-01  2.692638E-02  5.000000E-01  8.779477E-01  2.717938E-02  0.000000E+00  1.010908E-02 -1.530574E-03 -3.796781E-19 -2.772245E-01  0.000000E+00
  8.691700E-01  2.692638E-02  5.000000E-01  8.779477E-01  2.717938E-02  0.000000E+00  1.010908E-02 -1.530574E-03 -3.796781E-19 -2.772245E-01  0.000000E+00
  8.576080E-01  2.861145E-02  5.000000E-01  8.662689E-01  2.888147E-02  0.000000E+00  1.044992E-02 -1.461068E-03 -2.711671E-19 -2.891082E-01  0.000000E+00
  8.454380E-01  3.024263E-02  5.000000E-01  8.539760E-01  3.052912E-02  0.000000E+00  1.065817E-02 -1.367437E-03  4.754282E-19 -2.954928E-01  0.000000E+00
  8.326580E-01  3.181007E-02  5.000000E-01  8.410670E-01  3.211239E-02  0.000000E+00  1.070906E-02 -1.257530E-03  9.282470E-19 -2.948982E-01  0.000000E+00
  8.192630E-01  3.331388E-02  5.000000E-01  8.275367E-01  3.363138E-02  0.000000E+00  1.058861E-02 -1.146081E-03  9.300356E-19 -2.863366E-01  0.000000E+00
  8.052550E-01  3.477430E-02  5.000000E-01  8.133872E-01  3.510655E-02  0.000000E+00  1.030414E-02 -1.054730E-03  2.786156E-19 -2.717285E-01  0.000000E+00
  7.906370E-01  3.624218E-02  5.000000E-01  7.986216E-01  3.658925E-02  0.000000E+00  9.897754E-03 -1.006257E-03 -2.439091E-19 -2.576670E-01  0.000000E+00
  7.754120E-01  3.780721E-02  5.000000E-01  7.832428E-01  3.817010E-02  0.000000E+00  9.453203E-03 -1.007715E-03 -5.159324E-19 -2.513336E-01  0.000000E+00
  7.595880E-01  3.955611E-02  5.000000E-01  7.672590E-01  3.993666E-02  0.000000E+00  9.075574E-03 -1.038962E-03 -9.703322E-21 -2.536225E-01  0.000000E+00
  7.431760E-01  4.150318E-02  5.000000E-01  7.506813E-01  4.190339E-02  0.000000E+00  8.842082E-03 -1.082076E-03  1.273110E-18 -2.633702E-01  0.000000E+00
  7.261880E-01  4.364616E-02  5.000000E-01  7.335217E-01  4.406801E-02  0.000000E+00  8.786039E-03 -1.136207E-03  1.216755E-18 -2.814926E-01  0.000000E+00
  7.086430E-01  4.596944E-02  5.000000E-01  7.157995E-01  4.641476E-02  0.000000E+00  8.913576E-03 -1.199271E-03 -7.144244E-19 -3.078373E-01  0.000000E+00
  6.905640E-01  4.843845E-02  5.000000E-01  6.975380E-01  4.890869E-02  0.000000E+00  9.209872E-03 -1.263445E-03 -2.104095E-18 -3.403872E-01  0.000000E+00
  6.719770E-01  5.099969E-02  5.000000E-01  6.787633E-01  5.149580E-02  0.000000E+00  9.641522E-03 -1.318252E-03 -8.824948E-19 -3.755487E-01  0.000000E+00
  6.529150E-01  5.358813E-02  5.000000E-01  6.595088E-01  5.411038E-02  0.000000E+00  1.015952E-02 -1.357910E-03  5.854632E-19 -4.106783E-01  0.000000E+00
  6.334180E-01  5.615501E-02  5.000000E-01  6.398149E-01  5.670319E-02  0.000000E+00  1.071292E-02 -1.385194E-03 -1.738689E-19 -4.463730E-01  0.000000E+00
  6.135280E-01  5.868145E-02  5.000000E-01  6.197240E-01  5.925514E-02  0.000000E+00  1.127025E-02 -1.401416E-03 -1.116976E-18 -4.840377E-01  0.000000E+00
  5.932910E-01  6.114526E-02  5.000000E-01  5.992826E-01  6.174383E-02  0.000000E+00  1.182154E-02 -1.401307E-03 -4.036665E-19 -5.233254E-01  0.000000E+00
  5.727570E-01  6.351585E-02  5.000000E-01  5.785412E-01  6.413836E-02  0.000000E+00  1.236329E-02 -1.378116E-03  3.710907E-19 -5.617663E-01  0.000000E+00
  5.519810E-01  6.575418E-02  5.000000E-01  5.575554E-01  6.639929E-02  0.000000E+00  1.288500E-02 -1.327788E-03  3.170205E-19 -5.958921E-01  0.000000E+00
  5.310180E-01  6.782156E-02  5.000000E-01  5.363807E-01  6.848755E-02  0.000000E+00  1.336302E-02 -1.260350E-03  2.949085E-19 -6.261772E-01  0.000000E+00
  5.099250E-01  6.972209E-02  5.000000E-01  5.150747E-01  7.040728E-02  0.000000E+00  1.378420E-02 -1.193979E-03 -2.796517E-19 -6.571243E-01  0.000000E+00
  4.887640E-01  7.148206E-02  5.000000E-01  4.937000E-01  7.218502E-02  0.000000E+00  1.417340E-02 -1.130051E-03 -1.103964E-18 -6.908604E-01  0.000000E+00
  4.675910E-01  7.309978E-02  5.000000E-01  4.723132E-01  7.381908E-02  0.000000E+00  1.457444E-02 -1.056384E-03 -6.653261E-19 -7.264595E-01  0.000000E+00
  7.860720E-05 -7.390577E-04  5.000000E-01  7.940613E-05 -7.654509E-04  0.000000E+00 -5.545633E-03  2.533839E-02  2.444808E-17  7.868655E-01  0.000000E+00
  3.989240E-04 -1.643199E-03  5.000000E-01  4.029578E-04 -1.678724E-03  0.000000E+00 -6.281043E-03  1.390043E-02  9.817789E-18  1.020622E+00  0.000000E+00
  1.196920E-03 -2.769537E-03  5.000000E-01  1.209013E-03 -2.816436E-03  0.000000E+00 -3.014469E-03  4.175178E-03  3.745241E-18  1.092714E+00  0.000000E+00
  2.563580E-03 -3.985268E-03  5.000000E-01  2.589475E-03 -4.044445E-03  0.000000E+00  1.942915E-03 -1.197702E-03 -2.049785E-18  1.019389E+00  0.000000E+00
  4.492740E-03 -5.223416E-03  5.000000E-01  4.538117E-03 -5.295097E-03  0.000000E+00  6.069930E-03 -3.382635E-03 -2.389469E-18  9.099529E-01  0.000000E+00
  6.952190E-03 -6.469832E-03  5.000000E-01  7.022405E-03 -6.554100E-03  0.000000E+00  8.849501E-03 -4.115841E-03 -1.551628E-18  8.134326E-01  0.000000E+00
  9.910730E-03 -7.746802E-03  5.000000E-01  1.001082E-02 -7.843966E-03  0.000000E+00  1.067918E-02 -4.362846E-03 -2.425292E-18  7.320549E-01  0.000000E+00
  1.334950E-02 -9.082830E-03  5.000000E-01  1.348432E-02 -9.193486E-03  0.000000E+00  1.197482E-02 -4.377951E-03 -3.206647E-18  6.507783E-01  0.000000E+00
  1.728780E-02 -1.044284E-02  5.000000E-01  1.746239E-02 -1.056723E-02  0.000000E+00  1.290211E-02 -4.110157E-03 -3.401346E-18  5.596659E-01  0.000000E+00
  2.175590E-02 -1.175402E-02  5.000000E-01  2.197562E-02 -1.189165E-02  0.000000E+00  1.349176E-02 -3.601043E-03 -2.393743E-18  4.707675E-01  0.000000E+00
  2.676920E-02 -1.296143E-02  5.000000E-01  2.703955E-02 -1.311125E-02  0.000000E+00  1.380872E-02 -3.011931E-03 -1.236035E-18  4.008427E-01  0.000000E+00
  3.232800E-02 -1.404779E-02  5.000000E-01  3.265448E-02 -1.420859E-02  0.000000E+00  1.395544E-02 -2.475295E-03 -2.738968E-19  3.537047E-01  0.000000E+00
  3.842930E-02 -1.502040E-02  5.000000E-01  3.881740E-02 -1.519102E-02  0.000000E+00  1.401124E-02 -2.041541E-03  5.214929E-19  3.223509E-01  0.000000E+00
  4.507220E-02 -1.589769E-02  5.000000E-01  4.552739E-02 -1.607717E-02  0.000000E+00  1.403664E-02 -1.730013E-03  7.921594E-19  3.005311E-01  0.000000E+00
  5.225680E-02 -1.671932E-02  5.000000E-01  5.278454E-02 -1.690710E-02  0.000000E+00  1.408909E-02 -1.541039E-03  3.305313E-19  2.842725E-01  0.000000E+00
  5.998640E-02 -1.752696E-02  5.000000E-01  6.059220E-02 -1.772290E-02  0.000000E+00  1.418430E-02 -1.421153E-03  6.562903E-20  2.661794E-01  0.000000E+00
  6.827110E-02 -1.832309E-02  5.000000E-01  6.896057E-02 -1.852706E-02  0.000000E+00  1.429343E-02 -1.309446E-03  4.165787E-19  2.423131E-01  0.000000E+00
  7.712280E-02 -1.909454E-02  5.000000E-01  7.790166E-02 -1.930630E-02  0.000000E+00  1.438909E-02 -1.189390E-03  8.471054E-19  2.165727E-01  0.000000E+00
  8.655260E-02 -1.983110E-02  5.000000E-01  8.742669E-02 -2.005031E-02  0.000000E+00  1.445324E-02 -1.059123E-03  9.975741E-19  1.924232E-01  0.000000E+00
  9.657140E-02 -2.051720E-02  5.000000E-01  9.754667E-02 -2.074333E-02  0.000000E+00  1.446100E-02 -9.052259E-04  2.549847E-19  1.694367E-01  0.000000E+00
  1.071900E-01 -2.111987E-02  5.000000E-01  1.082725E-01 -2.135209E-02  0.000000E+00  1.439481E-02 -7.252770E-04 -4.537545E-19  1.482151E-01  0.000000E+00
  1.184180E-01 -2.161298E-02  5.000000E-01  1.196139E-01 -2.185018E-02  0.000000E+00  1.426720E-02 -5.430600E-04 -3.537678E-19  1.319928E-01  0.000000E+00
  1.302610E-01 -2.199301E-02  5.000000E-01  1.315765E-01 -2.223405E-02  0.000000E+00  1.410440E-02 -3.810393E-04 -4.361089E-19  1.214899E-01  0.000000E+00
  1.427230E-01 -2.226555E-02  5.000000E-01  1.441644E-01 -2.250934E-02  0.000000E+00  1.392090E-02 -2.455447E-04 -1.227912E-19  1.145760E-01  0.000000E+00
  1.427230E-01 -2.226555E-02  5.000000E-01  1.441644E-01 -2.250934E-02  0.000000E+00  1.392090E-02 -2.455447E-04 -1.227912E-19  1.145760E-01  0.000000E+00
  1.558070E-01 -2.244053E-02  5.000000E-01  1.573805E-01 -2.268609E-02  0.000000E+00  1.371055E-02 -1.274686E-04  2.108806E-19  1.087429E-01  0.000000E+00
  1.695140E-01 -2.251186E-02  5.000000E-01  1.712259E-01 -2.275814E-02  0.000000E+00  1.345658E-02 -1.110084E-05  4.359965E-19  1.028166E-01  0.000000E+00
  1.838420E-01 -2.245991E-02  5.000000E-01  1.856986E-01 -2.270566E-02  0.000000E+00  1.315652E-02  1.079774E-04  2.346176E-19  9.820505E-02  0.000000E+00
  1.987870E-01 -2.226680E-02  5.000000E-01  2.007945E-01 -2.251060E-02  0.000000E+00  1.283753E-02  2.184441E-04 -3.097341E-19  9.719330E-02  0.000000E+00
  2.143420E-01 -2.193582E-02  5.000000E-01  2.165066E-01 -2.217628E-02  0.000000E+00  1.255191E-02  2.996724E-04  4.269761E-19  1.009460E-01  0.000000E+00
  2.304940E-01 -2.150674E-02  5.000000E-01  2.328217E-01 -2.174286E-02  0.000000E+00  1.234852E-02  3.401550E-04  4.042966E-19  1.073556E-01  0.000000E+00
  2.472290E-01 -2.102926E-02  5.000000E-01  2.497258E-01 -2.126056E-02  0.000000E+00  1.224473E-02  3.465247E-04 -2.794074E-19  1.122909E-01  0.000000E+00
  2.645310E-01 -2.054453E-02  5.000000E-01  2.672025E-01 -2.077094E-02  0.000000E+00  1.221459E-02  3.438292E-04 -1.724598E-19  1.120107E-01  0.000000E+00
  2.823750E-01 -2.004160E-02  5.000000E-01  2.852267E-01 -2.026293E-02  0.000000E+00  1.219965E-02  3.640903E-04  2.561653E-19  1.053400E-01  0.000000E+00
  3.007320E-01 -1.946379E-02  5.000000E-01  3.037691E-01 -1.967928E-02  0.000000E+00  1.214262E-02  4.209514E-04  3.242980E-19  9.591857E-02  0.000000E+00
  3.195690E-01 -1.874965E-02  5.000000E-01  3.227963E-01 -1.895793E-02  0.000000E+00  1.200770E-02  5.073305E-04  3.752069E-20  8.876966E-02  0.000000E+00
  3.388440E-01 -1.784947E-02  5.000000E-01  3.422660E-01 -1.804866E-02  0.000000E+00  1.178455E-02  6.030591E-04 -2.040838E-19  8.727811E-02  0.000000E+00
  3.585140E-01 -1.675184E-02  5.000000E-01  3.621346E-01 -1.693994E-02  0.000000E+00  1.148073E-02  6.866728E-04 -4.570174E-20  9.232353E-02  0.000000E+00
  3.785290E-01 -1.547216E-02  5.000000E-01  3.823517E-01 -1.564734E-02  0.000000E+00  1.110711E-02  7.493147E-04  5.416968E-19  1.019789E-01  0.000000E+00
  3.988350E-01 -1.402843E-02  5.000000E-01  4.028628E-01 -1.418903E-02  0.000000E+00  1.067873E-02  7.910731E-04  9.064098E-19  1.144584E-01  0.000000E+00
  4.193750E-01 -1.244332E-02  5.000000E-01  4.236102E-01 -1.258792E-02  0.000000E+00  1.022164E-02  8.177385E-04  4.588533E-19  1.288979E-01  0.000000E+00
  4.400850E-01 -1.072581E-02  5.000000E-01  4.445294E-01 -1.085306E-02  0.000000E+00  9.778886E-03  8.327214E-04 -1.140299E-18  1.450752E-01  0.000000E+00
  4.609060E-01 -8.904029E-03  5.000000E-01  4.655607E-01 -9.012880E-03  0.000000E+00  9.411637E-03  8.235680E-04 -1.705320E-18  1.639358E-01  0.000000E+00
  4.818030E-01 -7.072510E-03  5.000000E-01  4.866687E-01 -7.162864E-03  0.000000E+00  9.176904E-03  7.704538E-04 -7.566571E-19  1.854523E-01  0.000000E+00
  5.027520E-01 -5.390840E-03  5.000000E-01  5.078293E-01 -5.464211E-03  0.000000E+00  9.080648E-03  6.809578E-04 -2.646490E-19  2.041438E-01  0.000000E+00
  5.237130E-01 -3.934551E-03  5.000000E-01  5.290019E-01 -3.993215E-03  0.000000E+00  9.055629E-03  6.018457E-04 -8.662601E-19  2.115736E-01  0.000000E+00
  5.446170E-01 -2.614341E-03  5.000000E-01  5.501171E-01 -2.659673E-03  0.000000E+00  9.009138E-03  5.724011E-04 -4.136413E-19  2.076346E-01  0.000000E+00
  5.653940E-01 -1.284704E-03  5.000000E-01  5.711039E-01 -1.316607E-03  0.000000E+00  8.895191E-03  5.808394E-04  1.168982E-18  2.036170E-01  0.000000E+00
  4.675910E-01  7.309978E-02  5.000000E-01  4.723132E-01  7.381908E-02  0.000000E+00  1.457444E-02 -1.056384E-03 -6.653261E-19 -7.264595E-01  0.000000E+00
  4.464640E-01  7.455067E-02  5.000000E-01  4.509728E-01  7.528462E-02  0.000000E+00  1.501671E-02 -9.703333E-04  5.527958E-19 -7.644559E-01  0.000000E+00
  4.254410E-01  7.582576E-02  5.000000E-01  4.297375E-01  7.657259E-02  0.000000E+00  1.551844E-02 -8.727340E-04  4.124966E-19 -8.059556E-01  0.000000E+00
  4.045840E-01  7.690953E-02  5.000000E-01  4.086699E-01  7.766730E-02  0.000000E+00  1.609521E-02 -7.571559E-04 -4.696404E-19 -8.506367E-01  0.000000E+00
  3.839530E-01  7.778234E-02  5.000000E-01  3.878305E-01  7.854893E-02  0.000000E+00  1.675570E-02 -6.153648E-04 -4.616826E-19 -8.977508E-01  0.000000E+00
  3.636060E-01  7.842087E-02  5.000000E-01  3.672780E-01  7.919391E-02  0.000000E+00  1.750173E-02 -4.398457E-04 -9.339827E-20 -9.467487E-01  0.000000E+00
  3.435960E-01  7.880409E-02  5.000000E-01  3.470660E-01  7.958099E-02  0.000000E+00  1.833006E-02 -2.245660E-04  3.365684E-20 -9.978506E-01  0.000000E+00
  3.239710E-01  7.891460E-02  5.000000E-01  3.272428E-01  7.969262E-02  0.000000E+00  1.923679E-02  3.737193E-05  5.483152E-19 -1.051340E+00  0.000000E+00
  3.047740E-01  7.873796E-02  5.000000E-01  3.078519E-01  7.951420E-02  0.000000E+00  2.021843E-02  3.596015E-04  6.478228E-19 -1.105415E+00  0.000000E+00
  2.860450E-01  7.825173E-02  5.000000E-01  2.889338E-01  7.902306E-02  0.000000E+00  2.125714E-02  7.596531E-04 -1.171619E-19 -1.155567E+00  0.000000E+00
  2.678190E-01  7.743091E-02  5.000000E-01  2.705237E-01  7.819395E-02  0.000000E+00  2.229868E-02  1.241477E-03 -5.124921E-19 -1.196860E+00  0.000000E+00
  2.501300E-01  7.626613E-02  5.000000E-01  2.526561E-01  7.701741E-02  0.000000E+00  2.325778E-02  1.789508E-03 -3.389283E-19 -1.224784E+00  0.000000E+00
  2.330040E-01  7.476581E-02  5.000000E-01  2.353571E-01  7.550193E-02  0.000000E+00  2.404641E-02  2.378802E-03 -7.424130E-19 -1.234373E+00  0.000000E+00
  2.164660E-01  7.294935E-02  5.000000E-01  2.186521E-01  7.366713E-02  0.000000E+00  2.459263E-02  2.977493E-03 -5.900124E-19 -1.221829E+00  0.000000E+00
  2.005340E-01  7.084605E-02  5.000000E-01  2.025592E-01  7.154259E-02  0.000000E+00  2.484750E-02  3.529730E-03  1.953238E-20 -1.190289E+00  0.000000E+00
  1.852230E-01  6.851842E-02  5.000000E-01  1.870936E-01  6.919145E-02  0.000000E+00  2.482236E-02  3.977531E-03  4.872052E-19 -1.151009E+00  0.000000E+00
  1.705440E-01  6.604457E-02  5.000000E-01  1.722663E-01  6.669262E-02  0.000000E+00  2.462198E-02  4.315352E-03  7.898378E-19 -1.117884E+00  0.000000E+00
  1.565000E-01  6.348576E-02  5.000000E-01  1.580805E-01  6.410797E-02  0.000000E+00  2.440968E-02  4.588117E-03 -1.076720E-18 -1.103440E+00  0.000000E+00
  1.430940E-01  6.088476E-02  5.000000E-01  1.445391E-01  6.148070E-02  0.000000E+00  2.436306E-02  4.881479E-03 -2.595938E-18 -1.111104E+00  0.000000E+00
  1.303270E-01  5.824464E-02  5.000000E-01  1.316432E-01  5.881392E-02  0.000000E+00  2.461885E-02  5.318957E-03 -1.104382E-18 -1.126889E+00  0.000000E+00
  1.182110E-01  5.551824E-02  5.000000E-01  1.194048E-01  5.605999E-02  0.000000E+00  2.515585E-02  5.965359E-03  1.001924E-18 -1.129200E+00  0.000000E+00
  1.067560E-01  5.267044E-02  5.000000E-01  1.078341E-01  5.318343E-02  0.000000E+00  2.576558E-02  6.768677E-03  7.768219E-19 -1.104547E+00  0.000000E+00
  9.596750E-02  4.968964E-02  5.000000E-01  9.693667E-02  5.017253E-02  0.000000E+00  2.616134E-02  7.545159E-03 -1.690659E-18 -1.062048E+00  0.000000E+00
  8.582800E-02  4.664066E-02  5.000000E-01  8.669478E-02  4.709275E-02  0.000000E+00  2.621127E-02  8.125567E-03 -2.329389E-18 -1.024616E+00  0.000000E+00
  8.582800E-02  4.664066E-02  5.000000E-01  8.669478E-02  4.709275E-02  0.000000E+00  2.621127E-02  8.125567E-03 -2.329389E-18 -1.024616E+00  0.000000E+00
  7.631050E-02  4.359931E-02  5.000000E-01  7.708116E-02  4.402069E-02  0.000000E+00  2.606745E-02  8.600525E-03 -1.995514E-18 -9.965117E-01  0.000000E+00
  6.740780E-02  4.056979E-02  5.000000E-01  6.808855E-02  4.096057E-02  0.000000E+00  2.593456E-02  9.148520E-03 -1.981404E-18 -9.674898E-01  0.000000E+00
  5.911740E-02  3.754239E-02  5.000000E-01  5.971443E-02  3.790260E-02  0.000000E+00  2.586958E-02  9.802516E-03 -4.577690E-19 -9.325754E-01  0.000000E+00
  5.143150E-02  3.452463E-02  5.000000E-01  5.195091E-02  3.485436E-02  0.000000E+00  2.582535E-02  1.051504E-02 -3.532444E-19 -8.921293E-01  0.000000E+00
  4.433770E-02  3.153328E-02  5.000000E-01  4.478547E-02  3.183281E-02  0.000000E+00  2.573336E-02  1.124496E-02  8.559704E-19 -8.495337E-01  0.000000E+00
  3.782240E-02  2.858587E-02  5.000000E-01  3.820437E-02  2.885563E-02  0.000000E+00  2.555404E-02  1.198749E-02  1.253125E-18 -8.094614E-01  0.000000E+00
  3.187460E-02  2.569418E-02  5.000000E-01  3.219650E-02  2.593473E-02  0.000000E+00  2.529446E-02  1.277199E-02 -1.735848E-18 -7.742743E-01  0.000000E+00
  2.648400E-02  2.286897E-02  5.000000E-01  2.675147E-02  2.308100E-02  0.000000E+00  2.498712E-02  1.368539E-02 -3.642017E-18 -7.336247E-01  0.000000E+00
  2.164990E-02  2.010771E-02  5.000000E-01  2.186855E-02  2.029184E-02  0.000000E+00  2.457881E-02  1.478916E-02 -4.747547E-18 -6.640823E-01  0.000000E+00
  1.737670E-02  1.740659E-02  5.000000E-01  1.755219E-02  1.756345E-02  0.000000E+00  2.386695E-02  1.585367E-02 -5.987237E-18 -5.597846E-01  0.000000E+00
  1.364080E-02  1.480046E-02  5.000000E-01  1.377856E-02  1.493100E-02  0.000000E+00  2.271496E-02  1.646299E-02 -7.589367E-18 -4.489062E-01  0.000000E+00
  1.039090E-02  1.234894E-02  5.000000E-01  1.049584E-02  1.245472E-02  0.000000E+00  2.126353E-02  1.655827E-02 -9.735391E-18 -3.636445E-01  0.000000E+00
  7.586340E-03  1.009010E-02  5.000000E-01  7.662959E-03  1.017307E-02  0.000000E+00  1.981362E-02  1.664200E-02 -1.138682E-17 -3.062756E-01  0.000000E+00
  5.226210E-03  8.020896E-03  5.000000E-01  5.278994E-03  8.082969E-03  0.000000E+00  1.858693E-02  1.735335E-02 -1.509485E-17 -2.577863E-01  0.000000E+00
  3.324300E-03  6.130509E-03  5.000000E-01  3.357877E-03  6.173491E-03  0.000000E+00  1.760257E-02  1.911551E-02 -2.521538E-17 -2.012781E-01  0.000000E+00
  1.883580E-03  4.426892E-03  5.000000E-01  1.902607E-03  4.452669E-03  0.000000E+00  1.654219E-02  2.218578E-02 -3.853931E-17 -1.149044E-01  0.000000E+00
  8.951490E-04  2.934444E-03  5.000000E-01  9.041941E-04  2.945149E-03  0.000000E+00  1.460014E-02  2.634512E-02 -4.517012E-17  2.799702E-02  0.000000E+00
  3.201820E-04  1.697696E-03  5.000000E-01  3.234206E-04  1.695911E-03  0.000000E+00  1.096419E-02  3.019682E-02 -4.096170E-17  2.280636E-01  0.000000E+00
  6.852390E-05  7.729907E-04  5.000000E-01  6.922100E-05  7.618675E-04  0.000000E+00  6.162864E-03  3.158614E-02 -2.887254E-17  4.194203E-01  0.000000E+00
  4.217600E-06  2.077831E-04  5.000000E-01  4.265277E-06  1.909519E-04  0.000000E+00  2.148881E-03  3.077650E-02 -4.760154E-18  4.890434E-01  0.000000E+00
 -5.032520E-09  1.874030E-05  5.000000E-01  0.000000E+00  0.000000E+00  0.000000E+00 -2.576253E-04  3.212106E-02  2.830383E-17  4.693317E-01  0.000000E+00
  5.154440E-06 -1.716766E-04  5.000000E-01  5.211578E-06 -1.923399E-04  0.000000E+00 -2.604400E-03  3.244017E-02  4.100029E-17  5.509177E-01  0.000000E+00