 Title = "ADflow Slice Data"
Variables =  "CoordinateX"  "CoordinateY"  "CoordinateZ"  "XoC"  "YoC"  "ZoC" "VelocityX" "VelocityY" "VelocityZ" "CoefPressure" "Mach" 
Zone T= "Slice_0001 None Absolute Regular z = 0.50000000"
 Nodes =          192  Elements=          184  ZONETYPE=FELINESEG
 DATAPACKING=POINT
  5.653940E-01  2.295509E-02  5.000000E-01  5.711042E-01  2.311731E-02  0.000000E+00  6.240113E-03  2.888282E-05 -4.859653E-19  3.839083E-01  0.000000E+00
  5.859770E-01  2.284042E-02  5.000000E-01  5.918951E-01  2.300148E-02  0.000000E+00  7.172701E-03 -6.517476E-05 -1.033885E-18  3.504505E-01  0.000000E+00
  6.063060E-01  2.259025E-02  5.000000E-01  6.124294E-01  2.274879E-02  0.000000E+00  7.777768E-03 -6.702349E-05 -6.300306E-19  3.150269E-01  0.000000E+00
  6.263240E-01  2.249061E-02  5.000000E-01  6.326496E-01  2.264814E-02  0.000000E+00  7.865975E-03  4.006263E-05 -6.351624E-20  2.879662E-01  0.000000E+00
  6.459860E-01  2.279271E-02  5.000000E-01  6.525102E-01  2.295329E-02  0.000000E+00  7.362911E-03  2.318761E-04 -2.733022E-19  2.748808E-01  0.000000E+00
  6.652460E-01  2.374246E-02  5.000000E-01  6.719647E-01  2.391263E-02  0.000000E+00  6.387316E-03  4.082763E-04 -1.828188E-19  2.836409E-01  0.000000E+00
  6.840650E-01  2.529508E-02  5.000000E-01  6.909737E-01  2.548093E-02  0.000000E+00  5.262758E-03  4.424754E-04 -1.297066E-18  3.272241E-01  0.000000E+00
  7.024070E-01  2.688849E-02  5.000000E-01  7.095010E-01  2.709043E-02  0.000000E+00  4.338187E-03  3.316440E-04 -2.063007E-18  3.913307E-01  0.000000E+00
  7.202400E-01  2.800982E-02  5.000000E-01  7.275141E-01  2.822309E-02  0.000000E+00  3.817346E-03  1.568042E-04 -2.093214E-18  4.436204E-01  0.000000E+00
  7.375350E-01  2.829755E-02  5.000000E-01  7.449838E-01  2.851372E-02  0.000000E+00  3.779276E-03 -5.678165E-05 -1.609403E-18  4.715573E-01  0.000000E+00
  7.542690E-01  2.754296E-02  5.000000E-01  7.618868E-01  2.775151E-02  0.000000E+00  4.248762E-03 -3.572245E-04 -1.104762E-19  4.773214E-01  0.000000E+00
  7.704220E-01  2.566193E-02  5.000000E-01  7.782029E-01  2.585149E-02  0.000000E+00  5.224294E-03 -8.306081E-04  1.509923E-18  4.654414E-01  0.000000E+00
  7.859770E-01  2.267055E-02  5.000000E-01  7.939150E-01  2.282990E-02  0.000000E+00  6.656072E-03 -1.493309E-03  2.032982E-18  4.308871E-01  0.000000E+00
  8.009220E-01  1.893382E-02  5.000000E-01  8.090110E-01  1.905543E-02  0.000000E+00  8.421440E-03 -2.202587E-03  1.524380E-18  3.607799E-01  0.000000E+00
  8.152480E-01  1.504964E-02  5.000000E-01  8.234816E-01  1.513201E-02  0.000000E+00  1.034963E-02 -2.779593E-03  9.882707E-19  2.620391E-01  0.000000E+00
  8.289490E-01  1.140192E-02  5.000000E-01  8.373210E-01  1.144746E-02  0.000000E+00  1.225289E-02 -3.128443E-03 -2.290326E-19  1.572823E-01  0.000000E+00
  8.420260E-01  8.188195E-03  5.000000E-01  8.505301E-01  8.201274E-03  0.000000E+00  1.394737E-02 -3.218218E-03 -1.588963E-18  6.053371E-02  0.000000E+00
  8.544790E-01  5.482910E-03  5.000000E-01  8.631089E-01  5.468667E-03  0.000000E+00  1.528962E-02 -3.067830E-03 -2.960802E-18 -2.267934E-02  0.000000E+00
  8.663160E-01  3.290423E-03  5.000000E-01  8.750654E-01  3.254037E-03  0.000000E+00  1.620218E-02 -2.729349E-03 -3.905174E-18 -9.008027E-02  0.000000E+00
  8.775420E-01  1.580030E-03  5.000000E-01  8.864048E-01  1.526370E-03  0.000000E+00  1.667290E-02 -2.268960E-03 -2.046956E-18 -1.405028E-01  0.000000E+00
  8.881660E-01  3.047001E-04  5.000000E-01  8.971361E-01  2.381599E-04  0.000000E+00  1.673852E-02 -1.750909E-03  8.802255E-19 -1.739717E-01  0.000000E+00
  8.981970E-01 -5.884666E-04  5.000000E-01  9.072684E-01 -6.640274E-04  0.000000E+00  1.647031E-02 -1.234525E-03  9.285653E-19 -1.913096E-01  0.000000E+00
  9.076460E-01 -1.159860E-03  5.000000E-01  9.168128E-01 -1.241191E-03  0.000000E+00  1.596408E-02 -7.717623E-04 -1.113568E-18 -1.938020E-01  0.000000E+00
  9.165220E-01 -1.476977E-03  5.000000E-01  9.257785E-01 -1.561511E-03  0.000000E+00  1.531686E-02 -3.898776E-04 -1.727630E-18 -1.847565E-01  0.000000E+00
  9.165220E-01 -1.476977E-03  5.000000E-01  9.257785E-01 -1.561511E-03  0.000000E+00  1.531686E-02 -3.898776E-04 -1.727630E-18 -1.847565E-01  0.000000E+00
  9.248360E-01 -1.599518E-03  5.000000E-01  9.341764E-01 -1.685290E-03  0.000000E+00  1.460378E-02 -8.898560E-05  1.284393E-18 -1.688899E-01  0.000000E+00
  9.325990E-01 -1.576593E-03  5.000000E-01  9.420178E-01 -1.662134E-03  0.000000E+00  1.387578E-02  1.408660E-04  2.899977E-18 -1.495531E-01  0.000000E+00
  9.398210E-01 -1.448654E-03  5.000000E-01  9.493128E-01 -1.532902E-03  0.000000E+00  1.316570E-02  3.116122E-04  2.173418E-18 -1.284937E-01  0.000000E+00
  9.465130E-01 -1.248347E-03  5.000000E-01  9.560724E-01 -1.330572E-03  0.000000E+00  1.249319E-02  4.350882E-04  1.062672E-18 -1.067887E-01  0.000000E+00
  9.526870E-01 -1.001576E-03  5.000000E-01  9.623087E-01 -1.081309E-03  0.000000E+00  1.186827E-02  5.216618E-04 -4.557758E-19 -8.525516E-02  0.000000E+00
  9.583540E-01 -7.287922E-04  5.000000E-01  9.680329E-01 -8.057702E-04  0.000000E+00  1.129442E-02  5.799070E-04 -1.116411E-18 -6.447581E-02  0.000000E+00
  9.635240E-01 -4.459825E-04  5.000000E-01  9.732552E-01 -5.201042E-04  0.000000E+00  1.077116E-02  6.168756E-04 -1.235008E-18 -4.485431E-02  0.000000E+00
  9.682080E-01 -1.651598E-04  5.000000E-01  9.779865E-01 -2.364454E-04  0.000000E+00  1.029676E-02  6.379635E-04 -3.255588E-19 -2.659853E-02  0.000000E+00
  9.724140E-01  1.042256E-04  5.000000E-01  9.822349E-01  3.566072E-05  0.000000E+00  9.870378E-03  6.475367E-04  1.574723E-19 -9.805820E-03  0.000000E+00
  9.761510E-01  3.554189E-04  5.000000E-01  9.860097E-01  2.893910E-04  0.000000E+00  9.491507E-03  6.495742E-04  4.681595E-19  5.419816E-03  0.000000E+00
  9.794290E-01  5.838805E-04  5.000000E-01  9.893208E-01  5.201598E-04  0.000000E+00  9.155749E-03  6.464641E-04  7.085014E-19  1.907085E-02  0.000000E+00
  9.822540E-01  7.859220E-04  5.000000E-01  9.921743E-01  7.242419E-04  0.000000E+00  8.846871E-03  6.381910E-04 -2.404258E-19  3.129260E-02  0.000000E+00
  9.846330E-01  9.593025E-04  5.000000E-01  9.945773E-01  8.993735E-04  0.000000E+00  8.535986E-03  6.247728E-04  9.378457E-19  4.295109E-02  0.000000E+00
  9.865710E-01  1.102353E-03  5.000000E-01  9.965349E-01  1.043868E-03  0.000000E+00  8.168097E-03  6.119530E-04  3.333250E-18  5.317001E-02  0.000000E+00
  9.880740E-01  1.214414E-03  5.000000E-01  9.980531E-01  1.157061E-03  0.000000E+00  7.633735E-03  5.708426E-04 -5.433837E-19  5.570112E-02  0.000000E+00
  9.891450E-01  1.294764E-03  5.000000E-01  9.991349E-01  1.238223E-03  0.000000E+00  7.371664E-03  4.910278E-04 -1.990180E-17  6.768096E-02  0.000000E+00
  9.897860E-01  1.342951E-03  5.000000E-01  9.997824E-01  1.286897E-03  0.000000E+00  9.290365E-03  1.012238E-03 -6.000100E-17  1.152060E-01  0.000000E+00
  9.900000E-01  1.359151E-03  5.000000E-01  9.999986E-01  1.303260E-03  0.000000E+00  6.576094E-03 -1.495046E-03 -6.861195E-17 -2.749142E-02  0.000000E+00
  9.900000E-01  1.437861E-03  5.000000E-01  9.999986E-01  1.382765E-03  0.000000E+00  6.884065E-04 -1.046583E-02 -8.742364E-18 -1.079802E-01  0.000000E+00
  9.900000E-01  1.516581E-03  5.000000E-01  9.999986E-01  1.462280E-03  0.000000E+00 -3.760683E-04 -1.143048E-02  5.895909E-17  1.032479E-02  0.000000E+00
  9.900000E-01  1.595301E-03  5.000000E-01  9.999986E-01  1.541795E-03  0.000000E+00 -1.435820E-04 -2.307027E-03  9.041188E-17  6.591409E-03  0.000000E+00
  9.900000E-01  1.674011E-03  5.000000E-01  9.999986E-01  1.621300E-03  0.000000E+00  4.225470E-04 -6.759527E-04  1.158013E-16 -5.086287E-02  0.000000E+00
  9.900000E-01  1.752731E-03  5.000000E-01  9.999986E-01  1.700815E-03  0.000000E+00  2.385788E-03 -1.813969E-03  1.257909E-16  1.740797E-02  0.000000E+00
  9.900000E-01  1.752731E-03  5.000000E-01  9.999986E-01  1.700815E-03  0.000000E+00  2.385788E-03 -1.813969E-03  1.257909E-16  1.740797E-02  0.000000E+00
  9.897900E-01  1.747429E-03  5.000000E-01  9.997864E-01  1.695459E-03  0.000000E+00  2.348151E-03 -1.556902E-04  8.214680E-17  9.883220E-02  0.000000E+00
  9.891580E-01  1.731743E-03  5.000000E-01  9.991480E-01  1.679616E-03  0.000000E+00  5.401822E-04  4.934286E-05  2.821939E-17  6.834890E-02  0.000000E+00
  9.881040E-01  1.707757E-03  5.000000E-01  9.980834E-01  1.655387E-03  0.000000E+00  7.518399E-05  5.527247E-06  4.498892E-18  5.672434E-02  0.000000E+00
  9.866260E-01  1.678494E-03  5.000000E-01  9.965905E-01  1.625829E-03  0.000000E+00 -7.948347E-05 -4.727860E-06 -1.691298E-18  5.798259E-02  0.000000E+00
  9.847200E-01  1.647976E-03  5.000000E-01  9.946652E-01  1.595003E-03  0.000000E+00 -2.575119E-04 -3.739555E-06 -1.681013E-18  5.766975E-02  0.000000E+00
  9.823820E-01  1.621740E-03  5.000000E-01  9.923036E-01  1.568502E-03  0.000000E+00 -4.295718E-04 -3.046702E-06 -5.581682E-20  5.551025E-02  0.000000E+00
  9.796080E-01  1.606885E-03  5.000000E-01  9.895016E-01  1.553496E-03  0.000000E+00 -5.750127E-04 -8.798980E-07  2.631037E-19  5.279204E-02  0.000000E+00
  9.763910E-01  1.611551E-03  5.000000E-01  9.862521E-01  1.558210E-03  0.000000E+00 -6.981984E-04  3.992223E-06 -5.450744E-20  4.947830E-02  0.000000E+00
  9.727270E-01  1.646203E-03  5.000000E-01  9.825511E-01  1.593211E-03  0.000000E+00 -8.047388E-04  1.143888E-05 -7.970349E-19  4.542894E-02  0.000000E+00
  9.686070E-01  1.722258E-03  5.000000E-01  9.783895E-01  1.670034E-03  0.000000E+00 -8.978308E-04  2.137398E-05 -1.558749E-18  4.068497E-02  0.000000E+00
  9.640240E-01  1.853523E-03  5.000000E-01  9.737602E-01  1.802626E-03  0.000000E+00 -9.790466E-04  3.378939E-05 -7.751544E-19  3.534985E-02  0.000000E+00
  9.589680E-01  2.055515E-03  5.000000E-01  9.686531E-01  2.006657E-03  0.000000E+00 -1.048369E-03  4.867145E-05  6.787953E-19  2.947165E-02  0.000000E+00
  9.534310E-01  2.346500E-03  5.000000E-01  9.630602E-01  2.300581E-03  0.000000E+00 -1.104492E-03  6.589092E-05  1.946616E-19  2.310428E-02  0.000000E+00
  9.474030E-01  2.747050E-03  5.000000E-01  9.569713E-01  2.705177E-03  0.000000E+00 -1.146134E-03  8.500538E-05 -5.522567E-19  1.638711E-02  0.000000E+00
  9.408720E-01  3.280380E-03  5.000000E-01  9.503744E-01  3.243893E-03  0.000000E+00 -1.173031E-03  1.056622E-04 -2.511795E-19  9.442706E-03  0.000000E+00
  9.338280E-01  3.973174E-03  5.000000E-01  9.432592E-01  3.943684E-03  0.000000E+00 -1.186277E-03  1.275316E-04  8.638120E-19  2.402135E-03  0.000000E+00
  9.262600E-01  4.855492E-03  5.000000E-01  9.356148E-01  4.834913E-03  0.000000E+00 -1.188379E-03  1.502850E-04 -1.205982E-19 -4.602924E-03  0.000000E+00
  9.181550E-01  5.960756E-03  5.000000E-01  9.274280E-01  5.951339E-03  0.000000E+00 -1.182639E-03  1.739344E-04 -1.534592E-18 -1.151555E-02  0.000000E+00
  9.095020E-01  7.326722E-03  5.000000E-01  9.186876E-01  7.331101E-03  0.000000E+00 -1.172427E-03  1.985974E-04 -1.411287E-18 -1.825531E-02  0.000000E+00
  9.002880E-01  8.994766E-03  5.000000E-01  9.093805E-01  9.015992E-03  0.000000E+00 -1.160426E-03  2.244817E-04 -9.461522E-19 -2.473953E-02  0.000000E+00
  8.905020E-01  1.101033E-02  5.000000E-01  8.994957E-01  1.105191E-02  0.000000E+00 -1.147448E-03  2.517550E-04 -6.611202E-19 -3.089445E-02  0.000000E+00
  8.801320E-01  1.342623E-02  5.000000E-01  8.890209E-01  1.349221E-02  0.000000E+00 -1.130543E-03  2.797695E-04 -7.015280E-19 -3.676823E-02  0.000000E+00
  8.691700E-01  1.630117E-02  5.000000E-01  8.779482E-01  1.639619E-02  0.000000E+00 -1.100600E-03  3.054382E-04  9.471164E-19 -4.253412E-02  0.000000E+00
  8.691700E-01  1.630117E-02  5.000000E-01  8.779482E-01  1.639619E-02  0.000000E+00 -1.100600E-03  3.054382E-04  9.471164E-19 -4.253412E-02  0.000000E+00
  8.576080E-01  1.969275E-02  5.000000E-01  8.662695E-01  1.982202E-02  0.000000E+00 -1.040610E-03  3.214651E-04  1.229826E-18 -4.819848E-02  0.000000E+00
  8.454380E-01  2.364816E-02  5.000000E-01  8.539765E-01  2.381738E-02  0.000000E+00 -9.243887E-04  3.146197E-04 -1.004917E-18 -5.375342E-02  0.000000E+00
  8.326580E-01  2.818668E-02  5.000000E-01  8.410675E-01  2.840174E-02  0.000000E+00 -7.105543E-04  2.606706E-04 -1.745595E-18 -6.166035E-02  0.000000E+00
  8.192630E-01  3.327139E-02  5.000000E-01  8.275372E-01  3.353780E-02  0.000000E+00 -3.175546E-04  1.184934E-04 -2.542676E-18 -8.386910E-02  0.000000E+00
  8.052550E-01  3.875901E-02  5.000000E-01  8.133877E-01  3.908084E-02  0.000000E+00  4.065177E-04 -1.597211E-04 -1.407852E-18 -1.412770E-01  0.000000E+00
  7.906370E-01  4.432727E-02  5.000000E-01  7.986221E-01  4.470533E-02  0.000000E+00  1.633452E-03 -5.654117E-04 -6.314354E-19 -2.376788E-01  0.000000E+00
  7.754120E-01  4.939222E-02  5.000000E-01  7.832433E-01  4.982145E-02  0.000000E+00  3.364216E-03 -9.428317E-04 -1.776228E-19 -3.404912E-01  0.000000E+00
  7.595880E-01  5.338366E-02  5.000000E-01  7.672595E-01  5.385319E-02  0.000000E+00  5.229260E-03 -1.067083E-03 -9.687237E-19 -4.112634E-01  0.000000E+00
  7.431760E-01  5.618733E-02  5.000000E-01  7.506817E-01  5.668518E-02  0.000000E+00  6.568519E-03 -8.609254E-04 -3.365885E-18 -4.252158E-01  0.000000E+00
  7.261880E-01  5.784863E-02  5.000000E-01  7.335222E-01  5.836326E-02  0.000000E+00  6.814013E-03 -4.783177E-04 -2.487767E-18 -3.767721E-01  0.000000E+00
  7.086430E-01  5.858214E-02  5.000000E-01  7.158000E-01  5.910417E-02  0.000000E+00  5.865242E-03 -1.749832E-04 -2.392109E-18 -2.956607E-01  0.000000E+00
  6.905640E-01  5.882927E-02  5.000000E-01  6.975384E-01  5.935380E-02  0.000000E+00  4.122414E-03 -7.954827E-05 -1.748087E-18 -2.325228E-01  0.000000E+00
  6.719770E-01  5.929287E-02  5.000000E-01  6.787637E-01  5.982208E-02  0.000000E+00  2.184559E-03 -9.441812E-05 -6.944471E-19 -2.236392E-01  0.000000E+00
  6.529150E-01  6.090234E-02  5.000000E-01  6.595091E-01  6.144781E-02  0.000000E+00  5.550422E-04 -3.844246E-05 -9.140236E-19 -2.616814E-01  0.000000E+00
  6.334180E-01  6.414946E-02  5.000000E-01  6.398152E-01  6.472773E-02  0.000000E+00 -4.848734E-04  1.108254E-04  3.510910E-19 -3.165023E-01  0.000000E+00
  6.135280E-01  6.873145E-02  5.000000E-01  6.197244E-01  6.935599E-02  0.000000E+00 -8.296869E-04  2.078922E-04  1.796260E-18 -3.819412E-01  0.000000E+00
  5.932910E-01  7.420108E-02  5.000000E-01  5.992830E-01  7.488086E-02  0.000000E+00 -3.927542E-04  1.045436E-04  8.926345E-19 -4.783251E-01  0.000000E+00
  5.727570E-01  8.002199E-02  5.000000E-01  5.785416E-01  8.076056E-02  0.000000E+00  1.015095E-03 -2.738495E-04 -1.210916E-18 -6.300469E-01  0.000000E+00
  5.519810E-01  8.557692E-02  5.000000E-01  5.575558E-01  8.637159E-02  0.000000E+00  3.701913E-03 -8.762508E-04 -1.415380E-18 -8.534577E-01  0.000000E+00
  5.310180E-01  9.024970E-02  5.000000E-01  5.363810E-01  9.109156E-02  0.000000E+00  7.997024E-03 -1.490777E-03  3.491045E-18 -1.152398E+00  0.000000E+00
  5.099250E-01  9.374693E-02  5.000000E-01  5.150750E-01  9.462412E-02  0.000000E+00  1.396970E-02 -1.759880E-03  6.489611E-18 -1.486214E+00  0.000000E+00
  4.887640E-01  9.589442E-02  5.000000E-01  4.937003E-01  9.679329E-02  0.000000E+00  2.093024E-02 -1.212255E-03  7.727039E-18 -1.746192E+00  0.000000E+00
  4.675910E-01  9.649304E-02  5.000000E-01  4.723135E-01  9.739796E-02  0.000000E+00  2.723138E-02  5.051002E-04  1.062100E-17 -1.810375E+00  0.000000E+00
  7.860720E-05 -3.610712E-04  5.000000E-01  7.940618E-05 -4.343354E-04  0.000000E+00 -1.572430E-02  4.332936E-02 -5.223980E-14  7.962245E-01  0.000000E+00
  3.989240E-04 -8.628709E-04  5.000000E-01  4.029580E-04 -9.412030E-04  0.000000E+00 -1.306228E-02  1.739072E-02 -4.293201E-14  1.103249E+00  0.000000E+00
  1.196920E-03 -1.471814E-03  5.000000E-01  1.209013E-03 -1.556296E-03  0.000000E+00 -2.919787E-03  2.591686E-03 -2.735011E-14  1.065681E+00  0.000000E+00
  2.563580E-03 -2.114595E-03  5.000000E-01  2.589476E-03 -2.205569E-03  0.000000E+00  5.387484E-03 -2.003846E-03 -1.196950E-14  9.079007E-01  0.000000E+00
  4.492740E-03 -2.760980E-03  5.000000E-01  4.538120E-03 -2.858482E-03  0.000000E+00  9.732530E-03 -2.876320E-03 -1.735820E-15  7.903623E-01  0.000000E+00
  6.952190E-03 -3.411390E-03  5.000000E-01  7.022409E-03 -3.515461E-03  0.000000E+00  1.168657E-02 -2.867382E-03  2.313976E-15  7.113405E-01  0.000000E+00
  9.910730E-03 -4.086650E-03  5.000000E-01  1.001083E-02 -4.197541E-03  0.000000E+00  1.259622E-02 -2.759479E-03  2.403940E-15  6.471429E-01  0.000000E+00
  1.334950E-02 -4.810626E-03  5.000000E-01  1.348433E-02 -4.928829E-03  0.000000E+00  1.310300E-02 -2.632998E-03  1.225976E-15  5.832905E-01  0.000000E+00
  1.728780E-02 -5.566793E-03  5.000000E-01  1.746240E-02 -5.692633E-03  0.000000E+00  1.342003E-02 -2.406366E-03  2.807471E-16  5.146376E-01  0.000000E+00
  2.175590E-02 -6.312379E-03  5.000000E-01  2.197563E-02 -6.445749E-03  0.000000E+00  1.360173E-02 -2.085161E-03 -1.078575E-16  4.498139E-01  0.000000E+00
  2.676920E-02 -7.012337E-03  5.000000E-01  2.703956E-02 -7.152776E-03  0.000000E+00  1.369252E-02 -1.745616E-03 -1.466079E-16  3.984972E-01  0.000000E+00
  3.232800E-02 -7.652885E-03  5.000000E-01  3.265450E-02 -7.799793E-03  0.000000E+00  1.373461E-02 -1.446116E-03 -7.917073E-17  3.617600E-01  0.000000E+00
  3.842930E-02 -8.234800E-03  5.000000E-01  3.881742E-02 -8.387585E-03  0.000000E+00  1.374942E-02 -1.205178E-03 -2.375578E-17  3.347192E-01  0.000000E+00
  4.507220E-02 -8.765943E-03  5.000000E-01  4.552741E-02 -8.924093E-03  0.000000E+00  1.375765E-02 -1.032500E-03  1.191922E-19  3.137606E-01  0.000000E+00
  5.225680E-02 -9.269388E-03  5.000000E-01  5.278457E-02 -9.432622E-03  0.000000E+00  1.379008E-02 -9.305468E-04  5.656321E-18  2.968244E-01  0.000000E+00
  5.998640E-02 -9.771280E-03  5.000000E-01  6.059224E-02 -9.939583E-03  0.000000E+00  1.385313E-02 -8.669484E-04  4.122118E-18  2.791217E-01  0.000000E+00
  6.827110E-02 -1.027135E-02  5.000000E-01  6.896061E-02 -1.044470E-02  0.000000E+00  1.392209E-02 -8.028153E-04  2.959006E-18  2.578797E-01  0.000000E+00
  7.712280E-02 -1.075801E-02  5.000000E-01  7.790171E-02 -1.093628E-02  0.000000E+00  1.397210E-02 -7.279017E-04  1.754755E-18  2.357871E-01  0.000000E+00
  8.655260E-02 -1.122162E-02  5.000000E-01  8.742675E-02 -1.140457E-02  0.000000E+00  1.398316E-02 -6.416789E-04 -3.207692E-20  2.154441E-01  0.000000E+00
  9.657140E-02 -1.164868E-02  5.000000E-01  9.754673E-02 -1.183594E-02  0.000000E+00  1.392770E-02 -5.356184E-04 -1.846935E-19  1.967731E-01  0.000000E+00
  1.071900E-01 -1.201290E-02  5.000000E-01  1.082726E-01 -1.220384E-02  0.000000E+00  1.378118E-02 -4.095723E-04  2.772756E-19  1.804737E-01  0.000000E+00
  1.184180E-01 -1.229400E-02  5.000000E-01  1.196140E-01 -1.248778E-02  0.000000E+00  1.354211E-02 -2.836565E-04  4.696478E-19  1.692221E-01  0.000000E+00
  1.302610E-01 -1.249205E-02  5.000000E-01  1.315766E-01 -1.268783E-02  0.000000E+00  1.322692E-02 -1.790620E-04  1.493406E-18  1.637892E-01  0.000000E+00
  1.427230E-01 -1.261984E-02  5.000000E-01  1.441644E-01 -1.281691E-02  0.000000E+00  1.286097E-02 -1.068820E-04  1.210221E-18  1.626431E-01  0.000000E+00
  1.427230E-01 -1.261984E-02  5.000000E-01  1.441644E-01 -1.281691E-02  0.000000E+00  1.286097E-02 -1.068820E-04  1.210221E-18  1.626431E-01  0.000000E+00
  1.558070E-01 -1.270246E-02  5.000000E-01  1.573806E-01 -1.290036E-02  0.000000E+00  1.248254E-02 -6.796493E-05  6.082882E-19  1.636109E-01  0.000000E+00
  1.695140E-01 -1.276507E-02  5.000000E-01  1.712260E-01 -1.296361E-02  0.000000E+00  1.215587E-02 -5.949438E-05  1.074774E-18  1.647923E-01  0.000000E+00
  1.838420E-01 -1.283996E-02  5.000000E-01  1.856987E-01 -1.303925E-02  0.000000E+00  1.198432E-02 -8.985391E-05  1.981786E-18  1.651088E-01  0.000000E+00
  1.987870E-01 -1.298513E-02  5.000000E-01  2.007947E-01 -1.318589E-02  0.000000E+00  1.210418E-02 -1.842392E-04  1.996806E-18  1.633391E-01  0.000000E+00
  2.143420E-01 -1.330345E-02  5.000000E-01  2.165068E-01 -1.350743E-02  0.000000E+00  1.264165E-02 -3.639832E-04  2.035476E-19  1.551120E-01  0.000000E+00
  2.304940E-01 -1.389604E-02  5.000000E-01  2.328219E-01 -1.410600E-02  0.000000E+00  1.363762E-02 -6.027578E-04  6.678407E-19  1.299060E-01  0.000000E+00
  2.472290E-01 -1.475284E-02  5.000000E-01  2.497259E-01 -1.497145E-02  0.000000E+00  1.500355E-02 -8.334622E-04  2.781858E-18  8.070073E-02  0.000000E+00
  2.645310E-01 -1.578328E-02  5.000000E-01  2.672026E-01 -1.601230E-02  0.000000E+00  1.648216E-02 -9.421222E-04  2.382905E-18  8.336450E-03  0.000000E+00
  2.823750E-01 -1.676641E-02  5.000000E-01  2.852269E-01 -1.700536E-02  0.000000E+00  1.761871E-02 -7.559174E-04  5.541912E-19 -8.173270E-02  0.000000E+00
  3.007320E-01 -1.734268E-02  5.000000E-01  3.037693E-01 -1.758745E-02  0.000000E+00  1.785607E-02 -1.458833E-04  1.209677E-19 -1.748601E-01  0.000000E+00
  3.195690E-01 -1.705483E-02  5.000000E-01  3.227965E-01 -1.729669E-02  0.000000E+00  1.677646E-02  8.110371E-04  3.104570E-19 -2.479715E-01  0.000000E+00
  3.388440E-01 -1.541008E-02  5.000000E-01  3.422662E-01 -1.563534E-02  0.000000E+00  1.447739E-02  1.707350E-03  2.253152E-18 -2.621413E-01  0.000000E+00
  3.585140E-01 -1.229001E-02  5.000000E-01  3.621348E-01 -1.248375E-02  0.000000E+00  1.160584E-02  2.118110E-03  3.539765E-18 -1.886208E-01  0.000000E+00
  3.785290E-01 -8.007172E-03  5.000000E-01  3.823520E-01 -8.157658E-03  0.000000E+00  8.831424E-03  2.026189E-03  1.777657E-18 -5.598787E-02  0.000000E+00
  3.988350E-01 -2.943030E-03  5.000000E-01  4.028631E-01 -3.042371E-03  0.000000E+00  6.527848E-03  1.669859E-03 -1.431103E-18  8.236535E-02  0.000000E+00
  4.193750E-01  2.470494E-03  5.000000E-01  4.236105E-01  2.425827E-03  0.000000E+00  4.835806E-03  1.259152E-03 -2.406412E-18  1.986161E-01  0.000000E+00
  4.400850E-01  7.770289E-03  5.000000E-01  4.445297E-01  7.779148E-03  0.000000E+00  3.759909E-03  9.154779E-04 -3.026562E-18  2.882924E-01  0.000000E+00
  4.609060E-01  1.251586E-02  5.000000E-01  4.655609E-01  1.257264E-02  0.000000E+00  3.239872E-03  6.809249E-04 -3.216469E-18  3.509737E-01  0.000000E+00
  4.818030E-01  1.649998E-02  5.000000E-01  4.866690E-01  1.659700E-02  0.000000E+00  3.196992E-03  5.334697E-04 -6.816389E-19  3.902458E-01  0.000000E+00
  5.027520E-01  1.953375E-02  5.000000E-01  5.078296E-01  1.966142E-02  0.000000E+00  3.563991E-03  4.214018E-04  7.574147E-19  4.129727E-01  0.000000E+00
  5.237130E-01  2.153542E-02  5.000000E-01  5.290023E-01  2.168330E-02  0.000000E+00  4.267363E-03  3.046199E-04 -5.728993E-19  4.189240E-01  0.000000E+00
  5.446170E-01  2.261131E-02  5.000000E-01  5.501174E-01  2.277005E-02  0.000000E+00  5.206548E-03  1.681204E-04 -1.277551E-18  4.080288E-01  0.000000E+00
  5.653940E-01  2.295509E-02  5.000000E-01  5.711042E-01  2.311731E-02  0.000000E+00  6.240113E-03  2.888282E-05 -4.859653E-19  3.839083E-01  0.000000E+00
  4.675910E-01  9.649304E-02  5.000000E-01  4.723135E-01  9.739796E-02  0.000000E+00  2.723138E-02  5.051002E-04  1.062100E-17 -1.810375E+00  0.000000E+00
  4.464640E-01  9.532849E-02  5.000000E-01  4.509731E-01  9.622165E-02  0.000000E+00  3.084828E-02  3.142564E-03  8.582013E-18 -1.629602E+00  0.000000E+00
  4.254410E-01  9.227386E-02  5.000000E-01  4.297378E-01  9.313616E-02  0.000000E+00  3.049861E-02  5.445137E-03  7.485208E-19 -1.283546E+00  0.000000E+00
  4.045840E-01  8.778458E-02  5.000000E-01  4.086701E-01  8.860155E-02  0.000000E+00  2.671132E-02  6.146364E-03 -2.811671E-18 -9.095366E-01  0.000000E+00
  3.839530E-01  8.265415E-02  5.000000E-01  3.878308E-01  8.341930E-02  0.000000E+00  2.133677E-02  5.283537E-03 -1.721005E-18 -5.854578E-01  0.000000E+00
  3.636060E-01  7.764333E-02  5.000000E-01  3.672783E-01  7.835787E-02  0.000000E+00  1.603449E-02  3.695807E-03 -1.262161E-18 -3.415780E-01  0.000000E+00
  3.435960E-01  7.345461E-02  5.000000E-01  3.470662E-01  7.412685E-02  0.000000E+00  1.170694E-02  2.102946E-03 -9.189393E-19 -2.084290E-01  0.000000E+00
  3.239710E-01  7.070887E-02  5.000000E-01  3.272430E-01  7.135338E-02  0.000000E+00  8.765931E-03  9.231021E-04 -7.524203E-19 -1.984160E-01  0.000000E+00
  3.047740E-01  6.953704E-02  5.000000E-01  3.078521E-01  7.016972E-02  0.000000E+00  7.455270E-03  2.770609E-04  3.250963E-19 -2.814395E-01  0.000000E+00
  2.860450E-01  6.932412E-02  5.000000E-01  2.889339E-01  6.995464E-02  0.000000E+00  7.867082E-03  1.178941E-05 -4.587925E-21 -4.244636E-01  0.000000E+00
  2.678190E-01  6.944336E-02  5.000000E-01  2.705239E-01  7.007509E-02  0.000000E+00  9.908207E-03 -1.847536E-05 -1.539068E-18 -6.082641E-01  0.000000E+00
  2.501300E-01  6.940867E-02  5.000000E-01  2.526562E-01  7.004005E-02  0.000000E+00  1.327896E-02  2.397495E-04 -1.834203E-18 -8.020284E-01  0.000000E+00
  2.330040E-01  6.889559E-02  5.000000E-01  2.353572E-01  6.952179E-02  0.000000E+00  1.737903E-02  9.271376E-04 -4.476740E-19 -9.620444E-01  0.000000E+00
  2.164660E-01  6.772083E-02  5.000000E-01  2.186522E-01  6.833516E-02  0.000000E+00  2.132861E-02  2.078606E-03 -6.671018E-19 -1.046719E+00  0.000000E+00
  2.005340E-01  6.582154E-02  5.000000E-01  2.025593E-01  6.641669E-02  0.000000E+00  2.421141E-02  3.426059E-03 -1.962444E-18 -1.050183E+00  0.000000E+00
  1.852230E-01  6.334276E-02  5.000000E-01  1.870937E-01  6.391287E-02  0.000000E+00  2.555850E-02  4.535974E-03 -1.379655E-18 -1.003809E+00  0.000000E+00
  1.705440E-01  6.051169E-02  5.000000E-01  1.722664E-01  6.105321E-02  0.000000E+00  2.559511E-02  5.213230E-03 -1.658967E-18 -9.406193E-01  0.000000E+00
  1.565000E-01  5.749423E-02  5.000000E-01  1.580806E-01  5.800528E-02  0.000000E+00  2.491600E-02  5.546362E-03  3.605777E-19 -8.826838E-01  0.000000E+00
  1.430940E-01  5.439964E-02  5.000000E-01  1.445392E-01  5.487944E-02  0.000000E+00  2.408612E-02  5.722474E-03  2.069576E-18 -8.402190E-01  0.000000E+00
  1.303270E-01  5.127629E-02  5.000000E-01  1.316432E-01  5.172453E-02  0.000000E+00  2.346179E-02  5.928201E-03  6.717036E-19 -8.073045E-01  0.000000E+00
  1.182110E-01  4.811649E-02  5.000000E-01  1.194049E-01  4.853283E-02  0.000000E+00  2.313359E-02  6.252359E-03 -1.062561E-19 -7.709726E-01  0.000000E+00
  1.067560E-01  4.491356E-02  5.000000E-01  1.078342E-01  4.529754E-02  0.000000E+00  2.298502E-02  6.665438E-03 -9.991805E-19 -7.224116E-01  0.000000E+00
  9.596750E-02  4.167393E-02  5.000000E-01  9.693673E-02  4.202520E-02  0.000000E+00  2.282343E-02  7.044901E-03 -2.388741E-18 -6.668973E-01  0.000000E+00
  8.582800E-02  3.845639E-02  5.000000E-01  8.669483E-02  3.877517E-02  0.000000E+00  2.254307E-02  7.286324E-03 -2.943800E-18 -6.185898E-01  0.000000E+00
  8.582800E-02  3.845639E-02  5.000000E-01  8.669483E-02  3.877517E-02  0.000000E+00  2.254307E-02  7.286324E-03 -2.943800E-18 -6.185898E-01  0.000000E+00
  7.631050E-02  3.532201E-02  5.000000E-01  7.708121E-02  3.560913E-02  0.000000E+00  2.219955E-02  7.451402E-03 -1.870948E-18 -5.792511E-01  0.000000E+00
  6.740780E-02  3.227723E-02  5.000000E-01  6.808859E-02  3.253360E-02  0.000000E+00  2.188439E-02  7.646923E-03 -2.181633E-18 -5.421010E-01  0.000000E+00
  5.911740E-02  2.931852E-02  5.000000E-01  5.971446E-02  2.954500E-02  0.000000E+00  2.162475E-02  7.887653E-03 -2.098309E-18 -5.044818E-01  0.000000E+00
  5.143150E-02  2.645419E-02  5.000000E-01  5.195094E-02  2.665175E-02  0.000000E+00  2.140410E-02  8.146041E-03  6.511095E-19 -4.665219E-01  0.000000E+00
  4.433770E-02  2.369796E-02  5.000000E-01  4.478550E-02  2.386768E-02  0.000000E+00  2.119561E-02  8.403170E-03  2.376365E-18 -4.296616E-01  0.000000E+00
  3.782240E-02  2.106288E-02  5.000000E-01  3.820439E-02  2.120598E-02  0.000000E+00  2.098332E-02  8.661017E-03  7.259752E-18 -3.966394E-01  0.000000E+00
  3.187460E-02  1.855720E-02  5.000000E-01  3.219652E-02  1.867500E-02  0.000000E+00  2.077504E-02  8.939723E-03  2.619739E-17 -3.703204E-01  0.000000E+00
  2.648400E-02  1.618751E-02  5.000000E-01  2.675148E-02  1.628138E-02  0.000000E+00  2.059536E-02  9.290980E-03  7.568506E-17 -3.466881E-01  0.000000E+00
  2.164990E-02  1.395160E-02  5.000000E-01  2.186856E-02  1.402288E-02  0.000000E+00  2.041951E-02  9.755990E-03  1.904631E-16 -3.122779E-01  0.000000E+00
  1.737670E-02  1.184610E-02  5.000000E-01  1.755220E-02  1.189612E-02  0.000000E+00  2.011808E-02  1.022700E-02  4.196428E-16 -2.618221E-01  0.000000E+00
  1.364080E-02  9.887748E-03  5.000000E-01  1.377857E-02  9.917992E-03  0.000000E+00  1.956447E-02  1.049058E-02  7.866954E-16 -2.103240E-01  0.000000E+00
  1.039090E-02  8.103475E-03  5.000000E-01  1.049585E-02  8.115699E-03  0.000000E+00  1.879574E-02  1.050690E-02  1.202281E-15 -1.778257E-01  0.000000E+00
  7.586340E-03  6.505806E-03  5.000000E-01  7.662964E-03  6.501894E-03  0.000000E+00  1.801765E-02  1.055024E-02  1.341657E-15 -1.699050E-01  0.000000E+00
  5.226210E-03  5.085008E-03  5.000000E-01  5.278997E-03  5.066747E-03  0.000000E+00  1.752906E-02  1.106040E-02  5.873906E-16 -1.834833E-01  0.000000E+00
  3.324300E-03  3.827821E-03  5.000000E-01  3.357879E-03  3.796863E-03  0.000000E+00  1.775859E-02  1.263518E-02 -1.823812E-15 -2.182860E-01  0.000000E+00
  1.883580E-03  2.731101E-03  5.000000E-01  1.902608E-03  2.689066E-03  0.000000E+00  1.912748E-02  1.638131E-02 -6.433555E-15 -2.558769E-01  0.000000E+00
  8.951490E-04  1.800423E-03  5.000000E-01  9.041947E-04  1.748989E-03  0.000000E+00  2.097898E-02  2.376810E-02 -1.325283E-14 -2.363337E-01  0.000000E+00
  3.201820E-04  1.051542E-03  5.000000E-01  3.234208E-04  9.925442E-04  0.000000E+00  2.015652E-02  3.437590E-02 -2.179665E-14 -8.936797E-02  0.000000E+00
  6.852390E-05  5.053622E-04  5.000000E-01  6.922104E-05  4.408486E-04  0.000000E+00  1.388681E-02  4.306888E-02 -3.107298E-14  1.340824E-01  0.000000E+00
  4.217600E-06  1.775190E-04  5.000000E-01  4.265279E-06  1.096943E-04  0.000000E+00  5.540558E-03  4.742511E-02 -3.944077E-14  2.127388E-01  0.000000E+00
 -5.032520E-09  6.892147E-05  5.000000E-01  0.000000E+00  0.000000E+00  0.000000E+00 -1.133277E-03  5.800686E-02 -4.650719E-14  1.555295E-01  0.000000E+00
  5.154440E-06 -3.992147E-05  5.000000E-01  5.211581E-06 -1.099422E-04  0.000000E+00 -8.812959E-03  6.267482E-02 -5.219181E-14  3.337062E-01  0.000000E+00