 Title = "ADflow Slice Data"
Variables =  "CoordinateX"  "CoordinateY"  "CoordinateZ"  "XoC"  "YoC"  "ZoC" "VelocityX" "VelocityY" "VelocityZ" "CoefPressure" "Mach" 
Zone T= "Slice_0001 None Absolute Regular z = 0.50000000"
 Nodes =          192  Elements=          184  ZONETYPE=FELINESEG
 DATAPACKING=POINT
  5.653940E-01 -8.057426E-03  5.000000E-01  5.711040E-01 -8.208283E-03  0.000000E+00  6.878546E-03  1.183419E-03  1.823708E-19  1.543936E-01  0.000000E+00
  5.859770E-01 -4.406684E-03  5.000000E-01  5.918949E-01 -4.520672E-03  0.000000E+00  5.855757E-03  1.024179E-03 -1.097129E-18  2.153231E-01  0.000000E+00
  6.063060E-01 -9.097431E-04  5.000000E-01  6.124292E-01 -9.884150E-04  0.000000E+00  5.194471E-03  8.448266E-04 -1.186319E-18  2.765291E-01  0.000000E+00
  6.263240E-01  2.131476E-03  5.000000E-01  6.326494E-01  2.083517E-03  0.000000E+00  4.971466E-03  6.695515E-04  3.131968E-20  3.235145E-01  0.000000E+00
  6.459860E-01  4.438847E-03  5.000000E-01  6.525099E-01  4.414192E-03  0.000000E+00  5.193317E-03  4.828381E-04  8.559306E-19  3.523750E-01  0.000000E+00
  6.652460E-01  5.801674E-03  5.000000E-01  6.719644E-01  5.790782E-03  0.000000E+00  5.791196E-03  2.709309E-04 -1.666746E-20  3.612920E-01  0.000000E+00
  6.840650E-01  6.277358E-03  5.000000E-01  6.909735E-01  6.271270E-03  0.000000E+00  6.600136E-03  8.169234E-05  1.523791E-20  3.436097E-01  0.000000E+00
  7.024070E-01  6.288763E-03  5.000000E-01  7.095007E-01  6.282790E-03  0.000000E+00  7.409385E-03 -2.057885E-05  1.618605E-19  3.054707E-01  0.000000E+00
  7.202400E-01  6.188514E-03  5.000000E-01  7.275138E-01  6.181528E-03  0.000000E+00  8.041861E-03 -2.220621E-05 -3.117908E-19  2.667585E-01  0.000000E+00
  7.375350E-01  6.191866E-03  5.000000E-01  7.449835E-01  6.184915E-03  0.000000E+00  8.389475E-03  5.189486E-05  8.789968E-20  2.400384E-01  0.000000E+00
  7.542690E-01  6.395833E-03  5.000000E-01  7.618865E-01  6.390941E-03  0.000000E+00  8.429833E-03  1.595428E-04  1.758901E-19  2.283538E-01  0.000000E+00
  7.704220E-01  6.811576E-03  5.000000E-01  7.782026E-01  6.810883E-03  0.000000E+00  8.221401E-03  2.600047E-04 -1.164519E-19  2.295165E-01  0.000000E+00
  7.859770E-01  7.398844E-03  5.000000E-01  7.939147E-01  7.404082E-03  0.000000E+00  7.885500E-03  3.128686E-04  8.097482E-21  2.415972E-01  0.000000E+00
  8.009220E-01  8.025130E-03  5.000000E-01  8.090107E-01  8.036693E-03  0.000000E+00  7.564554E-03  2.918065E-04  8.579289E-21  2.620664E-01  0.000000E+00
  8.152480E-01  8.527367E-03  5.000000E-01  8.234813E-01  8.544002E-03  0.000000E+00  7.351805E-03  2.157012E-04  3.573550E-19  2.814425E-01  0.000000E+00
  8.289490E-01  8.845034E-03  5.000000E-01  8.373207E-01  8.864877E-03  0.000000E+00  7.267223E-03  1.218837E-04  3.398514E-19  2.917533E-01  0.000000E+00
  8.420260E-01  8.979063E-03  5.000000E-01  8.505298E-01  9.000260E-03  0.000000E+00  7.291692E-03  2.941717E-05 -9.931086E-20  2.941740E-01  0.000000E+00
  8.544790E-01  8.953458E-03  5.000000E-01  8.631085E-01  8.974397E-03  0.000000E+00  7.395236E-03 -5.564913E-05 -6.065213E-19  2.924390E-01  0.000000E+00
  8.663160E-01  8.801323E-03  5.000000E-01  8.750651E-01  8.820725E-03  0.000000E+00  7.545990E-03 -1.313052E-04 -8.103152E-19  2.885348E-01  0.000000E+00
  8.775420E-01  8.556096E-03  5.000000E-01  8.864045E-01  8.573022E-03  0.000000E+00  7.713779E-03 -1.961203E-04 -7.905213E-19  2.832371E-01  0.000000E+00
  8.881660E-01  8.248660E-03  5.000000E-01  8.971357E-01  8.262480E-03  0.000000E+00  7.874442E-03 -2.488757E-04 -2.519688E-19  2.771322E-01  0.000000E+00
  8.981970E-01  7.905321E-03  5.000000E-01  9.072681E-01  7.915674E-03  0.000000E+00  8.014520E-03 -2.915617E-04  5.380194E-19  2.710664E-01  0.000000E+00
  9.076460E-01  7.541886E-03  5.000000E-01  9.168125E-01  7.548568E-03  0.000000E+00  8.133978E-03 -3.308843E-04  1.839769E-19  2.660152E-01  0.000000E+00
  9.165220E-01  7.161652E-03  5.000000E-01  9.257781E-01  7.164495E-03  0.000000E+00  8.241371E-03 -3.723752E-04 -2.174246E-19  2.619648E-01  0.000000E+00
  9.165220E-01  7.161652E-03  5.000000E-01  9.257781E-01  7.164495E-03  0.000000E+00  8.241371E-03 -3.723752E-04 -2.174246E-19  2.619648E-01  0.000000E+00
  9.248360E-01  6.766586E-03  5.000000E-01  9.341761E-01  6.765439E-03  0.000000E+00  8.345650E-03 -4.171161E-04 -2.580652E-19  2.580453E-01  0.000000E+00
  9.325990E-01  6.359586E-03  5.000000E-01  9.420175E-01  6.354328E-03  0.000000E+00  8.453738E-03 -4.651477E-04 -7.511546E-20  2.538135E-01  0.000000E+00
  9.398210E-01  5.943709E-03  5.000000E-01  9.493124E-01  5.934252E-03  0.000000E+00  8.571521E-03 -5.168385E-04  1.959917E-19  2.492268E-01  0.000000E+00
  9.465130E-01  5.522307E-03  5.000000E-01  9.560720E-01  5.508594E-03  0.000000E+00  8.704059E-03 -5.725730E-04 -1.644964E-19  2.442228E-01  0.000000E+00
  9.526870E-01  5.099071E-03  5.000000E-01  9.623084E-01  5.081083E-03  0.000000E+00  8.855213E-03 -6.326779E-04 -1.225756E-19  2.386839E-01  0.000000E+00
  9.583540E-01  4.678052E-03  5.000000E-01  9.680326E-01  4.655812E-03  0.000000E+00  9.027659E-03 -6.973615E-04  1.285897E-19  2.325054E-01  0.000000E+00
  9.635240E-01  4.263692E-03  5.000000E-01  9.732548E-01  4.237268E-03  0.000000E+00  9.223313E-03 -7.665301E-04 -3.615527E-19  2.255900E-01  0.000000E+00
  9.682080E-01  3.860833E-03  5.000000E-01  9.779861E-01  3.830340E-03  0.000000E+00  9.444773E-03 -8.402056E-04 -5.774469E-19  2.179001E-01  0.000000E+00
  9.724140E-01  3.474546E-03  5.000000E-01  9.822346E-01  3.440152E-03  0.000000E+00  9.697513E-03 -9.184949E-04 -8.886038E-19  2.094423E-01  0.000000E+00
  9.761510E-01  3.110139E-03  5.000000E-01  9.860093E-01  3.072065E-03  0.000000E+00  9.990220E-03 -1.001225E-03 -1.195503E-18  2.001980E-01  0.000000E+00
  9.794290E-01  2.772977E-03  5.000000E-01  9.893204E-01  2.731498E-03  0.000000E+00  1.032890E-02 -1.088483E-03 -1.081337E-18  1.901821E-01  0.000000E+00
  9.822540E-01  2.468262E-03  5.000000E-01  9.921740E-01  2.423705E-03  0.000000E+00  1.070110E-02 -1.179296E-03 -3.897264E-19  1.796220E-01  0.000000E+00
  9.846330E-01  2.200942E-03  5.000000E-01  9.945770E-01  2.153685E-03  0.000000E+00  1.106087E-02 -1.266259E-03  1.455714E-18  1.697380E-01  0.000000E+00
  9.865710E-01  1.975491E-03  5.000000E-01  9.965346E-01  1.925957E-03  0.000000E+00  1.129411E-02 -1.323756E-03  2.604772E-18  1.594892E-01  0.000000E+00
  9.880740E-01  1.795850E-03  5.000000E-01  9.980527E-01  1.744502E-03  0.000000E+00  1.120562E-02 -1.355084E-03 -2.564113E-18  1.423588E-01  0.000000E+00
  9.891450E-01  1.665170E-03  5.000000E-01  9.991346E-01  1.612502E-03  0.000000E+00  1.145688E-02 -1.489194E-03 -2.641109E-17  1.438015E-01  0.000000E+00
  9.897860E-01  1.585784E-03  5.000000E-01  9.997820E-01  1.532315E-03  0.000000E+00  1.488569E-02 -1.384130E-03 -7.480542E-17  1.925494E-01  0.000000E+00
  9.900000E-01  1.559181E-03  5.000000E-01  9.999982E-01  1.505444E-03  0.000000E+00  1.042219E-02 -3.809498E-03 -7.873806E-17 -4.334997E-02  0.000000E+00
  9.900000E-01  1.637892E-03  5.000000E-01  9.999982E-01  1.584949E-03  0.000000E+00  1.040378E-03 -1.432900E-02  6.422691E-18 -1.778212E-01  0.000000E+00
  9.900000E-01  1.716612E-03  5.000000E-01  9.999982E-01  1.664464E-03  0.000000E+00 -5.181506E-04 -1.347287E-02  8.851344E-17 -3.866498E-03  0.000000E+00
  9.900000E-01  1.795332E-03  5.000000E-01  9.999982E-01  1.743980E-03  0.000000E+00 -3.113779E-04  2.912599E-03  1.053675E-16 -7.693966E-03  0.000000E+00
  9.900000E-01  1.874043E-03  5.000000E-01  9.999982E-01  1.823485E-03  0.000000E+00  7.313515E-04  4.214214E-03  1.346281E-16 -1.285780E-01  0.000000E+00
  9.900000E-01  1.952763E-03  5.000000E-01  9.999982E-01  1.903000E-03  0.000000E+00  6.059621E-03 -2.356105E-03  1.747583E-16 -3.135211E-02  0.000000E+00
  9.900000E-01  1.952763E-03  5.000000E-01  9.999982E-01  1.903000E-03  0.000000E+00  6.059621E-03 -2.356105E-03  1.747583E-16 -3.135211E-02  0.000000E+00
  9.897900E-01  1.989125E-03  5.000000E-01  9.997861E-01  1.939729E-03  0.000000E+00  7.906115E-03 -1.712859E-03  1.264462E-16  1.161908E-01  0.000000E+00
  9.891580E-01  2.098108E-03  5.000000E-01  9.991477E-01  2.049813E-03  0.000000E+00  4.991192E-03 -7.982964E-04  4.288537E-17  7.238508E-02  0.000000E+00
  9.881040E-01  2.279625E-03  5.000000E-01  9.980830E-01  2.233163E-03  0.000000E+00  4.316994E-03 -7.404564E-04  4.054830E-18  6.234201E-02  0.000000E+00
  9.866260E-01  2.533449E-03  5.000000E-01  9.965901E-01  2.489550E-03  0.000000E+00  4.194147E-03 -7.248449E-04 -4.559784E-18  6.514454E-02  0.000000E+00
  9.847200E-01  2.859208E-03  5.000000E-01  9.946649E-01  2.818600E-03  0.000000E+00  4.134276E-03 -7.040835E-04 -3.408421E-18  6.102544E-02  0.000000E+00
  9.823820E-01  3.256437E-03  5.000000E-01  9.923033E-01  3.219840E-03  0.000000E+00  4.175764E-03 -7.064128E-04 -1.598740E-18  5.436966E-02  0.000000E+00
  9.796080E-01  3.724547E-03  5.000000E-01  9.895012E-01  3.692677E-03  0.000000E+00  4.307227E-03 -7.237238E-04 -4.385227E-19  4.729039E-02  0.000000E+00
  9.763910E-01  4.262736E-03  5.000000E-01  9.862517E-01  4.236302E-03  0.000000E+00  4.493379E-03 -7.482687E-04  2.572453E-19  3.927515E-02  0.000000E+00
  9.727270E-01  4.870088E-03  5.000000E-01  9.825507E-01  4.849788E-03  0.000000E+00  4.710231E-03 -7.763165E-04  3.842717E-19  3.023287E-02  0.000000E+00
  9.686070E-01  5.545445E-03  5.000000E-01  9.783891E-01  5.531965E-03  0.000000E+00  4.942654E-03 -8.051158E-04  1.492638E-19  2.041849E-02  0.000000E+00
  9.640240E-01  6.287491E-03  5.000000E-01  9.737599E-01  6.281505E-03  0.000000E+00  5.181543E-03 -8.329673E-04 -1.134847E-20  9.993970E-03  0.000000E+00
  9.589680E-01  7.094701E-03  5.000000E-01  9.686528E-01  7.096868E-03  0.000000E+00  5.422472E-03 -8.591109E-04  2.438891E-19 -9.169434E-04  0.000000E+00
  9.534310E-01  7.965468E-03  5.000000E-01  9.630599E-01  7.976428E-03  0.000000E+00  5.663264E-03 -8.832306E-04  7.248512E-19 -1.220132E-02  0.000000E+00
  9.474030E-01  8.898062E-03  5.000000E-01  9.569710E-01  8.918441E-03  0.000000E+00  5.901827E-03 -9.048757E-04  7.353704E-19 -2.366111E-02  0.000000E+00
  9.408720E-01  9.890692E-03  5.000000E-01  9.503740E-01  9.921096E-03  0.000000E+00  6.135004E-03 -9.237754E-04 -7.327005E-20 -3.517283E-02  0.000000E+00
  9.338280E-01  1.094172E-02  5.000000E-01  9.432589E-01  1.098274E-02  0.000000E+00  6.359060E-03 -9.397660E-04 -1.846030E-19 -4.664283E-02  0.000000E+00
  9.262600E-01  1.204974E-02  5.000000E-01  9.356145E-01  1.210195E-02  0.000000E+00  6.569829E-03 -9.524799E-04  1.635617E-19 -5.791898E-02  0.000000E+00
  9.181550E-01  1.321349E-02  5.000000E-01  9.274276E-01  1.327746E-02  0.000000E+00  6.762593E-03 -9.617207E-04  2.361656E-19 -6.893271E-02  0.000000E+00
  9.095020E-01  1.443240E-02  5.000000E-01  9.186872E-01  1.450867E-02  0.000000E+00  6.932505E-03 -9.673540E-04  9.588626E-20 -7.953931E-02  0.000000E+00
  9.002880E-01  1.570623E-02  5.000000E-01  9.093802E-01  1.579537E-02  0.000000E+00  7.074253E-03 -9.694076E-04  1.069423E-19 -8.942247E-02  0.000000E+00
  8.905020E-01  1.703571E-02  5.000000E-01  8.994953E-01  1.713827E-02  0.000000E+00  7.182470E-03 -9.692862E-04  4.102188E-19 -9.849037E-02  0.000000E+00
  8.801320E-01  1.842597E-02  5.000000E-01  8.890206E-01  1.854257E-02  0.000000E+00  7.254913E-03 -9.699831E-04  1.541139E-20 -1.070791E-01  0.000000E+00
  8.691700E-01  1.988757E-02  5.000000E-01  8.779479E-01  2.001894E-02  0.000000E+00  7.296037E-03 -9.745693E-04 -1.290973E-20 -1.157209E-01  0.000000E+00
  8.691700E-01  1.988757E-02  5.000000E-01  8.779479E-01  2.001894E-02  0.000000E+00  7.296037E-03 -9.745693E-04 -1.290973E-20 -1.157209E-01  0.000000E+00
  8.576080E-01  2.143478E-02  5.000000E-01  8.662691E-01  2.158177E-02  0.000000E+00  7.318335E-03 -9.859006E-04  4.697364E-19 -1.249218E-01  0.000000E+00
  8.454380E-01  2.308546E-02  5.000000E-01  8.539762E-01  2.324912E-02  0.000000E+00  7.342134E-03 -1.007812E-03  6.480910E-19 -1.353131E-01  0.000000E+00
  8.326580E-01  2.486108E-02  5.000000E-01  8.410672E-01  2.504267E-02  0.000000E+00  7.395961E-03 -1.044939E-03  9.564143E-20 -1.481503E-01  0.000000E+00
  8.192630E-01  2.678498E-02  5.000000E-01  8.275369E-01  2.698600E-02  0.000000E+00  7.517672E-03 -1.102168E-03 -5.500758E-20 -1.660184E-01  0.000000E+00
  8.052550E-01  2.887825E-02  5.000000E-01  8.133874E-01  2.910042E-02  0.000000E+00  7.754491E-03 -1.181799E-03  5.333824E-19 -1.920203E-01  0.000000E+00
  7.906370E-01  3.114615E-02  5.000000E-01  7.986218E-01  3.139121E-02  0.000000E+00  8.154337E-03 -1.276901E-03  2.560241E-20 -2.267814E-01  0.000000E+00
  7.754120E-01  3.355112E-02  5.000000E-01  7.832430E-01  3.382047E-02  0.000000E+00  8.743109E-03 -1.371192E-03 -6.682184E-19 -2.679107E-01  0.000000E+00
  7.595880E-01  3.601600E-02  5.000000E-01  7.672592E-01  3.631025E-02  0.000000E+00  9.504669E-03 -1.449045E-03 -5.532627E-19 -3.133700E-01  0.000000E+00
  7.431760E-01  3.846688E-02  5.000000E-01  7.506815E-01  3.878588E-02  0.000000E+00  1.038509E-02 -1.493899E-03 -1.483956E-18 -3.606820E-01  0.000000E+00
  7.261880E-01  4.082457E-02  5.000000E-01  7.335219E-01  4.116738E-02  0.000000E+00  1.130151E-02 -1.485007E-03 -1.622648E-18 -4.043907E-01  0.000000E+00
  7.086430E-01  4.301117E-02  5.000000E-01  7.157997E-01  4.337607E-02  0.000000E+00  1.214762E-02 -1.409720E-03  3.680926E-21 -4.375117E-01  0.000000E+00
  6.905640E-01  4.496638E-02  5.000000E-01  6.975381E-01  4.535102E-02  0.000000E+00  1.281291E-02 -1.277844E-03 -2.007231E-19 -4.553027E-01  0.000000E+00
  6.719770E-01  4.667220E-02  5.000000E-01  6.787634E-01  4.707407E-02  0.000000E+00  1.321754E-02 -1.127633E-03 -5.374175E-19 -4.598286E-01  0.000000E+00
  6.529150E-01  4.817719E-02  5.000000E-01  6.595089E-01  4.859425E-02  0.000000E+00  1.335493E-02 -1.002824E-03 -7.523076E-19 -4.584633E-01  0.000000E+00
  6.334180E-01  4.956509E-02  5.000000E-01  6.398150E-01  4.999617E-02  0.000000E+00  1.330192E-02 -9.176545E-04 -7.354183E-19 -4.573276E-01  0.000000E+00
  6.135280E-01  5.089237E-02  5.000000E-01  6.197241E-01  5.133686E-02  0.000000E+00  1.317075E-02 -8.629705E-04  1.823568E-19 -4.602919E-01  0.000000E+00
  5.932910E-01  5.219186E-02  5.000000E-01  5.992828E-01  5.264947E-02  0.000000E+00  1.305768E-02 -8.258964E-04  2.143601E-19 -4.694716E-01  0.000000E+00
  5.727570E-01  5.346947E-02  5.000000E-01  5.785414E-01  5.393998E-02  0.000000E+00  1.302075E-02 -7.907044E-04 -1.495279E-19 -4.828098E-01  0.000000E+00
  5.519810E-01  5.470171E-02  5.000000E-01  5.575556E-01  5.518467E-02  0.000000E+00  1.306860E-02 -7.437498E-04 -7.958403E-19 -4.953658E-01  0.000000E+00
  5.310180E-01  5.584669E-02  5.000000E-01  5.363808E-01  5.634121E-02  0.000000E+00  1.316354E-02 -6.916164E-04 -5.309886E-19 -5.061804E-01  0.000000E+00
  5.099250E-01  5.691046E-02  5.000000E-01  5.150748E-01  5.741572E-02  0.000000E+00  1.326329E-02 -6.533189E-04  3.859223E-19 -5.191043E-01  0.000000E+00
  4.887640E-01  5.792710E-02  5.000000E-01  4.937001E-01  5.844263E-02  0.000000E+00  1.336495E-02 -6.290432E-04  6.024344E-19 -5.358579E-01  0.000000E+00
  4.675910E-01  5.890395E-02  5.000000E-01  4.723133E-01  5.942934E-02  0.000000E+00  1.349347E-02 -6.060541E-04  2.752536E-19 -5.559048E-01  0.000000E+00
  7.860720E-05 -3.612221E-04  5.000000E-01  7.940615E-05 -4.343543E-04  0.000000E+00 -3.380225E-02  8.957377E-02 -1.255352E-14  3.507299E-02  0.000000E+00
  3.989240E-04 -8.631193E-04  5.000000E-01  4.029579E-04 -9.413203E-04  0.000000E+00 -3.534162E-02  4.356723E-02 -1.027661E-14  8.221694E-01  0.000000E+00
  1.196920E-03 -1.472409E-03  5.000000E-01  1.209013E-03 -1.556764E-03  0.000000E+00 -2.129991E-02  1.449876E-02 -6.615249E-15  1.094475E+00  0.000000E+00
  2.563580E-03 -2.116114E-03  5.000000E-01  2.589475E-03 -2.206969E-03  0.000000E+00 -6.479595E-03  2.989378E-03 -3.112057E-15  1.045615E+00  0.000000E+00
  4.492740E-03 -2.764471E-03  5.000000E-01  4.538118E-03 -2.861874E-03  0.000000E+00  2.905705E-03 -7.731806E-04 -7.246365E-16  9.550688E-01  0.000000E+00
  6.952190E-03 -3.418464E-03  5.000000E-01  7.022406E-03 -3.522472E-03  0.000000E+00  7.774956E-03 -1.900930E-03  3.223840E-16  8.811097E-01  0.000000E+00
  9.910730E-03 -4.099512E-03  5.000000E-01  1.001083E-02 -4.210398E-03  0.000000E+00  1.006146E-02 -2.223124E-03  4.607321E-16  8.156190E-01  0.000000E+00
  1.334950E-02 -4.832081E-03  5.000000E-01  1.348432E-02 -4.950365E-03  0.000000E+00  1.106136E-02 -2.252813E-03  2.611539E-16  7.501405E-01  0.000000E+00
  1.728780E-02 -5.600389E-03  5.000000E-01  1.746240E-02 -5.726432E-03  0.000000E+00  1.146064E-02 -2.093951E-03  6.933215E-17  6.811390E-01  0.000000E+00
  2.175590E-02 -6.362628E-03  5.000000E-01  2.197562E-02 -6.496370E-03  0.000000E+00  1.159700E-02 -1.825392E-03 -1.779134E-17  6.151923E-01  0.000000E+00
  2.676920E-02 -7.084900E-03  5.000000E-01  2.703955E-02 -7.225936E-03  0.000000E+00  1.165289E-02 -1.542192E-03 -2.995418E-17  5.603795E-01  0.000000E+00
  3.232800E-02 -7.754707E-03  5.000000E-01  3.265449E-02 -7.902507E-03  0.000000E+00  1.171848E-02 -1.300602E-03 -1.673009E-17  5.181933E-01  0.000000E+00
  3.842930E-02 -8.374264E-03  5.000000E-01  3.881741E-02 -8.528321E-03  0.000000E+00  1.181232E-02 -1.113853E-03 -4.581686E-18  4.850331E-01  0.000000E+00
  4.507220E-02 -8.953038E-03  5.000000E-01  4.552740E-02 -9.112941E-03  0.000000E+00  1.192685E-02 -9.868561E-04 -5.573778E-20  4.581339E-01  0.000000E+00
  5.225680E-02 -9.515752E-03  5.000000E-01  5.278456E-02 -9.681337E-03  0.000000E+00  1.206215E-02 -9.202719E-04  7.927980E-19  4.358710E-01  0.000000E+00
  5.998640E-02 -1.009022E-02  5.000000E-01  6.059222E-02 -1.026161E-02  0.000000E+00  1.220999E-02 -8.862019E-04  1.288421E-18  4.139470E-01  0.000000E+00
  6.827110E-02 -1.067822E-02  5.000000E-01  6.896059E-02 -1.085554E-02  0.000000E+00  1.234648E-02 -8.511615E-04  8.402079E-19  3.896999E-01  0.000000E+00
  7.712280E-02 -1.127060E-02  5.000000E-01  7.790168E-02 -1.145390E-02  0.000000E+00  1.245303E-02 -8.063943E-04 -3.832760E-19  3.653094E-01  0.000000E+00
  8.655260E-02 -1.186039E-02  5.000000E-01  8.742672E-02 -1.204966E-02  0.000000E+00  1.251818E-02 -7.516437E-04 -1.088710E-18  3.428578E-01  0.000000E+00
  9.657140E-02 -1.243713E-02  5.000000E-01  9.754670E-02 -1.263222E-02  0.000000E+00  1.252555E-02 -6.793721E-04 -6.530384E-19  3.220437E-01  0.000000E+00
  1.071900E-01 -1.297810E-02  5.000000E-01  1.082725E-01 -1.317865E-02  0.000000E+00  1.246115E-02 -5.889729E-04 -2.171094E-19  3.033112E-01  0.000000E+00
  1.184180E-01 -1.346671E-02  5.000000E-01  1.196139E-01 -1.367220E-02  0.000000E+00  1.232918E-02 -4.973389E-04 -1.482943E-19  2.889138E-01  0.000000E+00
  1.302610E-01 -1.390577E-02  5.000000E-01  1.315765E-01 -1.411569E-02  0.000000E+00  1.214616E-02 -4.220575E-04  2.546492E-19  2.794274E-01  0.000000E+00
  1.427230E-01 -1.430920E-02  5.000000E-01  1.441644E-01 -1.452320E-02  0.000000E+00  1.192915E-02 -3.714418E-04  4.299804E-19  2.734793E-01  0.000000E+00
  1.427230E-01 -1.430920E-02  5.000000E-01  1.441644E-01 -1.452320E-02  0.000000E+00  1.192915E-02 -3.714418E-04  4.299804E-19  2.734793E-01  0.000000E+00
  1.558070E-01 -1.470026E-02  5.000000E-01  1.573805E-01 -1.491820E-02  0.000000E+00  1.169342E-02 -3.442906E-04  4.495002E-19  2.692613E-01  0.000000E+00
  1.695140E-01 -1.509799E-02  5.000000E-01  1.712260E-01 -1.531995E-02  0.000000E+00  1.145942E-02 -3.355281E-04  7.580157E-19  2.654436E-01  0.000000E+00
  1.838420E-01 -1.552143E-02  5.000000E-01  1.856987E-01 -1.574767E-02  0.000000E+00  1.126534E-02 -3.482795E-04  6.722433E-19  2.619104E-01  0.000000E+00
  1.987870E-01 -1.600361E-02  5.000000E-01  2.007946E-01 -1.623472E-02  0.000000E+00  1.117081E-02 -3.967375E-04  2.144492E-19  2.587334E-01  0.000000E+00
  2.143420E-01 -1.660566E-02  5.000000E-01  2.165067E-01 -1.684285E-02  0.000000E+00  1.124348E-02 -4.967796E-04 -8.089351E-20  2.543874E-01  0.000000E+00
  2.304940E-01 -1.740655E-02  5.000000E-01  2.328218E-01 -1.765183E-02  0.000000E+00  1.153037E-02 -6.487024E-04 -3.852366E-19  2.441595E-01  0.000000E+00
  2.472290E-01 -1.845663E-02  5.000000E-01  2.497258E-01 -1.871251E-02  0.000000E+00  1.204128E-02 -8.393617E-04 -2.542786E-19  2.236599E-01  0.000000E+00
  2.645310E-01 -1.977752E-02  5.000000E-01  2.672026E-01 -2.004674E-02  0.000000E+00  1.274001E-02 -1.037614E-03  1.680439E-19  1.904486E-01  0.000000E+00
  2.823750E-01 -2.131784E-02  5.000000E-01  2.852268E-01 -2.160261E-02  0.000000E+00  1.353948E-02 -1.185019E-03 -2.976060E-19  1.434752E-01  0.000000E+00
  3.007320E-01 -2.294621E-02  5.000000E-01  3.037692E-01 -2.324743E-02  0.000000E+00  1.432021E-02 -1.216319E-03 -8.637104E-19  8.585810E-02  0.000000E+00
  3.195690E-01 -2.447994E-02  5.000000E-01  3.227964E-01 -2.479665E-02  0.000000E+00  1.495701E-02 -1.083271E-03 -4.302493E-19  2.372165E-02  0.000000E+00
  3.388440E-01 -2.570880E-02  5.000000E-01  3.422661E-01 -2.603792E-02  0.000000E+00  1.536169E-02 -7.987871E-04 -3.811588E-19 -3.300925E-02  0.000000E+00
  3.585140E-01 -2.650167E-02  5.000000E-01  3.621347E-01 -2.683880E-02  0.000000E+00  1.550500E-02 -4.347922E-04 -5.768742E-19 -7.400858E-02  0.000000E+00
  3.785290E-01 -2.681608E-02  5.000000E-01  3.823518E-01 -2.715639E-02  0.000000E+00  1.537789E-02 -4.640207E-05 -6.830576E-19 -9.819303E-02  0.000000E+00
  3.988350E-01 -2.661591E-02  5.000000E-01  4.028629E-01 -2.695420E-02  0.000000E+00  1.497589E-02  3.415350E-04 -6.225322E-19 -1.092707E-01  0.000000E+00
  4.193750E-01 -2.587260E-02  5.000000E-01  4.236103E-01 -2.620338E-02  0.000000E+00  1.431779E-02  7.111032E-04 -2.725642E-19 -1.085374E-01  0.000000E+00
  4.400850E-01 -2.454996E-02  5.000000E-01  4.445295E-01 -2.486737E-02  0.000000E+00  1.345772E-02  1.038034E-03 -5.797611E-19 -9.494314E-02  0.000000E+00
  4.609060E-01 -2.264641E-02  5.000000E-01  4.655608E-01 -2.294460E-02  0.000000E+00  1.248471E-02  1.276014E-03  4.407552E-19 -6.573838E-02  0.000000E+00
  4.818030E-01 -2.026290E-02  5.000000E-01  4.866688E-01 -2.053702E-02  0.000000E+00  1.147885E-02  1.385948E-03  1.997622E-18 -2.158696E-02  0.000000E+00
  5.027520E-01 -1.757975E-02  5.000000E-01  5.078294E-01 -1.782678E-02  0.000000E+00  1.044743E-02  1.386442E-03  1.860118E-18  2.816157E-02  0.000000E+00
  5.237130E-01 -1.469652E-02  5.000000E-01  5.290021E-01 -1.491442E-02  0.000000E+00  9.330744E-03  1.341494E-03  1.351799E-18  7.171540E-02  0.000000E+00
  5.446170E-01 -1.155239E-02  5.000000E-01  5.501172E-01 -1.173855E-02  0.000000E+00  8.103656E-03  1.284289E-03  1.333995E-18  1.086655E-01  0.000000E+00
  5.653940E-01 -8.057426E-03  5.000000E-01  5.711040E-01 -8.208283E-03  0.000000E+00  6.878546E-03  1.183419E-03  1.823708E-19  1.543936E-01  0.000000E+00
  4.675910E-01  5.890395E-02  5.000000E-01  4.723133E-01  5.942934E-02  0.000000E+00  1.349347E-02 -6.060541E-04  2.752536E-19 -5.559048E-01  0.000000E+00
  4.464640E-01  5.982711E-02  5.000000E-01  4.509729E-01  6.036183E-02  0.000000E+00  1.367350E-02 -5.827250E-04  7.649651E-20 -5.809284E-01  0.000000E+00
  4.254410E-01  6.069962E-02  5.000000E-01  4.297376E-01  6.124315E-02  0.000000E+00  1.393173E-02 -5.573740E-04 -2.210220E-20 -6.123391E-01  0.000000E+00
  4.045840E-01  6.150340E-02  5.000000E-01  4.086700E-01  6.205505E-02  0.000000E+00  1.429399E-02 -5.190163E-04 -2.442040E-19 -6.490463E-01  0.000000E+00
  3.839530E-01  6.220797E-02  5.000000E-01  3.878306E-01  6.276674E-02  0.000000E+00  1.477043E-02 -4.593036E-04 -3.364059E-19 -6.898084E-01  0.000000E+00
  3.636060E-01  6.278093E-02  5.000000E-01  3.672781E-01  6.334548E-02  0.000000E+00  1.535728E-02 -3.731893E-04 -1.323448E-19 -7.338706E-01  0.000000E+00
  3.435960E-01  6.319314E-02  5.000000E-01  3.470660E-01  6.376185E-02  0.000000E+00  1.604373E-02 -2.564310E-04  6.296886E-19 -7.812941E-01  0.000000E+00
  3.239710E-01  6.341952E-02  5.000000E-01  3.272428E-01  6.399052E-02  0.000000E+00  1.681942E-02 -1.038472E-04  6.570146E-19 -8.325191E-01  0.000000E+00
  3.047740E-01  6.343908E-02  5.000000E-01  3.078520E-01  6.401028E-02  0.000000E+00  1.767889E-02  9.572674E-05 -1.513251E-19 -8.861930E-01  0.000000E+00
  2.860450E-01  6.322310E-02  5.000000E-01  2.889338E-01  6.379211E-02  0.000000E+00  1.861052E-02  3.581792E-04 -4.537975E-19 -9.383624E-01  0.000000E+00
  2.678190E-01  6.273923E-02  5.000000E-01  2.705238E-01  6.330336E-02  0.000000E+00  1.957724E-02  6.893664E-04 -4.602208E-19 -9.851922E-01  0.000000E+00
  2.501300E-01  6.197063E-02  5.000000E-01  2.526561E-01  6.252700E-02  0.000000E+00  2.051973E-02  1.079882E-03 -9.623598E-20 -1.024693E+00  0.000000E+00
  2.330040E-01  6.091888E-02  5.000000E-01  2.353572E-01  6.146463E-02  0.000000E+00  2.137997E-02  1.514128E-03  3.176454E-19 -1.055750E+00  0.000000E+00
  2.164660E-01  5.959764E-02  5.000000E-01  2.186521E-01  6.013004E-02  0.000000E+00  2.211987E-02  1.976607E-03  5.481035E-20 -1.076987E+00  0.000000E+00
  2.005340E-01  5.802823E-02  5.000000E-01  2.025592E-01  5.854479E-02  0.000000E+00  2.272646E-02  2.456377E-03 -1.448199E-19 -1.086553E+00  0.000000E+00
  1.852230E-01  5.623133E-02  5.000000E-01  1.870936E-01  5.672973E-02  0.000000E+00  2.319897E-02  2.938077E-03 -1.383397E-20 -1.085347E+00  0.000000E+00
  1.705440E-01  5.423878E-02  5.000000E-01  1.722664E-01  5.471707E-02  0.000000E+00  2.354705E-02  3.398602E-03  4.025093E-19 -1.079945E+00  0.000000E+00
  1.565000E-01  5.209137E-02  5.000000E-01  1.580805E-01  5.254796E-02  0.000000E+00  2.381310E-02  3.829162E-03  1.203077E-18 -1.079522E+00  0.000000E+00
  1.430940E-01  4.982845E-02  5.000000E-01  1.445391E-01  5.026219E-02  0.000000E+00  2.408239E-02  4.262237E-03  5.255527E-19 -1.087509E+00  0.000000E+00
  1.303270E-01  4.746472E-02  5.000000E-01  1.316432E-01  4.787459E-02  0.000000E+00  2.444209E-02  4.772573E-03 -7.237500E-19 -1.094735E+00  0.000000E+00
  1.182110E-01  4.497966E-02  5.000000E-01  1.194048E-01  4.536444E-02  0.000000E+00  2.488299E-02  5.398445E-03 -4.239659E-19 -1.086782E+00  0.000000E+00
  1.067560E-01  4.236404E-02  5.000000E-01  1.078342E-01  4.272240E-02  0.000000E+00  2.527157E-02  6.094385E-03  5.231237E-19 -1.055590E+00  0.000000E+00
  9.596750E-02  3.962721E-02  5.000000E-01  9.693670E-02  3.995793E-02  0.000000E+00  2.542677E-02  6.725153E-03  7.610623E-19 -1.009661E+00  0.000000E+00
  8.582800E-02  3.683358E-02  5.000000E-01  8.669480E-02  3.713609E-02  0.000000E+00  2.528310E-02  7.174753E-03  4.426650E-19 -9.669706E-01  0.000000E+00
  8.582800E-02  3.683358E-02  5.000000E-01  8.669480E-02  3.713609E-02  0.000000E+00  2.528310E-02  7.174753E-03  4.426650E-19 -9.669706E-01  0.000000E+00
  7.631050E-02  3.405182E-02  5.000000E-01  7.708118E-02  3.432624E-02  0.000000E+00  2.497431E-02  7.513299E-03  1.430199E-18 -9.313591E-01  0.000000E+00
  6.740780E-02  3.129688E-02  5.000000E-01  6.808857E-02  3.154347E-02  0.000000E+00  2.466288E-02  7.866379E-03  2.469137E-18 -8.962968E-01  0.000000E+00
  5.911740E-02  2.857343E-02  5.000000E-01  5.971444E-02  2.879251E-02  0.000000E+00  2.440263E-02  8.255670E-03  4.801364E-18 -8.592347E-01  0.000000E+00
  5.143150E-02  2.589744E-02  5.000000E-01  5.195092E-02  2.608950E-02  0.000000E+00  2.417540E-02  8.651261E-03  1.226197E-17 -8.212737E-01  0.000000E+00
  4.433770E-02  2.328975E-02  5.000000E-01  4.478548E-02  2.345547E-02  0.000000E+00  2.395038E-02  9.032326E-03  2.939435E-17 -7.855870E-01  0.000000E+00
  3.782240E-02  2.076989E-02  5.000000E-01  3.820438E-02  2.091016E-02  0.000000E+00  2.371843E-02  9.404798E-03  5.540937E-17 -7.566168E-01  0.000000E+00
  3.187460E-02  1.835193E-02  5.000000E-01  3.219651E-02  1.846779E-02  0.000000E+00  2.350382E-02  9.798078E-03  6.386813E-17 -7.376783E-01  0.000000E+00
  2.648400E-02  1.604760E-02  5.000000E-01  2.675147E-02  1.614018E-02  0.000000E+00  2.334648E-02  1.027667E-02 -2.365997E-17 -7.231878E-01  0.000000E+00
  2.164990E-02  1.385913E-02  5.000000E-01  2.186855E-02  1.392961E-02  0.000000E+00  2.321138E-02  1.088641E-02 -3.489548E-16 -6.973965E-01  0.000000E+00
  1.737670E-02  1.178701E-02  5.000000E-01  1.755220E-02  1.183656E-02  0.000000E+00  2.290933E-02  1.148716E-02 -1.070146E-15 -6.550989E-01  0.000000E+00
  1.364080E-02  9.851407E-03  5.000000E-01  1.377857E-02  9.881414E-03  0.000000E+00  2.222160E-02  1.179574E-02 -2.255699E-15 -6.153127E-01  0.000000E+00
  1.039090E-02  8.082180E-03  5.000000E-01  1.049584E-02  8.094320E-03  0.000000E+00  2.108701E-02  1.170067E-02 -3.760744E-15 -6.053384E-01  0.000000E+00
  7.586340E-03  6.494093E-03  5.000000E-01  7.662961E-03  6.490193E-03  0.000000E+00  1.959708E-02  1.140768E-02 -5.169409E-15 -6.414690E-01  0.000000E+00
  5.226210E-03  5.079044E-03  5.000000E-01  5.278995E-03  5.060854E-03  0.000000E+00  1.796746E-02  1.127008E-02 -5.880863E-15 -7.354466E-01  0.000000E+00
  3.324300E-03  3.825034E-03  5.000000E-01  3.357878E-03  3.794179E-03  0.000000E+00  1.683845E-02  1.190896E-02 -5.434388E-15 -8.986952E-01  0.000000E+00
  1.883580E-03  2.729899E-03  5.000000E-01  1.902608E-03  2.687985E-03  0.000000E+00  1.749139E-02  1.496905E-02 -4.041687E-15 -1.103918E+00  0.000000E+00
  8.951490E-04  1.799919E-03  5.000000E-01  9.041944E-04  1.748612E-03  0.000000E+00  2.036134E-02  2.330574E-02 -2.854565E-15 -1.253701E+00  0.000000E+00
  3.201820E-04  1.051303E-03  5.000000E-01  3.234207E-04  9.924361E-04  0.000000E+00  2.185654E-02  3.787275E-02 -3.207240E-15 -1.236768E+00  0.000000E+00
  6.852390E-05  5.052090E-04  5.000000E-01  6.922102E-05  4.408270E-04  0.000000E+00  1.687881E-02  5.362504E-02 -5.244797E-15 -1.114103E+00  0.000000E+00
  4.217600E-06  1.773853E-04  5.000000E-01  4.265278E-06  1.096925E-04  0.000000E+00  7.504695E-03  7.096178E-02 -7.836131E-15 -1.128686E+00  0.000000E+00
 -5.032520E-09  6.878948E-05  5.000000E-01  0.000000E+00  0.000000E+00  0.000000E+00 -2.572270E-03  1.059747E-01 -1.027178E-14 -1.198955E+00  0.000000E+00
  5.154440E-06 -4.005424E-05  5.000000E-01  5.211579E-06 -1.099430E-04  0.000000E+00 -1.739581E-02  1.229348E-01 -1.228793E-14 -8.373662E-01  0.000000E+00