 Title = "ADflow Slice Data"
Variables =  "CoordinateX"  "CoordinateY"  "CoordinateZ"  "XoC"  "YoC"  "ZoC" "VelocityX" "VelocityY" "VelocityZ" "CoefPressure" "Mach" 
Zone T= "Slice_0001 None Absolute Regular z = 0.50000000"
 Nodes =          192  Elements=          184  ZONETYPE=FELINESEG
 DATAPACKING=POINT
  5.653940E-01  3.422828E-03  5.000000E-01  5.711040E-01  3.380720E-03  0.000000E+00  8.209633E-03  7.241550E-04 -1.075154E-18  2.138992E-01  0.000000E+00
  5.859770E-01  5.261893E-03  5.000000E-01  5.918948E-01  5.238359E-03  0.000000E+00  7.908931E-03  7.125153E-04 -2.202002E-20  2.264319E-01  0.000000E+00
  6.063060E-01  7.109829E-03  5.000000E-01  6.124291E-01  7.104957E-03  0.000000E+00  7.594295E-03  6.880924E-04  1.062454E-18  2.442836E-01  0.000000E+00
  6.263240E-01  8.917005E-03  5.000000E-01  6.326493E-01  8.930383E-03  0.000000E+00  7.303972E-03  6.427339E-04  8.652295E-19  2.643132E-01  0.000000E+00
  6.459860E-01  1.060079E-02  5.000000E-01  6.525099E-01  1.063117E-02  0.000000E+00  7.069102E-03  5.758192E-04  8.350479E-20  2.839740E-01  0.000000E+00
  6.652460E-01  1.208629E-02  5.000000E-01  6.719644E-01  1.213168E-02  0.000000E+00  6.898166E-03  4.974479E-04 -4.170514E-20  3.005119E-01  0.000000E+00
  6.840650E-01  1.334491E-02  5.000000E-01  6.909734E-01  1.340300E-02  0.000000E+00  6.774123E-03  4.232415E-04 -8.360836E-19  3.118584E-01  0.000000E+00
  7.024070E-01  1.440765E-02  5.000000E-01  7.095007E-01  1.447648E-02  0.000000E+00  6.670985E-03  3.602654E-04 -1.445914E-18  3.192917E-01  0.000000E+00
  7.202400E-01  1.530070E-02  5.000000E-01  7.275138E-01  1.537855E-02  0.000000E+00  6.571564E-03  3.043520E-04 -8.101808E-19  3.260513E-01  0.000000E+00
  7.375350E-01  1.603651E-02  5.000000E-01  7.449834E-01  1.612179E-02  0.000000E+00  6.470303E-03  2.507470E-04 -6.442880E-20  3.333962E-01  0.000000E+00
  7.542690E-01  1.662079E-02  5.000000E-01  7.618864E-01  1.671197E-02  0.000000E+00  6.371943E-03  1.971128E-04  3.620236E-19  3.409988E-01  0.000000E+00
  7.704220E-01  1.705461E-02  5.000000E-01  7.782026E-01  1.715017E-02  0.000000E+00  6.289946E-03  1.417375E-04  3.471168E-19  3.480779E-01  0.000000E+00
  7.859770E-01  1.733700E-02  5.000000E-01  7.939146E-01  1.743542E-02  0.000000E+00  6.246601E-03  7.729757E-05  3.795817E-20  3.547721E-01  0.000000E+00
  8.009220E-01  1.743701E-02  5.000000E-01  8.090106E-01  1.753644E-02  0.000000E+00  6.268211E-03 -5.997384E-06  5.731910E-20  3.614062E-01  0.000000E+00
  8.152480E-01  1.731459E-02  5.000000E-01  8.234813E-01  1.741278E-02  0.000000E+00  6.366747E-03 -1.045139E-04 -1.026599E-19  3.652993E-01  0.000000E+00
  8.289490E-01  1.698215E-02  5.000000E-01  8.373206E-01  1.707698E-02  0.000000E+00  6.531607E-03 -2.057188E-04 -3.226551E-19  3.639589E-01  0.000000E+00
  8.420260E-01  1.647805E-02  5.000000E-01  8.505297E-01  1.656779E-02  0.000000E+00  6.741462E-03 -3.024648E-04 -6.142400E-19  3.585841E-01  0.000000E+00
  8.544790E-01  1.584370E-02  5.000000E-01  8.631085E-01  1.592703E-02  0.000000E+00  6.974124E-03 -3.919527E-04 -7.687196E-19  3.512040E-01  0.000000E+00
  8.663160E-01  1.511847E-02  5.000000E-01  8.750650E-01  1.519448E-02  0.000000E+00  7.208807E-03 -4.722953E-04 -6.627989E-19  3.428862E-01  0.000000E+00
  8.775420E-01  1.433682E-02  5.000000E-01  8.864044E-01  1.440494E-02  0.000000E+00  7.427503E-03 -5.416147E-04 -5.287150E-19  3.341932E-01  0.000000E+00
  8.881660E-01  1.352802E-02  5.000000E-01  8.971357E-01  1.358797E-02  0.000000E+00  7.617439E-03 -5.985697E-04 -1.527729E-19  3.255619E-01  0.000000E+00
  8.981970E-01  1.271571E-02  5.000000E-01  9.072680E-01  1.276745E-02  0.000000E+00  7.774469E-03 -6.457347E-04 -5.292298E-22  3.176033E-01  0.000000E+00
  9.076460E-01  1.191193E-02  5.000000E-01  9.168124E-01  1.195556E-02  0.000000E+00  7.905796E-03 -6.912034E-04 -1.553817E-19  3.111028E-01  0.000000E+00
  9.165220E-01  1.111549E-02  5.000000E-01  9.257780E-01  1.115107E-02  0.000000E+00  8.025651E-03 -7.418057E-04  6.225344E-20  3.058466E-01  0.000000E+00
  9.165220E-01  1.111549E-02  5.000000E-01  9.257780E-01  1.115107E-02  0.000000E+00  8.025651E-03 -7.418057E-04  6.225344E-20  3.058466E-01  0.000000E+00
  9.248360E-01  1.032474E-02  5.000000E-01  9.341760E-01  1.035233E-02  0.000000E+00  8.147037E-03 -7.990773E-04  3.608327E-19  3.007291E-01  0.000000E+00
  9.325990E-01  9.540454E-03  5.000000E-01  9.420174E-01  9.560129E-03  0.000000E+00  8.279152E-03 -8.629750E-04 -6.055667E-20  2.951482E-01  0.000000E+00
  9.398210E-01  8.764879E-03  5.000000E-01  9.493123E-01  8.776721E-03  0.000000E+00  8.428708E-03 -9.335893E-04 -4.756421E-19  2.889919E-01  0.000000E+00
  9.465130E-01  8.001498E-03  5.000000E-01  9.560719E-01  8.005631E-03  0.000000E+00  8.600517E-03 -1.010953E-03 -2.460079E-19  2.821710E-01  0.000000E+00
  9.526870E-01  7.254767E-03  5.000000E-01  9.623083E-01  7.251358E-03  0.000000E+00  8.797491E-03 -1.095005E-03 -9.899397E-20  2.745732E-01  0.000000E+00
  9.583540E-01  6.529913E-03  5.000000E-01  9.680325E-01  6.519184E-03  0.000000E+00  9.021041E-03 -1.185573E-03 -2.893392E-19  2.661213E-01  0.000000E+00
  9.635240E-01  5.832724E-03  5.000000E-01  9.732547E-01  5.814955E-03  0.000000E+00  9.271886E-03 -1.282245E-03 -9.691288E-20  2.567522E-01  0.000000E+00
  9.682080E-01  5.169270E-03  5.000000E-01  9.779860E-01  5.144800E-03  0.000000E+00  9.551969E-03 -1.384924E-03  2.124307E-21  2.464782E-01  0.000000E+00
  9.724140E-01  4.545800E-03  5.000000E-01  9.822345E-01  4.515033E-03  0.000000E+00  9.866977E-03 -1.493964E-03 -2.857664E-19  2.353537E-01  0.000000E+00
  9.761510E-01  3.968482E-03  5.000000E-01  9.860092E-01  3.931886E-03  0.000000E+00  1.022636E-02 -1.609786E-03 -4.692078E-19  2.233922E-01  0.000000E+00
  9.794290E-01  3.443188E-03  5.000000E-01  9.893203E-01  3.401286E-03  0.000000E+00  1.063586E-02 -1.732862E-03 -4.643944E-19  2.106516E-01  0.000000E+00
  9.822540E-01  2.975546E-03  5.000000E-01  9.921739E-01  2.928922E-03  0.000000E+00  1.107835E-02 -1.860813E-03  1.585203E-19  1.974282E-01  0.000000E+00
  9.846330E-01  2.570625E-03  5.000000E-01  9.945769E-01  2.519911E-03  0.000000E+00  1.149364E-02 -1.980916E-03  1.612013E-18  1.849939E-01  0.000000E+00
  9.865710E-01  2.232921E-03  5.000000E-01  9.965345E-01  2.178797E-03  0.000000E+00  1.173956E-02 -2.056122E-03  2.578353E-18  1.721976E-01  0.000000E+00
  9.880740E-01  1.966186E-03  5.000000E-01  9.980526E-01  1.909368E-03  0.000000E+00  1.159129E-02 -2.074888E-03 -2.055052E-18  1.529976E-01  0.000000E+00
  9.891450E-01  1.773450E-03  5.000000E-01  9.991345E-01  1.714685E-03  0.000000E+00  1.172028E-02 -2.199356E-03 -2.513721E-17  1.545093E-01  0.000000E+00
  9.897860E-01  1.656934E-03  5.000000E-01  9.997819E-01  1.596992E-03  0.000000E+00  1.496822E-02 -2.249160E-03 -7.226736E-17  2.013447E-01  0.000000E+00
  9.900000E-01  1.617937E-03  5.000000E-01  9.999981E-01  1.557602E-03  0.000000E+00  1.042079E-02 -4.664520E-03 -7.661403E-17 -3.983623E-02  0.000000E+00
  9.900000E-01  1.696647E-03  5.000000E-01  9.999981E-01  1.637107E-03  0.000000E+00  1.044100E-03 -1.494983E-02  5.912751E-18 -1.752665E-01  0.000000E+00
  9.900000E-01  1.775367E-03  5.000000E-01  9.999981E-01  1.716622E-03  0.000000E+00 -5.226239E-04 -1.416628E-02  8.680403E-17 -1.719519E-03  0.000000E+00
  9.900000E-01  1.854087E-03  5.000000E-01  9.999981E-01  1.796137E-03  0.000000E+00 -2.818776E-04  1.744257E-03  1.042171E-16 -6.674639E-03  0.000000E+00
  9.900000E-01  1.932797E-03  5.000000E-01  9.999981E-01  1.875642E-03  0.000000E+00  6.770763E-04  3.313301E-03  1.299270E-16 -1.186123E-01  0.000000E+00
  9.900000E-01  2.011518E-03  5.000000E-01  9.999981E-01  1.955157E-03  0.000000E+00  5.535702E-03 -2.673959E-03  1.637513E-16 -2.895608E-02  0.000000E+00
  9.900000E-01  2.011518E-03  5.000000E-01  9.999981E-01  1.955157E-03  0.000000E+00  5.535702E-03 -2.673959E-03  1.637513E-16 -2.895608E-02  0.000000E+00
  9.897900E-01  2.060250E-03  5.000000E-01  9.997860E-01  2.004382E-03  0.000000E+00  7.150234E-03 -1.973332E-03  1.170804E-16  1.051188E-01  0.000000E+00
  9.891580E-01  2.206534E-03  5.000000E-01  9.991476E-01  2.152143E-03  0.000000E+00  4.318430E-03 -9.416075E-04  3.974670E-17  6.506940E-02  0.000000E+00
  9.881040E-01  2.450491E-03  5.000000E-01  9.980829E-01  2.398563E-03  0.000000E+00  3.516007E-03 -8.120881E-04  3.995452E-18  5.624981E-02  0.000000E+00
  9.866260E-01  2.792354E-03  5.000000E-01  9.965900E-01  2.743879E-03  0.000000E+00  3.265530E-03 -7.604253E-04 -3.904946E-18  5.858059E-02  0.000000E+00
  9.847200E-01  3.232454E-03  5.000000E-01  9.946648E-01  3.188424E-03  0.000000E+00  3.130347E-03 -7.216528E-04 -2.638102E-18  5.418934E-02  0.000000E+00
  9.823820E-01  3.771139E-03  5.000000E-01  9.923032E-01  3.732550E-03  0.000000E+00  3.132476E-03 -7.202627E-04 -8.285682E-19  4.704177E-02  0.000000E+00
  9.796080E-01  4.408724E-03  5.000000E-01  9.895011E-01  4.376573E-03  0.000000E+00  3.248816E-03 -7.454304E-04 -7.058651E-19  3.907150E-02  0.000000E+00
  9.763910E-01  5.145539E-03  5.000000E-01  9.862517E-01  5.120829E-03  0.000000E+00  3.437104E-03 -7.857941E-04 -5.247783E-19  2.976762E-02  0.000000E+00
  9.727270E-01  5.981646E-03  5.000000E-01  9.825506E-01  5.965380E-03  0.000000E+00  3.669452E-03 -8.351595E-04 -6.612603E-19  1.895522E-02  0.000000E+00
  9.686070E-01  6.917103E-03  5.000000E-01  9.783890E-01  6.910284E-03  0.000000E+00  3.930159E-03 -8.896311E-04 -1.125478E-18  6.777702E-03  0.000000E+00
  9.640240E-01  7.951573E-03  5.000000E-01  9.737598E-01  7.955201E-03  0.000000E+00  4.211783E-03 -9.470688E-04 -5.716202E-19 -6.701390E-03  0.000000E+00
  9.589680E-01  9.084444E-03  5.000000E-01  9.686527E-01  9.099513E-03  0.000000E+00  4.512532E-03 -1.006671E-03  1.562302E-19 -2.144213E-02  0.000000E+00
  9.534310E-01  1.031455E-02  5.000000E-01  9.630598E-01  1.034205E-02  0.000000E+00  4.833180E-03 -1.068123E-03  1.808330E-19 -3.741054E-02  0.000000E+00
  9.474030E-01  1.164020E-02  5.000000E-01  9.569709E-01  1.168108E-02  0.000000E+00  5.174640E-03 -1.130823E-03 -2.862527E-19 -5.449084E-02  0.000000E+00
  9.408720E-01  1.305899E-02  5.000000E-01  9.503739E-01  1.311420E-02  0.000000E+00  5.536616E-03 -1.194009E-03 -1.543445E-19 -7.261205E-02  0.000000E+00
  9.338280E-01  1.456761E-02  5.000000E-01  9.432588E-01  1.463806E-02  0.000000E+00  5.917772E-03 -1.256656E-03  2.836684E-19 -9.169933E-02  0.000000E+00
  9.262600E-01  1.616181E-02  5.000000E-01  9.356144E-01  1.624836E-02  0.000000E+00  6.315616E-03 -1.317093E-03 -4.812108E-20 -1.115879E-01  0.000000E+00
  9.181550E-01  1.783598E-02  5.000000E-01  9.274275E-01  1.793943E-02  0.000000E+00  6.726024E-03 -1.373330E-03 -8.814733E-19 -1.321311E-01  0.000000E+00
  9.095020E-01  1.958326E-02  5.000000E-01  9.186871E-01  1.970436E-02  0.000000E+00  7.143071E-03 -1.422891E-03 -1.783745E-18 -1.529868E-01  0.000000E+00
  9.002880E-01  2.139499E-02  5.000000E-01  9.093801E-01  2.153438E-02  0.000000E+00  7.557796E-03 -1.462912E-03 -2.044606E-18 -1.734891E-01  0.000000E+00
  8.905020E-01  2.326093E-02  5.000000E-01  8.994953E-01  2.341916E-02  0.000000E+00  7.957763E-03 -1.491727E-03 -1.040324E-19 -1.931027E-01  0.000000E+00
  8.801320E-01  2.517306E-02  5.000000E-01  8.890205E-01  2.535061E-02  0.000000E+00  8.329928E-03 -1.509585E-03  1.528496E-18 -2.116777E-01  0.000000E+00
  8.691700E-01  2.712630E-02  5.000000E-01  8.779478E-01  2.732357E-02  0.000000E+00  8.664124E-03 -1.517148E-03  9.751664E-19 -2.291508E-01  0.000000E+00
  8.691700E-01  2.712630E-02  5.000000E-01  8.779478E-01  2.732357E-02  0.000000E+00  8.664124E-03 -1.517148E-03  9.751664E-19 -2.291508E-01  0.000000E+00
  8.576080E-01  2.911656E-02  5.000000E-01  8.662691E-01  2.933393E-02  0.000000E+00  8.953734E-03 -1.514941E-03  4.700059E-20 -2.453499E-01  0.000000E+00
  8.454380E-01  3.114089E-02  5.000000E-01  8.539761E-01  3.137871E-02  0.000000E+00  9.194982E-03 -1.504631E-03 -1.223889E-19 -2.601142E-01  0.000000E+00
  8.326580E-01  3.319857E-02  5.000000E-01  8.410671E-01  3.345717E-02  0.000000E+00  9.387721E-03 -1.489253E-03 -8.965249E-19 -2.732778E-01  0.000000E+00
  8.192630E-01  3.529276E-02  5.000000E-01  8.275368E-01  3.557250E-02  0.000000E+00  9.536966E-03 -1.473916E-03 -1.335546E-18 -2.851170E-01  0.000000E+00
  8.052550E-01  3.743324E-02  5.000000E-01  8.133873E-01  3.773461E-02  0.000000E+00  9.656297E-03 -1.465526E-03  1.105905E-18 -2.969623E-01  0.000000E+00
  7.906370E-01  3.963670E-02  5.000000E-01  7.986217E-01  3.996032E-02  0.000000E+00  9.771613E-03 -1.470090E-03  2.353763E-18 -3.110694E-01  0.000000E+00
  7.754120E-01  4.192206E-02  5.000000E-01  7.832429E-01  4.226876E-02  0.000000E+00  9.919977E-03 -1.489384E-03  9.656808E-19 -3.294610E-01  0.000000E+00
  7.595880E-01  4.429808E-02  5.000000E-01  7.672591E-01  4.466877E-02  0.000000E+00  1.014048E-02 -1.518234E-03  7.099882E-19 -3.524547E-01  0.000000E+00
  7.431760E-01  4.674838E-02  5.000000E-01  7.506814E-01  4.714382E-02  0.000000E+00  1.045837E-02 -1.549842E-03  1.196193E-18 -3.797529E-01  0.000000E+00
  7.261880E-01  4.924710E-02  5.000000E-01  7.335218E-01  4.966777E-02  0.000000E+00  1.087887E-02 -1.578664E-03  1.127294E-18 -4.112208E-01  0.000000E+00
  7.086430E-01  5.175920E-02  5.000000E-01  7.157996E-01  5.220525E-02  0.000000E+00  1.139026E-02 -1.596142E-03  1.441876E-18 -4.455341E-01  0.000000E+00
  6.905640E-01  5.423986E-02  5.000000E-01  6.975381E-01  5.471096E-02  0.000000E+00  1.196366E-02 -1.591682E-03  9.560259E-19 -4.798691E-01  0.000000E+00
  6.719770E-01  5.663958E-02  5.000000E-01  6.787634E-01  5.713491E-02  0.000000E+00  1.255465E-02 -1.557994E-03 -1.613141E-19 -5.109674E-01  0.000000E+00
  6.529150E-01  5.891492E-02  5.000000E-01  6.595088E-01  5.943323E-02  0.000000E+00  1.311154E-02 -1.496949E-03 -2.041621E-19 -5.372143E-01  0.000000E+00
  6.334180E-01  6.104378E-02  5.000000E-01  6.398149E-01  6.158359E-02  0.000000E+00  1.359254E-02 -1.418934E-03  3.119530E-19 -5.595534E-01  0.000000E+00
  6.135280E-01  6.302727E-02  5.000000E-01  6.197241E-01  6.358711E-02  0.000000E+00  1.398322E-02 -1.332701E-03  1.224352E-18 -5.795659E-01  0.000000E+00
  5.932910E-01  6.486842E-02  5.000000E-01  5.992827E-01  6.544686E-02  0.000000E+00  1.429531E-02 -1.241397E-03  2.920345E-19 -5.979705E-01  0.000000E+00
  5.727570E-01  6.656805E-02  5.000000E-01  5.785413E-01  6.716365E-02  0.000000E+00  1.455252E-02 -1.146569E-03 -2.018990E-19 -6.146652E-01  0.000000E+00
  5.519810E-01  6.812423E-02  5.000000E-01  5.575555E-01  6.873554E-02  0.000000E+00  1.477835E-02 -1.049775E-03  4.215310E-19 -6.293662E-01  0.000000E+00
  5.310180E-01  6.953412E-02  5.000000E-01  5.363808E-01  7.015968E-02  0.000000E+00  1.498897E-02 -9.564600E-04  3.503350E-19 -6.438017E-01  0.000000E+00
  5.099250E-01  7.080731E-02  5.000000E-01  5.150748E-01  7.144572E-02  0.000000E+00  1.520039E-02 -8.739623E-04  7.091726E-19 -6.617818E-01  0.000000E+00
  4.887640E-01  7.196265E-02  5.000000E-01  4.937001E-01  7.261273E-02  0.000000E+00  1.544243E-02 -7.954431E-04  5.033985E-19 -6.844264E-01  0.000000E+00
  4.675910E-01  7.298923E-02  5.000000E-01  4.723132E-01  7.364968E-02  0.000000E+00  1.574329E-02 -7.023237E-04  1.633581E-19 -7.088517E-01  0.000000E+00
  7.860720E-05 -4.834580E-04  5.000000E-01  7.940614E-05 -5.650153E-04  0.000000E+00 -6.483753E-03  2.323001E-02 -2.666426E-16  9.292253E-01  0.000000E+00
  3.989240E-04 -1.138382E-03  5.000000E-01  4.029578E-04 -1.226554E-03  0.000000E+00 -4.701274E-03  8.715344E-03 -1.275689E-16  1.102650E+00  0.000000E+00
  1.196920E-03 -1.935225E-03  5.000000E-01  1.209013E-03 -2.031444E-03  0.000000E+00  1.412822E-03 -4.624966E-04 -1.956182E-17  1.047995E+00  0.000000E+00
  2.563580E-03 -2.776201E-03  5.000000E-01  2.589475E-03 -2.880913E-03  0.000000E+00  6.950221E-03 -3.495571E-03  2.297100E-17  8.944975E-01  0.000000E+00
  4.492740E-03 -3.618513E-03  5.000000E-01  4.538118E-03 -3.731732E-03  0.000000E+00  1.009409E-02 -3.889345E-03  1.422743E-17  7.712259E-01  0.000000E+00
  6.952190E-03 -4.459562E-03  5.000000E-01  7.022406E-03 -4.581275E-03  0.000000E+00  1.166976E-02 -3.686543E-03 -1.258010E-17  6.876216E-01  0.000000E+00
  9.910730E-03 -5.323568E-03  5.000000E-01  1.001082E-02 -5.454006E-03  0.000000E+00  1.258430E-02 -3.505887E-03 -2.751537E-17  6.223438E-01  0.000000E+00
  1.334950E-02 -6.238835E-03  5.000000E-01  1.348432E-02 -6.378516E-03  0.000000E+00  1.324964E-02 -3.343986E-03 -2.364745E-17  5.566546E-01  0.000000E+00
  1.728780E-02 -7.182866E-03  5.000000E-01  1.746240E-02 -7.332081E-03  0.000000E+00  1.372883E-02 -3.053426E-03 -1.214365E-17  4.832152E-01  0.000000E+00
  2.175590E-02 -8.101607E-03  5.000000E-01  2.197562E-02 -8.260101E-03  0.000000E+00  1.399516E-02 -2.627776E-03 -2.417433E-18  4.136420E-01  0.000000E+00
  2.676920E-02 -8.952859E-03  5.000000E-01  2.703955E-02 -9.119949E-03  0.000000E+00  1.408241E-02 -2.172117E-03  2.639338E-18  3.610793E-01  0.000000E+00
  3.232800E-02 -9.722639E-03  5.000000E-01  3.265449E-02 -9.897503E-03  0.000000E+00  1.406210E-02 -1.772828E-03  3.387216E-18  3.269902E-01  0.000000E+00
  3.842930E-02 -1.041590E-02  5.000000E-01  3.881741E-02 -1.059777E-02  0.000000E+00  1.399004E-02 -1.459125E-03  2.131475E-18  3.047426E-01  0.000000E+00
  4.507220E-02 -1.104664E-02  5.000000E-01  4.552739E-02 -1.123487E-02  0.000000E+00  1.391382E-02 -1.242735E-03  7.024505E-19  2.892608E-01  0.000000E+00
  5.225680E-02 -1.164712E-02  5.000000E-01  5.278455E-02 -1.184142E-02  0.000000E+00  1.388196E-02 -1.123539E-03 -3.928500E-19  2.776371E-01  0.000000E+00
  5.998640E-02 -1.225267E-02  5.000000E-01  6.059221E-02 -1.245308E-02  0.000000E+00  1.390551E-02 -1.058930E-03 -5.129475E-19  2.639552E-01  0.000000E+00
  6.827110E-02 -1.286665E-02  5.000000E-01  6.896058E-02 -1.307327E-02  0.000000E+00  1.395543E-02 -1.000032E-03  4.266227E-21  2.449672E-01  0.000000E+00
  7.712280E-02 -1.347928E-02  5.000000E-01  7.790167E-02 -1.369209E-02  0.000000E+00  1.400404E-02 -9.336010E-04 -7.658191E-20  2.239547E-01  0.000000E+00
  8.655260E-02 -1.408335E-02  5.000000E-01  8.742671E-02 -1.430225E-02  0.000000E+00  1.403332E-02 -8.581807E-04 -2.382264E-19  2.038872E-01  0.000000E+00
  9.657140E-02 -1.466710E-02  5.000000E-01  9.754669E-02 -1.489190E-02  0.000000E+00  1.402150E-02 -7.625305E-04 -1.851182E-19  1.844216E-01  0.000000E+00
  1.071900E-01 -1.520372E-02  5.000000E-01  1.082725E-01 -1.543394E-02  0.000000E+00  1.395494E-02 -6.443733E-04 -1.347808E-20  1.660557E-01  0.000000E+00
  1.184180E-01 -1.567240E-02  5.000000E-01  1.196139E-01 -1.590735E-02  0.000000E+00  1.384749E-02 -5.236610E-04  5.942042E-20  1.515355E-01  0.000000E+00
  1.302610E-01 -1.607274E-02  5.000000E-01  1.315765E-01 -1.631174E-02  0.000000E+00  1.372620E-02 -4.197604E-04  1.315721E-19  1.414117E-01  0.000000E+00
  1.427230E-01 -1.641319E-02  5.000000E-01  1.441644E-01 -1.665562E-02  0.000000E+00  1.360787E-02 -3.383706E-04  3.880095E-19  1.336973E-01  0.000000E+00
  1.427230E-01 -1.641319E-02  5.000000E-01  1.441644E-01 -1.665562E-02  0.000000E+00  1.360787E-02 -3.383706E-04  3.880095E-19  1.336973E-01  0.000000E+00
  1.558070E-01 -1.670645E-02  5.000000E-01  1.573805E-01 -1.695184E-02  0.000000E+00  1.348890E-02 -2.709538E-04  2.305871E-19  1.259790E-01  0.000000E+00
  1.695140E-01 -1.695026E-02  5.000000E-01  1.712259E-01 -1.719811E-02  0.000000E+00  1.335175E-02 -2.014484E-04  1.052089E-19  1.169781E-01  0.000000E+00
  1.838420E-01 -1.712760E-02  5.000000E-01  1.856986E-01 -1.737725E-02  0.000000E+00  1.318613E-02 -1.216862E-04  3.112909E-19  1.077976E-01  0.000000E+00
  1.987870E-01 -1.721769E-02  5.000000E-01  2.007946E-01 -1.746825E-02  0.000000E+00  1.300444E-02 -3.641226E-05  2.605195E-19  1.004397E-01  0.000000E+00
  2.143420E-01 -1.720971E-02  5.000000E-01  2.165067E-01 -1.746018E-02  0.000000E+00  1.284360E-02  3.732343E-05 -6.275031E-20  9.640489E-02  0.000000E+00
  2.304940E-01 -1.712289E-02  5.000000E-01  2.328218E-01 -1.737249E-02  0.000000E+00  1.274693E-02  8.246176E-05 -3.920458E-21  9.511842E-02  0.000000E+00
  2.472290E-01 -1.699592E-02  5.000000E-01  2.497258E-01 -1.724424E-02  0.000000E+00  1.273482E-02  9.872973E-05 -6.228498E-20  9.343513E-02  0.000000E+00
  2.645310E-01 -1.685976E-02  5.000000E-01  2.672025E-01 -1.710670E-02  0.000000E+00  1.278539E-02  1.097697E-04 -3.118823E-19  8.726287E-02  0.000000E+00
  2.823750E-01 -1.669558E-02  5.000000E-01  2.852267E-01 -1.694087E-02  0.000000E+00  1.284312E-02  1.487568E-04 -3.021999E-19  7.503287E-02  0.000000E+00
  3.007320E-01 -1.644001E-02  5.000000E-01  3.037691E-01 -1.668272E-02  0.000000E+00  1.285077E-02  2.315558E-04 -5.141367E-19  6.019606E-02  0.000000E+00
  3.195690E-01 -1.602280E-02  5.000000E-01  3.227964E-01 -1.626129E-02  0.000000E+00  1.276895E-02  3.525159E-04 -6.962608E-19  4.787055E-02  0.000000E+00
  3.388440E-01 -1.538349E-02  5.000000E-01  3.422660E-01 -1.561552E-02  0.000000E+00  1.258045E-02  4.909132E-04 -5.376806E-19  4.178687E-02  0.000000E+00
  3.585140E-01 -1.449751E-02  5.000000E-01  3.621347E-01 -1.472060E-02  0.000000E+00  1.228311E-02  6.232513E-04 -2.908269E-19  4.319791E-02  0.000000E+00
  3.785290E-01 -1.336468E-02  5.000000E-01  3.823518E-01 -1.357632E-02  0.000000E+00  1.187683E-02  7.378897E-04  2.166211E-19  5.055162E-02  0.000000E+00
  3.988350E-01 -1.198678E-02  5.000000E-01  4.028629E-01 -1.218451E-02  0.000000E+00  1.136815E-02  8.315318E-04  7.373406E-19  6.248147E-02  0.000000E+00
  4.193750E-01 -1.037059E-02  5.000000E-01  4.236103E-01 -1.055200E-02  0.000000E+00  1.078103E-02  9.065102E-04  8.354404E-19  7.848137E-02  0.000000E+00
  4.400850E-01 -8.511509E-03  5.000000E-01  4.445295E-01 -8.674143E-03  0.000000E+00  1.016583E-02  9.620426E-04  5.019802E-19  9.864292E-02  0.000000E+00
  4.609060E-01 -6.432545E-03  5.000000E-01  4.655607E-01 -6.574183E-03  0.000000E+00  9.601844E-03  9.800972E-04  6.144343E-20  1.244813E-01  0.000000E+00
  4.818030E-01 -4.247103E-03  5.000000E-01  4.866688E-01 -4.366669E-03  0.000000E+00  9.166215E-03  9.408114E-04 -6.245434E-19  1.554916E-01  0.000000E+00
  5.027520E-01 -2.138120E-03  5.000000E-01  5.078293E-01 -2.236388E-03  0.000000E+00  8.877245E-03  8.574055E-04 -4.794143E-19  1.844952E-01  0.000000E+00
  5.237130E-01 -2.064852E-04  5.000000E-01  5.290020E-01 -2.852453E-04  0.000000E+00  8.673764E-03  7.775773E-04  4.811551E-19  2.021526E-01  0.000000E+00
  5.446170E-01  1.607887E-03  5.000000E-01  5.501171E-01  1.547451E-03  0.000000E+00  8.466639E-03  7.368393E-04 -3.809947E-19  2.083385E-01  0.000000E+00
  5.653940E-01  3.422828E-03  5.000000E-01  5.711040E-01  3.380720E-03  0.000000E+00  8.209633E-03  7.241550E-04 -1.075154E-18  2.138992E-01  0.000000E+00
  4.675910E-01  7.298923E-02  5.000000E-01  4.723132E-01  7.364968E-02  0.000000E+00  1.574329E-02 -7.023237E-04  1.633581E-19 -7.088517E-01  0.000000E+00
  4.464640E-01  7.385224E-02  5.000000E-01  4.509729E-01  7.452141E-02  0.000000E+00  1.610060E-02 -5.887321E-04 -8.609846E-21 -7.329603E-01  0.000000E+00
  4.254410E-01  7.453309E-02  5.000000E-01  4.297376E-01  7.520913E-02  0.000000E+00  1.649014E-02 -4.608519E-04 -1.364973E-19 -7.566948E-01  0.000000E+00
  4.045840E-01  7.502544E-02  5.000000E-01  4.086699E-01  7.570645E-02  0.000000E+00  1.689072E-02 -3.234304E-04 -1.183189E-19 -7.804502E-01  0.000000E+00
  3.839530E-01  7.533063E-02  5.000000E-01  3.878306E-01  7.601472E-02  0.000000E+00  1.729583E-02 -1.760842E-04 -9.010302E-20 -8.043909E-01  0.000000E+00
  3.636060E-01  7.544634E-02  5.000000E-01  3.672781E-01  7.613161E-02  0.000000E+00  1.771196E-02 -1.604058E-05 -5.829206E-20 -8.287835E-01  0.000000E+00
  3.435960E-01  7.537107E-02  5.000000E-01  3.470660E-01  7.605557E-02  0.000000E+00  1.815174E-02  1.581823E-04  5.168487E-20 -8.548875E-01  0.000000E+00
  3.239710E-01  7.510459E-02  5.000000E-01  3.272428E-01  7.578641E-02  0.000000E+00  1.863237E-02  3.492861E-04 -2.122353E-19 -8.843554E-01  0.000000E+00
  3.047740E-01  7.464728E-02  5.000000E-01  3.078519E-01  7.532447E-02  0.000000E+00  1.917539E-02  5.679532E-04 -5.432167E-19 -9.169987E-01  0.000000E+00
  2.860450E-01  7.398713E-02  5.000000E-01  2.889338E-01  7.465765E-02  0.000000E+00  1.979440E-02  8.318146E-04 -9.809378E-19 -9.498917E-01  0.000000E+00
  2.678190E-01  7.310218E-02  5.000000E-01  2.705237E-01  7.376377E-02  0.000000E+00  2.047483E-02  1.149691E-03 -1.448589E-18 -9.800591E-01  0.000000E+00
  2.501300E-01  7.197918E-02  5.000000E-01  2.526561E-01  7.262943E-02  0.000000E+00  2.117606E-02  1.516497E-03 -1.379863E-18 -1.006316E+00  0.000000E+00
  2.330040E-01  7.061775E-02  5.000000E-01  2.353571E-01  7.125425E-02  0.000000E+00  2.185420E-02  1.922695E-03 -1.263836E-18 -1.028300E+00  0.000000E+00
  2.164660E-01  6.902602E-02  5.000000E-01  2.186521E-01  6.964644E-02  0.000000E+00  2.248071E-02  2.360543E-03 -1.222214E-18 -1.044828E+00  0.000000E+00
  2.005340E-01  6.721763E-02  5.000000E-01  2.025592E-01  6.781979E-02  0.000000E+00  2.304827E-02  2.832130E-03 -5.804267E-19 -1.052467E+00  0.000000E+00
  1.852230E-01  6.519753E-02  5.000000E-01  1.870936E-01  6.577929E-02  0.000000E+00  2.354776E-02  3.332543E-03  4.191465E-19 -1.049608E+00  0.000000E+00
  1.705440E-01  6.298289E-02  5.000000E-01  1.722663E-01  6.354228E-02  0.000000E+00  2.396028E-02  3.834731E-03  1.083941E-18 -1.041672E+00  0.000000E+00
  1.565000E-01  6.060712E-02  5.000000E-01  1.580805E-01  6.114252E-02  0.000000E+00  2.429517E-02  4.319654E-03  2.086013E-18 -1.038081E+00  0.000000E+00
  1.430940E-01  5.810663E-02  5.000000E-01  1.445391E-01  5.861678E-02  0.000000E+00  2.461727E-02  4.816821E-03  1.307817E-18 -1.042491E+00  0.000000E+00
  1.303270E-01  5.549236E-02  5.000000E-01  1.316432E-01  5.597610E-02  0.000000E+00  2.500955E-02  5.409580E-03 -1.128798E-18 -1.044671E+00  0.000000E+00
  1.182110E-01  5.273570E-02  5.000000E-01  1.194048E-01  5.319160E-02  0.000000E+00  2.546264E-02  6.141822E-03 -1.829802E-18 -1.028494E+00  0.000000E+00
  1.067560E-01  4.982177E-02  5.000000E-01  1.078341E-01  5.024825E-02  0.000000E+00  2.583746E-02  6.959392E-03 -1.066587E-18 -9.848076E-01  0.000000E+00
  9.596750E-02  4.675775E-02  5.000000E-01  9.693669E-02  4.715329E-02  0.000000E+00  2.594270E-02  7.699150E-03 -9.179458E-19 -9.232213E-01  0.000000E+00
  8.582800E-02  4.361637E-02  5.000000E-01  8.669479E-02  4.398018E-02  0.000000E+00  2.571044E-02  8.219440E-03 -1.846529E-18 -8.643219E-01  0.000000E+00
  8.582800E-02  4.361637E-02  5.000000E-01  8.669479E-02  4.398018E-02  0.000000E+00  2.571044E-02  8.219440E-03 -1.846529E-18 -8.643219E-01  0.000000E+00
  7.631050E-02  4.047670E-02  5.000000E-01  7.708117E-02  4.080880E-02  0.000000E+00  2.528730E-02  8.603767E-03 -1.491626E-18 -8.124007E-01  0.000000E+00
  6.740780E-02  3.735447E-02  5.000000E-01  6.808856E-02  3.765505E-02  0.000000E+00  2.484738E-02  9.003206E-03 -5.592177E-19 -7.599351E-01  0.000000E+00
  5.911740E-02  3.425301E-02  5.000000E-01  5.971444E-02  3.452226E-02  0.000000E+00  2.444639E-02  9.443368E-03 -8.311633E-21 -7.040546E-01  0.000000E+00
  5.143150E-02  3.118919E-02  5.000000E-01  5.195092E-02  3.142750E-02  0.000000E+00  2.406301E-02  9.887465E-03  7.701023E-19 -6.455708E-01  0.000000E+00
  4.433770E-02  2.818613E-02  5.000000E-01  4.478547E-02  2.839411E-02  0.000000E+00  2.365926E-02  1.030768E-02  6.055513E-19 -5.869278E-01  0.000000E+00
  3.782240E-02  2.526580E-02  5.000000E-01  3.820438E-02  2.544429E-02  0.000000E+00  2.321310E-02  1.070408E-02 -8.493497E-19 -5.316569E-01  0.000000E+00
  3.187460E-02  2.244403E-02  5.000000E-01  3.219651E-02  2.259402E-02  0.000000E+00  2.273146E-02  1.110006E-02 -3.703088E-18 -4.827068E-01  0.000000E+00
  2.648400E-02  1.973431E-02  5.000000E-01  2.675147E-02  1.985693E-02  0.000000E+00  2.224049E-02  1.155956E-02 -9.465708E-18 -4.344137E-01  0.000000E+00
  2.164990E-02  1.713869E-02  5.000000E-01  2.186855E-02  1.723510E-02  0.000000E+00  2.171289E-02  1.213261E-02 -2.463634E-17 -3.704322E-01  0.000000E+00
  1.737670E-02  1.465744E-02  5.000000E-01  1.755219E-02  1.472880E-02  0.000000E+00  2.102125E-02  1.267891E-02 -5.187784E-17 -2.854077E-01  0.000000E+00
  1.364080E-02  1.231710E-02  5.000000E-01  1.377856E-02  1.236481E-02  0.000000E+00  2.007579E-02  1.294031E-02 -8.899102E-17 -1.979892E-01  0.000000E+00
  1.039090E-02  1.015853E-02  5.000000E-01  1.049584E-02  1.018445E-02  0.000000E+00  1.898070E-02  1.290371E-02 -1.260952E-16 -1.305726E-01  0.000000E+00
  7.586340E-03  8.204452E-03  5.000000E-01  7.662960E-03  8.210634E-03  0.000000E+00  1.798455E-02  1.294823E-02 -1.461360E-16 -8.531954E-02  0.000000E+00
  5.226210E-03  6.448022E-03  5.000000E-01  5.278995E-03  6.436466E-03  0.000000E+00  1.732474E-02  1.358988E-02 -1.403039E-16 -5.053866E-02  0.000000E+00
  3.324300E-03  4.877225E-03  5.000000E-01  3.357877E-03  4.849806E-03  0.000000E+00  1.712855E-02  1.530084E-02 -1.321300E-16 -1.617713E-02  0.000000E+00
  1.883580E-03  3.493064E-03  5.000000E-01  1.902607E-03  3.451666E-03  0.000000E+00  1.720689E-02  1.860263E-02 -1.867810E-16  3.811400E-02  0.000000E+00
  8.951490E-04  2.307754E-03  5.000000E-01  9.041943E-04  2.254385E-03  0.000000E+00  1.657742E-02  2.368511E-02 -3.605486E-16  1.492598E-01  0.000000E+00
  3.201820E-04  1.346676E-03  5.000000E-01  3.234206E-04  1.283602E-03  0.000000E+00  1.358937E-02  2.912775E-02 -6.173733E-16  3.373818E-01  0.000000E+00
  6.852390E-05  6.416648E-04  5.000000E-01  6.922101E-05  5.714702E-04  0.000000E+00  8.109154E-03  3.161887E-02 -8.184639E-16  5.371635E-01  0.000000E+00
  4.217600E-06  2.168784E-04  5.000000E-01  4.265277E-06  1.423939E-04  0.000000E+00  2.882315E-03  3.080442E-02 -8.239200E-16  6.038776E-01  0.000000E+00
 -5.032520E-09  7.590820E-05  5.000000E-01  0.000000E+00  0.000000E+00  0.000000E+00 -4.403812E-04  3.316632E-02 -6.406065E-16  5.675374E-01  0.000000E+00
  5.154440E-06 -6.550783E-05  5.000000E-01  5.211578E-06 -1.428442E-04  0.000000E+00 -3.645498E-03  3.373755E-02 -4.261797E-16  6.655478E-01  0.000000E+00