 Title = "ADflow Slice Data"
Variables =  "CoordinateX"  "CoordinateY"  "CoordinateZ"  "XoC"  "YoC"  "ZoC" "VelocityX" "VelocityY" "VelocityZ" "CoefPressure" "Mach" 
Zone T= "Slice_0001 None Absolute Regular z = 0.50000000"
 Nodes =          192  Elements=          184  ZONETYPE=FELINESEG
 DATAPACKING=POINT
  5.653940E-01  1.356860E-02  5.000000E-01  5.711039E-01  1.359114E-02  0.000000E+00  6.113821E-03 -5.480668E-05  3.530506E-20  3.546403E-01  0.000000E+00
  5.859770E-01  1.317252E-02  5.000000E-01  5.918948E-01  1.319105E-02  0.000000E+00  7.271988E-03 -1.636563E-04  1.521212E-19  3.146482E-01  0.000000E+00
  6.063060E-01  1.265614E-02  5.000000E-01  6.124291E-01  1.266945E-02  0.000000E+00  8.230998E-03 -1.765178E-04  3.935606E-20  2.694641E-01  0.000000E+00
  6.263240E-01  1.230071E-02  5.000000E-01  6.326492E-01  1.231044E-02  0.000000E+00  8.830993E-03 -7.424212E-05  2.198144E-19  2.301408E-01  0.000000E+00
  6.459860E-01  1.231215E-02  5.000000E-01  6.525098E-01  1.232199E-02  0.000000E+00  8.972723E-03  1.272537E-04  6.070569E-20  2.035551E-01  0.000000E+00
  6.652460E-01  1.284955E-02  5.000000E-01  6.719643E-01  1.286482E-02  0.000000E+00  8.664892E-03  3.632694E-04  4.313939E-19  1.948789E-01  0.000000E+00
  6.840650E-01  1.392481E-02  5.000000E-01  6.909734E-01  1.395094E-02  0.000000E+00  8.043681E-03  5.332998E-04  1.297508E-19  2.107026E-01  0.000000E+00
  7.024070E-01  1.533027E-02  5.000000E-01  7.095006E-01  1.537060E-02  0.000000E+00  7.291165E-03  5.915906E-04  1.212234E-19  2.455584E-01  0.000000E+00
  7.202400E-01  1.686238E-02  5.000000E-01  7.275137E-01  1.691818E-02  0.000000E+00  6.540799E-03  5.656973E-04  4.433925E-19  2.841458E-01  0.000000E+00
  7.375350E-01  1.836438E-02  5.000000E-01  7.449834E-01  1.843534E-02  0.000000E+00  5.864996E-03  4.957129E-04 -8.974032E-19  3.180728E-01  0.000000E+00
  7.542690E-01  1.973412E-02  5.000000E-01  7.618864E-01  1.981892E-02  0.000000E+00  5.296411E-03  4.115966E-04 -1.585333E-18  3.462653E-01  0.000000E+00
  7.704220E-01  2.091503E-02  5.000000E-01  7.782025E-01  2.101175E-02  0.000000E+00  4.848691E-03  3.289706E-04 -1.223855E-18  3.695024E-01  0.000000E+00
  7.859770E-01  2.188196E-02  5.000000E-01  7.939146E-01  2.198845E-02  0.000000E+00  4.532385E-03  2.458630E-04 -6.060972E-19  3.895173E-01  0.000000E+00
  8.009220E-01  2.257129E-02  5.000000E-01  8.090105E-01  2.268474E-02  0.000000E+00  4.360670E-03  1.514597E-04 -4.711904E-19  4.078686E-01  0.000000E+00
  8.152480E-01  2.290203E-02  5.000000E-01  8.234812E-01  2.301882E-02  0.000000E+00  4.333155E-03  4.555905E-05 -5.093398E-19  4.217212E-01  0.000000E+00
  8.289490E-01  2.287205E-02  5.000000E-01  8.373206E-01  2.298853E-02  0.000000E+00  4.426763E-03 -6.444185E-05 -4.974925E-19  4.281447E-01  0.000000E+00
  8.420260E-01  2.252451E-02  5.000000E-01  8.505296E-01  2.263748E-02  0.000000E+00  4.609307E-03 -1.751204E-04 -3.404104E-19  4.285553E-01  0.000000E+00
  8.544790E-01  2.191656E-02  5.000000E-01  8.631084E-01  2.202339E-02  0.000000E+00  4.851276E-03 -2.856251E-04 -4.093498E-19  4.253200E-01  0.000000E+00
  8.663160E-01  2.110727E-02  5.000000E-01  8.750649E-01  2.120593E-02  0.000000E+00  5.127361E-03 -3.948151E-04  1.270696E-19  4.196915E-01  0.000000E+00
  8.775420E-01  2.015126E-02  5.000000E-01  8.864043E-01  2.024027E-02  0.000000E+00  5.415992E-03 -5.004409E-04  4.239130E-19  4.123273E-01  0.000000E+00
  8.881660E-01  1.909659E-02  5.000000E-01  8.971356E-01  1.917495E-02  0.000000E+00  5.700501E-03 -5.999307E-04  4.296117E-19  4.037640E-01  0.000000E+00
  8.981970E-01  1.798379E-02  5.000000E-01  9.072679E-01  1.805091E-02  0.000000E+00  5.971336E-03 -6.933239E-04  2.753366E-19  3.946649E-01  0.000000E+00
  9.076460E-01  1.684022E-02  5.000000E-01  9.168123E-01  1.689579E-02  0.000000E+00  6.228250E-03 -7.852410E-04  1.920003E-19  3.858631E-01  0.000000E+00
  9.165220E-01  1.567836E-02  5.000000E-01  9.257780E-01  1.572220E-02  0.000000E+00  6.478029E-03 -8.806786E-04  2.385355E-19  3.774477E-01  0.000000E+00
  9.165220E-01  1.567836E-02  5.000000E-01  9.257780E-01  1.572220E-02  0.000000E+00  6.478029E-03 -8.806786E-04  2.385355E-19  3.774477E-01  0.000000E+00
  9.248360E-01  1.450754E-02  5.000000E-01  9.341759E-01  1.453955E-02  0.000000E+00  6.728706E-03 -9.815928E-04 -4.422475E-19  3.687570E-01  0.000000E+00
  9.325990E-01  1.333713E-02  5.000000E-01  9.420173E-01  1.335733E-02  0.000000E+00  6.987009E-03 -1.088853E-03 -4.397468E-19  3.594254E-01  0.000000E+00
  9.398210E-01  1.217637E-02  5.000000E-01  9.493123E-01  1.218484E-02  0.000000E+00  7.258732E-03 -1.203381E-03 -2.916556E-19  3.493966E-01  0.000000E+00
  9.465130E-01  1.103436E-02  5.000000E-01  9.560718E-01  1.103130E-02  0.000000E+00  7.548695E-03 -1.325973E-03 -3.928624E-20  3.385927E-01  0.000000E+00
  9.526870E-01  9.920151E-03  5.000000E-01  9.623082E-01  9.905836E-03  0.000000E+00  7.860443E-03 -1.457205E-03  3.816157E-19  3.269191E-01  0.000000E+00
  9.583540E-01  8.842823E-03  5.000000E-01  9.680324E-01  8.817628E-03  0.000000E+00  8.196477E-03 -1.597436E-03  1.419721E-20  3.143050E-01  0.000000E+00
  9.635240E-01  7.811474E-03  5.000000E-01  9.732546E-01  7.775863E-03  0.000000E+00  8.559066E-03 -1.746787E-03 -6.174204E-19  3.006782E-01  0.000000E+00
  9.682080E-01  6.834897E-03  5.000000E-01  9.779859E-01  6.789425E-03  0.000000E+00  8.952395E-03 -1.905838E-03 -3.439290E-19  2.860382E-01  0.000000E+00
  9.724140E-01  5.921839E-03  5.000000E-01  9.822344E-01  5.867145E-03  0.000000E+00  9.385396E-03 -2.076090E-03 -5.443305E-19  2.704239E-01  0.000000E+00
  9.761510E-01  5.080512E-03  5.000000E-01  9.860091E-01  5.017321E-03  0.000000E+00  9.871636E-03 -2.259633E-03 -1.182726E-18  2.538246E-01  0.000000E+00
  9.794290E-01  4.318403E-03  5.000000E-01  9.893203E-01  4.247516E-03  0.000000E+00  1.042038E-02 -2.458232E-03 -1.106104E-18  2.362712E-01  0.000000E+00
  9.822540E-01  3.642730E-03  5.000000E-01  9.921738E-01  3.565019E-03  0.000000E+00  1.101425E-02 -2.668136E-03 -2.877100E-19  2.180767E-01  0.000000E+00
  9.846330E-01  3.059772E-03  5.000000E-01  9.945768E-01  2.976174E-03  0.000000E+00  1.158357E-02 -2.869130E-03  8.220821E-19  2.005193E-01  0.000000E+00
  9.865710E-01  2.575099E-03  5.000000E-01  9.965344E-01  2.486607E-03  0.000000E+00  1.196062E-02 -3.006532E-03  1.259993E-18  1.822404E-01  0.000000E+00
  9.880740E-01  2.193181E-03  5.000000E-01  9.980526E-01  2.100831E-03  0.000000E+00  1.188864E-02 -3.044864E-03 -2.853022E-18  1.578601E-01  0.000000E+00
  9.891450E-01  1.917725E-03  5.000000E-01  9.991344E-01  1.822594E-03  0.000000E+00  1.203063E-02 -3.185325E-03 -2.468062E-17  1.566332E-01  0.000000E+00
  9.897860E-01  1.751444E-03  5.000000E-01  9.997818E-01  1.654634E-03  0.000000E+00  1.514776E-02 -3.441498E-03 -6.954804E-17  1.973344E-01  0.000000E+00
  9.900000E-01  1.695790E-03  5.000000E-01  9.999980E-01  1.598418E-03  0.000000E+00  1.047279E-02 -5.765789E-03 -7.384061E-17 -5.400849E-02  0.000000E+00
  9.900000E-01  1.774501E-03  5.000000E-01  9.999980E-01  1.677923E-03  0.000000E+00  1.057032E-03 -1.570015E-02  5.111328E-18 -1.922792E-01  0.000000E+00
  9.900000E-01  1.853221E-03  5.000000E-01  9.999980E-01  1.757438E-03  0.000000E+00 -5.288571E-04 -1.499074E-02  8.372111E-17 -1.930377E-02  0.000000E+00
  9.900000E-01  1.931941E-03  5.000000E-01  9.999980E-01  1.836953E-03  0.000000E+00 -2.495596E-04  4.313129E-04  1.021798E-16 -2.533429E-02  0.000000E+00
  9.900000E-01  2.010651E-03  5.000000E-01  9.999980E-01  1.916458E-03  0.000000E+00  6.202122E-04  2.297714E-03  1.250347E-16 -1.272733E-01  0.000000E+00
  9.900000E-01  2.089371E-03  5.000000E-01  9.999980E-01  1.995973E-03  0.000000E+00  4.943156E-03 -3.031329E-03  1.524403E-16 -4.566522E-02  0.000000E+00
  9.900000E-01  2.089371E-03  5.000000E-01  9.999980E-01  1.995973E-03  0.000000E+00  4.943156E-03 -3.031329E-03  1.524403E-16 -4.566522E-02  0.000000E+00
  9.897900E-01  2.154384E-03  5.000000E-01  9.997859E-01  2.061642E-03  0.000000E+00  6.285267E-03 -2.227349E-03  1.075473E-16  7.376121E-02  0.000000E+00
  9.891580E-01  2.349516E-03  5.000000E-01  9.991475E-01  2.258745E-03  0.000000E+00  3.573818E-03 -1.049116E-03  3.670278E-17  3.681176E-02  0.000000E+00
  9.881040E-01  2.674446E-03  5.000000E-01  9.980829E-01  2.586957E-03  0.000000E+00  2.692218E-03 -8.277554E-04  3.783495E-18  2.742333E-02  0.000000E+00
  9.866260E-01  3.128814E-03  5.000000E-01  9.965899E-01  3.045914E-03  0.000000E+00  2.383527E-03 -7.363447E-04 -3.492493E-18  2.709862E-02  0.000000E+00
  9.847200E-01  3.712185E-03  5.000000E-01  9.946647E-01  3.635176E-03  0.000000E+00  2.256667E-03 -6.884562E-04 -2.580614E-18  1.995253E-02  0.000000E+00
  9.823820E-01  4.423782E-03  5.000000E-01  9.923031E-01  4.353959E-03  0.000000E+00  2.314736E-03 -7.015177E-04 -1.655760E-18  9.346385E-03  0.000000E+00
  9.796080E-01  5.262409E-03  5.000000E-01  9.895011E-01  5.201056E-03  0.000000E+00  2.524530E-03 -7.598053E-04 -1.004954E-18 -3.032002E-03  0.000000E+00
  9.763910E-01  6.226673E-03  5.000000E-01  9.862516E-01  6.175058E-03  0.000000E+00  2.838680E-03 -8.465016E-04 -1.090383E-18 -1.771994E-02  0.000000E+00
  9.727270E-01  7.314202E-03  5.000000E-01  9.825506E-01  7.273570E-03  0.000000E+00  3.226524E-03 -9.515423E-04 -1.090857E-18 -3.498696E-02  0.000000E+00
  9.686070E-01  8.522424E-03  5.000000E-01  9.783890E-01  8.493994E-03  0.000000E+00  3.672098E-03 -1.068832E-03  4.739902E-21 -5.478607E-02  0.000000E+00
  9.640240E-01  9.847591E-03  5.000000E-01  9.737597E-01  9.832543E-03  0.000000E+00  4.169173E-03 -1.194826E-03 -1.374916E-19 -7.710469E-02  0.000000E+00
  9.589680E-01  1.128515E-02  5.000000E-01  9.686526E-01  1.128462E-02  0.000000E+00  4.717370E-03 -1.327535E-03 -3.103439E-19 -1.019022E-01  0.000000E+00
  9.534310E-01  1.282903E-02  5.000000E-01  9.630597E-01  1.284409E-02  0.000000E+00  5.318395E-03 -1.465153E-03  2.826832E-19 -1.291010E-01  0.000000E+00
  9.474030E-01  1.447177E-02  5.000000E-01  9.569708E-01  1.450342E-02  0.000000E+00  5.973431E-03 -1.605003E-03  2.196145E-19 -1.585062E-01  0.000000E+00
  9.408720E-01  1.620426E-02  5.000000E-01  9.503739E-01  1.625340E-02  0.000000E+00  6.681656E-03 -1.743574E-03 -4.632243E-19 -1.899080E-01  0.000000E+00
  9.338280E-01  1.801504E-02  5.000000E-01  9.432587E-01  1.808248E-02  0.000000E+00  7.440331E-03 -1.876398E-03 -5.875380E-19 -2.230298E-01  0.000000E+00
  9.262600E-01  1.989038E-02  5.000000E-01  9.356143E-01  1.997675E-02  0.000000E+00  8.244527E-03 -1.997575E-03  1.972435E-19 -2.574224E-01  0.000000E+00
  9.181550E-01  2.181362E-02  5.000000E-01  9.274274E-01  2.191941E-02  0.000000E+00  9.085988E-03 -2.100101E-03  5.560825E-20 -2.925292E-01  0.000000E+00
  9.095020E-01  2.376497E-02  5.000000E-01  9.186871E-01  2.389047E-02  0.000000E+00  9.952032E-03 -2.175616E-03  3.967543E-20 -3.274203E-01  0.000000E+00
  9.002880E-01  2.572093E-02  5.000000E-01  9.093800E-01  2.586619E-02  0.000000E+00  1.082306E-02 -2.214645E-03  2.770948E-19 -3.606184E-01  0.000000E+00
  8.905020E-01  2.765420E-02  5.000000E-01  8.994952E-01  2.781898E-02  0.000000E+00  1.167008E-02 -2.208946E-03 -5.691881E-19 -3.905637E-01  0.000000E+00
  8.801320E-01  2.953708E-02  5.000000E-01  8.890205E-01  2.972087E-02  0.000000E+00  1.245557E-02 -2.152993E-03 -1.298496E-18 -4.158929E-01  0.000000E+00
  8.691700E-01  3.134174E-02  5.000000E-01  8.779477E-01  3.154376E-02  0.000000E+00  1.313579E-02 -2.042810E-03 -1.962302E-18 -4.351471E-01  0.000000E+00
  8.691700E-01  3.134174E-02  5.000000E-01  8.779477E-01  3.154376E-02  0.000000E+00  1.313579E-02 -2.042810E-03 -1.962302E-18 -4.351471E-01  0.000000E+00
  8.576080E-01  3.303905E-02  5.000000E-01  8.662690E-01  3.325821E-02  0.000000E+00  1.366047E-02 -1.876732E-03 -2.015971E-18 -4.464592E-01  0.000000E+00
  8.454380E-01  3.459975E-02  5.000000E-01  8.539761E-01  3.483467E-02  0.000000E+00  1.397284E-02 -1.659602E-03 -9.895390E-19 -4.474036E-01  0.000000E+00
  8.326580E-01  3.599849E-02  5.000000E-01  8.410670E-01  3.624754E-02  0.000000E+00  1.401635E-02 -1.406497E-03 -5.686568E-19 -4.348303E-01  0.000000E+00
  8.192630E-01  3.722118E-02  5.000000E-01  8.275367E-01  3.748258E-02  0.000000E+00  1.374790E-02 -1.147079E-03 -3.597076E-19 -4.063626E-01  0.000000E+00
  8.052550E-01  3.827899E-02  5.000000E-01  8.133873E-01  3.855107E-02  0.000000E+00  1.315751E-02 -9.254732E-04 -1.283007E-19 -3.643921E-01  0.000000E+00
  7.906370E-01  3.922761E-02  5.000000E-01  7.986216E-01  3.950927E-02  0.000000E+00  1.229149E-02 -7.885359E-04 -1.094425E-19 -3.191298E-01  0.000000E+00
  7.754120E-01  4.018878E-02  5.000000E-01  7.832429E-01  4.048015E-02  0.000000E+00  1.126638E-02 -7.498928E-04  7.849361E-20 -2.820517E-01  0.000000E+00
  7.595880E-01  4.130024E-02  5.000000E-01  7.672591E-01  4.160283E-02  0.000000E+00  1.023970E-02 -7.686217E-04  4.411287E-19 -2.552121E-01  0.000000E+00
  7.431760E-01  4.262066E-02  5.000000E-01  7.506813E-01  4.293658E-02  0.000000E+00  9.334666E-03 -8.072077E-04  6.412609E-19 -2.372816E-01  0.000000E+00
  7.261880E-01  4.420118E-02  5.000000E-01  7.335218E-01  4.453307E-02  0.000000E+00  8.616664E-03 -8.621653E-04  1.301289E-18 -2.298598E-01  0.000000E+00
  7.086430E-01  4.608894E-02  5.000000E-01  7.157996E-01  4.643989E-02  0.000000E+00  8.122795E-03 -9.356425E-04  1.565446E-18 -2.342349E-01  0.000000E+00
  6.905640E-01  4.831502E-02  5.000000E-01  6.975380E-01  4.868846E-02  0.000000E+00  7.878348E-03 -1.029092E-03  8.066199E-19 -2.517869E-01  0.000000E+00
  6.719770E-01  5.088295E-02  5.000000E-01  6.787633E-01  5.128232E-02  0.000000E+00  7.906016E-03 -1.143671E-03  1.019458E-18 -2.838145E-01  0.000000E+00
  6.529150E-01  5.376064E-02  5.000000E-01  6.595088E-01  5.418907E-02  0.000000E+00  8.225350E-03 -1.276310E-03  2.214990E-19 -3.297682E-01  0.000000E+00
  6.334180E-01  5.686337E-02  5.000000E-01  6.398149E-01  5.732313E-02  0.000000E+00  8.839106E-03 -1.417338E-03 -2.225968E-18 -3.875278E-01  0.000000E+00
  6.135280E-01  6.007361E-02  5.000000E-01  6.197240E-01  6.056580E-02  0.000000E+00  9.719661E-03 -1.552291E-03 -1.310601E-18 -4.551771E-01  0.000000E+00
  5.932910E-01  6.327213E-02  5.000000E-01  5.992826E-01  6.379662E-02  0.000000E+00  1.080829E-02 -1.659446E-03  5.866901E-19 -5.289056E-01  0.000000E+00
  5.727570E-01  6.634075E-02  5.000000E-01  5.785413E-01  6.689622E-02  0.000000E+00  1.201440E-02 -1.709222E-03  2.230517E-19 -6.002374E-01  0.000000E+00
  5.519810E-01  6.916552E-02  5.000000E-01  5.575555E-01  6.974952E-02  0.000000E+00  1.321492E-02 -1.678104E-03  6.111176E-22 -6.592986E-01  0.000000E+00
  5.310180E-01  7.165823E-02  5.000000E-01  5.363808E-01  7.226741E-02  0.000000E+00  1.427290E-02 -1.581598E-03 -7.615590E-19 -7.046614E-01  0.000000E+00
  5.099250E-01  7.383534E-02  5.000000E-01  5.150747E-01  7.446650E-02  0.000000E+00  1.511251E-02 -1.462486E-03 -2.846357E-19 -7.425705E-01  0.000000E+00
  4.887640E-01  7.575350E-02  5.000000E-01  4.937000E-01  7.640404E-02  0.000000E+00  1.577817E-02 -1.343254E-03  6.759761E-19 -7.783901E-01  0.000000E+00
  4.675910E-01  7.744526E-02  5.000000E-01  4.723132E-01  7.811288E-02  0.000000E+00  1.639780E-02 -1.224929E-03 -5.954753E-19 -8.185083E-01  0.000000E+00
  7.860720E-05 -3.140039E-04  5.000000E-01  7.940614E-05 -4.316735E-04  0.000000E+00 -1.547489E-03  7.559932E-03  1.898789E-14  1.080287E+00  0.000000E+00
  3.989240E-04 -8.032755E-04  5.000000E-01  4.029578E-04 -9.258863E-04  0.000000E+00  4.802077E-03 -3.508761E-03  1.443358E-14  1.046953E+00  0.000000E+00
  1.196920E-03 -1.381364E-03  5.000000E-01  1.209013E-03 -1.509812E-03  0.000000E+00  1.127228E-02 -6.254177E-03  8.323209E-15  8.327880E-01  0.000000E+00
  2.563580E-03 -1.973911E-03  5.000000E-01  2.589475E-03 -2.108344E-03  0.000000E+00  1.376498E-02 -5.060375E-03  2.965876E-15  6.584587E-01  0.000000E+00
  4.492740E-03 -2.554316E-03  5.000000E-01  4.538117E-03 -2.694611E-03  0.000000E+00  1.400109E-02 -3.741188E-03 -1.207095E-16  5.716596E-01  0.000000E+00
  6.952190E-03 -3.127756E-03  5.000000E-01  7.022405E-03 -3.273842E-03  0.000000E+00  1.384695E-02 -2.998158E-03 -1.051218E-15  5.236974E-01  0.000000E+00
  9.910730E-03 -3.719799E-03  5.000000E-01  1.001082E-02 -3.871864E-03  0.000000E+00  1.389670E-02 -2.678983E-03 -8.445228E-16  4.842102E-01  0.000000E+00
  1.334950E-02 -4.358637E-03  5.000000E-01  1.348432E-02 -4.517153E-03  0.000000E+00  1.414458E-02 -2.515913E-03 -3.924829E-16  4.394231E-01  0.000000E+00
  1.728780E-02 -5.030195E-03  5.000000E-01  1.746239E-02 -5.195494E-03  0.000000E+00  1.439366E-02 -2.293785E-03 -9.014878E-17  3.860840E-01  0.000000E+00
  2.175590E-02 -5.693038E-03  5.000000E-01  2.197562E-02 -5.865031E-03  0.000000E+00  1.449489E-02 -1.974225E-03  2.561521E-17  3.357681E-01  0.000000E+00
  2.676920E-02 -6.313635E-03  5.000000E-01  2.703955E-02 -6.491894E-03  0.000000E+00  1.443406E-02 -1.631345E-03  3.878636E-17  2.997690E-01  0.000000E+00
  3.232800E-02 -6.880475E-03  5.000000E-01  3.265449E-02 -7.064459E-03  0.000000E+00  1.426925E-02 -1.332597E-03  2.183499E-17  2.787829E-01  0.000000E+00
  3.842930E-02 -7.397313E-03  5.000000E-01  3.881740E-02 -7.586517E-03  0.000000E+00  1.405960E-02 -1.102137E-03  7.309367E-18  2.668589E-01  0.000000E+00
  4.507220E-02 -7.875670E-03  5.000000E-01  4.552739E-02 -8.069704E-03  0.000000E+00  1.385839E-02 -9.509175E-04  1.346699E-18  2.597790E-01  0.000000E+00
  5.225680E-02 -8.343453E-03  5.000000E-01  5.278455E-02 -8.542212E-03  0.000000E+00  1.371365E-02 -8.799698E-04  3.282234E-20  2.553194E-01  0.000000E+00
  5.998640E-02 -8.832444E-03  5.000000E-01  6.059221E-02 -9.036141E-03  0.000000E+00  1.363324E-02 -8.543740E-04 -6.091606E-20  2.485931E-01  0.000000E+00
  6.827110E-02 -9.347750E-03  5.000000E-01  6.896057E-02 -9.556651E-03  0.000000E+00  1.358584E-02 -8.337911E-04  2.557537E-19  2.369464E-01  0.000000E+00
  7.712280E-02 -9.883616E-03  5.000000E-01  7.790167E-02 -1.009793E-02  0.000000E+00  1.354084E-02 -8.078941E-04  8.142546E-19  2.234009E-01  0.000000E+00
  8.655260E-02 -1.043735E-02  5.000000E-01  8.742670E-02 -1.065725E-02  0.000000E+00  1.347716E-02 -7.764333E-04  8.338811E-19  2.107186E-01  0.000000E+00
  9.657140E-02 -1.100349E-02  5.000000E-01  9.754668E-02 -1.122911E-02  0.000000E+00  1.337142E-02 -7.310951E-04  4.990085E-19  1.987151E-01  0.000000E+00
  1.071900E-01 -1.156487E-02  5.000000E-01  1.082725E-01 -1.179616E-02  0.000000E+00  1.320786E-02 -6.714712E-04  6.827409E-19  1.878574E-01  0.000000E+00
  1.184180E-01 -1.211210E-02  5.000000E-01  1.196139E-01 -1.234891E-02  0.000000E+00  1.299664E-02 -6.165724E-04  5.764323E-19  1.804833E-01  0.000000E+00
  1.302610E-01 -1.265770E-02  5.000000E-01  1.315765E-01 -1.290002E-02  0.000000E+00  1.276596E-02 -5.858789E-04  3.191469E-19  1.768709E-01  0.000000E+00
  1.427230E-01 -1.322722E-02  5.000000E-01  1.441644E-01 -1.347530E-02  0.000000E+00  1.254856E-02 -5.885853E-04  1.243114E-19  1.748911E-01  0.000000E+00
  1.427230E-01 -1.322722E-02  5.000000E-01  1.441644E-01 -1.347530E-02  0.000000E+00  1.254856E-02 -5.885853E-04  1.243114E-19  1.748911E-01  0.000000E+00
  1.558070E-01 -1.385705E-02  5.000000E-01  1.573805E-01 -1.411149E-02  0.000000E+00  1.238090E-02 -6.237580E-04 -1.553768E-19  1.717691E-01  0.000000E+00
  1.695140E-01 -1.457905E-02  5.000000E-01  1.712259E-01 -1.484079E-02  0.000000E+00  1.231373E-02 -6.868236E-04 -2.746312E-19  1.651572E-01  0.000000E+00
  1.838420E-01 -1.542270E-02  5.000000E-01  1.856986E-01 -1.569295E-02  0.000000E+00  1.242771E-02 -7.833461E-04 -7.532032E-19  1.538569E-01  0.000000E+00
  1.987870E-01 -1.642499E-02  5.000000E-01  2.007946E-01 -1.670537E-02  0.000000E+00  1.283405E-02 -9.326047E-04 -8.326052E-19  1.366407E-01  0.000000E+00
  2.143420E-01 -1.763741E-02  5.000000E-01  2.165066E-01 -1.793003E-02  0.000000E+00  1.364514E-02 -1.153129E-03 -1.124444E-18  1.102028E-01  0.000000E+00
  2.304940E-01 -1.910095E-02  5.000000E-01  2.328218E-01 -1.940834E-02  0.000000E+00  1.491079E-02 -1.428210E-03 -2.092746E-18  6.746547E-02  0.000000E+00
  2.472290E-01 -2.078329E-02  5.000000E-01  2.497258E-01 -2.110768E-02  0.000000E+00  1.654767E-02 -1.689346E-03 -1.664901E-18  2.637621E-03  0.000000E+00
  2.645310E-01 -2.257531E-02  5.000000E-01  2.672025E-01 -2.291780E-02  0.000000E+00  1.825959E-02 -1.787477E-03  5.694656E-19 -8.572534E-02  0.000000E+00
  2.823750E-01 -2.423240E-02  5.000000E-01  2.852267E-01 -2.459162E-02  0.000000E+00  1.949640E-02 -1.496273E-03  5.735935E-19 -1.930668E-01  0.000000E+00
  3.007320E-01 -2.536064E-02  5.000000E-01  3.037691E-01 -2.573125E-02  0.000000E+00  1.957594E-02 -6.613204E-04 -1.272110E-18 -3.021693E-01  0.000000E+00
  3.195690E-01 -2.546211E-02  5.000000E-01  3.227963E-01 -2.583375E-02  0.000000E+00  1.801411E-02  5.772169E-04 -1.629346E-18 -3.835779E-01  0.000000E+00
  3.388440E-01 -2.401254E-02  5.000000E-01  3.422660E-01 -2.436954E-02  0.000000E+00  1.501276E-02  1.667994E-03 -1.940405E-18 -3.899885E-01  0.000000E+00
  3.585140E-01 -2.090413E-02  5.000000E-01  3.621346E-01 -2.122974E-02  0.000000E+00  1.146110E-02  2.106877E-03 -2.997977E-18 -2.907974E-01  0.000000E+00
  3.785290E-01 -1.650341E-02  5.000000E-01  3.823518E-01 -1.678458E-02  0.000000E+00  8.215271E-03  1.938533E-03 -3.073151E-18 -1.246865E-01  0.000000E+00
  3.988350E-01 -1.126637E-02  5.000000E-01  4.028628E-01 -1.149465E-02  0.000000E+00  5.685931E-03  1.499565E-03 -2.146051E-18  4.178976E-02  0.000000E+00
  4.193750E-01 -5.707161E-03  5.000000E-01  4.236103E-01 -5.879296E-03  0.000000E+00  3.954726E-03  1.050927E-03 -1.280195E-18  1.745905E-01  0.000000E+00
  4.400850E-01 -3.585008E-04  5.000000E-01  4.445294E-01 -4.766197E-04  0.000000E+00  2.943840E-03  7.162987E-04 -1.073655E-18  2.704449E-01  0.000000E+00
  4.609060E-01  4.308921E-03  5.000000E-01  4.655607E-01  4.237938E-03  0.000000E+00  2.532685E-03  5.158914E-04 -3.766273E-20  3.332781E-01  0.000000E+00
  4.818030E-01  8.108519E-03  5.000000E-01  4.866687E-01  8.075909E-03  0.000000E+00  2.607143E-03  4.069317E-04  1.096674E-18  3.701824E-01  0.000000E+00
  5.027520E-01  1.090858E-02  5.000000E-01  5.078293E-01  1.090424E-02  0.000000E+00  3.082297E-03  3.272533E-04  1.313315E-18  3.900037E-01  0.000000E+00
  5.237130E-01  1.267066E-02  5.000000E-01  5.290020E-01  1.268412E-02  0.000000E+00  3.885673E-03  2.299408E-04  1.060447E-18  3.939242E-01  0.000000E+00
  5.446170E-01  1.349904E-02  5.000000E-01  5.501171E-01  1.352087E-02  0.000000E+00  4.933764E-03  9.570957E-05  7.495147E-20  3.817329E-01  0.000000E+00
  5.653940E-01  1.356860E-02  5.000000E-01  5.711039E-01  1.359114E-02  0.000000E+00  6.113821E-03 -5.480668E-05  3.530506E-20  3.546403E-01  0.000000E+00
  4.675910E-01  7.744526E-02  5.000000E-01  4.723132E-01  7.811288E-02  0.000000E+00  1.639780E-02 -1.224929E-03 -5.954753E-19 -8.185083E-01  0.000000E+00
  4.464640E-01  7.891610E-02  5.000000E-01  4.509728E-01  7.959857E-02  0.000000E+00  1.712320E-02 -1.104930E-03 -1.372853E-18 -8.741028E-01  0.000000E+00
  4.254410E-01  8.016630E-02  5.000000E-01  4.297375E-01  8.086140E-02  0.000000E+00  1.810972E-02 -9.472402E-04 -7.654597E-19 -9.522612E-01  0.000000E+00
  4.045840E-01  8.111279E-02  5.000000E-01  4.086699E-01  8.181745E-02  0.000000E+00  1.946221E-02 -6.753526E-04  8.116925E-20 -1.047722E+00  0.000000E+00
  3.839530E-01  8.162082E-02  5.000000E-01  3.878305E-01  8.233061E-02  0.000000E+00  2.114509E-02 -2.132785E-04 -7.089568E-20 -1.142074E+00  0.000000E+00
  3.636060E-01  8.155366E-02  5.000000E-01  3.672781E-01  8.226277E-02  0.000000E+00  2.295437E-02  4.966486E-04 -1.353005E-19 -1.202694E+00  0.000000E+00
  3.435960E-01  8.078919E-02  5.000000E-01  3.470660E-01  8.149058E-02  0.000000E+00  2.452273E-02  1.463762E-03  7.074172E-19 -1.193398E+00  0.000000E+00
  3.239710E-01  7.922950E-02  5.000000E-01  3.272428E-01  7.991514E-02  0.000000E+00  2.534921E-02  2.514470E-03 -7.167488E-19 -1.106170E+00  0.000000E+00
  3.047740E-01  7.695222E-02  5.000000E-01  3.078519E-01  7.761486E-02  0.000000E+00  2.504926E-02  3.266000E-03 -7.907843E-19 -9.775921E-01  0.000000E+00
  2.860450E-01  7.427671E-02  5.000000E-01  2.889338E-01  7.491233E-02  0.000000E+00  2.374292E-02  3.514384E-03  2.896395E-19 -8.478829E-01  0.000000E+00
  2.678190E-01  7.147617E-02  5.000000E-01  2.705237E-01  7.208351E-02  0.000000E+00  2.194579E-02  3.377995E-03 -5.716676E-19 -7.354901E-01  0.000000E+00
  2.501300E-01  6.874796E-02  5.000000E-01  2.526561E-01  6.932775E-02  0.000000E+00  2.016693E-02  3.047079E-03 -1.445057E-18 -6.514290E-01  0.000000E+00
  2.330040E-01  6.621809E-02  5.000000E-01  2.353571E-01  6.677233E-02  0.000000E+00  1.875619E-02  2.671184E-03  1.061298E-18 -6.054219E-01  0.000000E+00
  2.164660E-01  6.395153E-02  5.000000E-01  2.186521E-01  6.448288E-02  0.000000E+00  1.791065E-02  2.347199E-03  2.665145E-18 -6.049012E-01  0.000000E+00
  2.005340E-01  6.195859E-02  5.000000E-01  2.025592E-01  6.246982E-02  0.000000E+00  1.775049E-02  2.186410E-03  6.738394E-19 -6.399226E-01  0.000000E+00
  1.852230E-01  6.010437E-02  5.000000E-01  1.870936E-01  6.059686E-02  0.000000E+00  1.828087E-02  2.280996E-03 -3.967905E-19 -6.869703E-01  0.000000E+00
  1.705440E-01  5.822416E-02  5.000000E-01  1.722663E-01  5.869767E-02  0.000000E+00  1.931803E-02  2.610654E-03 -9.531442E-19 -7.328652E-01  0.000000E+00
  1.565000E-01  5.623318E-02  5.000000E-01  1.580805E-01  5.668658E-02  0.000000E+00  2.058844E-02  3.100616E-03 -1.016492E-18 -7.763241E-01  0.000000E+00
  1.430940E-01  5.410145E-02  5.000000E-01  1.445391E-01  5.453332E-02  0.000000E+00  2.187110E-02  3.707756E-03 -1.000501E-18 -8.161403E-01  0.000000E+00
  1.303270E-01  5.180962E-02  5.000000E-01  1.316432E-01  5.221834E-02  0.000000E+00  2.304185E-02  4.441072E-03 -1.630282E-18 -8.429902E-01  0.000000E+00
  1.182110E-01  4.932267E-02  5.000000E-01  1.194048E-01  4.970628E-02  0.000000E+00  2.401117E-02  5.295889E-03 -2.903971E-18 -8.439836E-01  0.000000E+00
  1.067560E-01  4.662966E-02  5.000000E-01  1.078341E-01  4.698607E-02  0.000000E+00  2.467005E-02  6.202574E-03 -1.014132E-18 -8.123065E-01  0.000000E+00
  9.596750E-02  4.374586E-02  5.000000E-01  9.693668E-02  4.407315E-02  0.000000E+00  2.490929E-02  7.009384E-03  1.579773E-18 -7.574259E-01  0.000000E+00
  8.582800E-02  4.074772E-02  5.000000E-01  8.669478E-02  4.104473E-02  0.000000E+00  2.472819E-02  7.589176E-03  3.928805E-19 -6.985694E-01  0.000000E+00
  8.582800E-02  4.074772E-02  5.000000E-01  8.669478E-02  4.104473E-02  0.000000E+00  2.472819E-02  7.589176E-03  3.928805E-19 -6.985694E-01  0.000000E+00
  7.631050E-02  3.771713E-02  5.000000E-01  7.708116E-02  3.798354E-02  0.000000E+00  2.429035E-02  8.008948E-03 -7.466496E-20 -6.409344E-01  0.000000E+00
  6.740780E-02  3.467973E-02  5.000000E-01  6.808856E-02  3.491546E-02  0.000000E+00  2.376689E-02  8.394228E-03  9.883300E-19 -5.797104E-01  0.000000E+00
  5.911740E-02  3.165022E-02  5.000000E-01  5.971443E-02  3.185536E-02  0.000000E+00  2.322436E-02  8.766251E-03  1.129203E-18 -5.140604E-01  0.000000E+00
  5.143150E-02  2.865458E-02  5.000000E-01  5.195091E-02  2.882947E-02  0.000000E+00  2.266442E-02  9.096895E-03  3.959997E-19 -4.456695E-01  0.000000E+00
  4.433770E-02  2.572299E-02  5.000000E-01  4.478547E-02  2.586826E-02  0.000000E+00  2.207157E-02  9.367459E-03 -6.320469E-19 -3.768552E-01  0.000000E+00
  3.782240E-02  2.288321E-02  5.000000E-01  3.820437E-02  2.299981E-02  0.000000E+00  2.143695E-02  9.581018E-03  1.492121E-18 -3.104920E-01  0.000000E+00
  3.187460E-02  2.015642E-02  5.000000E-01  3.219651E-02  2.024548E-02  0.000000E+00  2.076858E-02  9.756502E-03  7.351981E-18 -2.493975E-01  0.000000E+00
  2.648400E-02  1.756032E-02  5.000000E-01  2.675147E-02  1.762316E-02  0.000000E+00  2.008714E-02  9.941415E-03  1.596892E-17 -1.903375E-01  0.000000E+00
  2.164990E-02  1.510224E-02  5.000000E-01  2.186855E-02  1.514026E-02  0.000000E+00  1.938031E-02  1.017516E-02  1.626150E-17 -1.218234E-01  0.000000E+00
  1.737670E-02  1.278705E-02  5.000000E-01  1.755219E-02  1.280169E-02  0.000000E+00  1.857820E-02  1.037062E-02 -2.670111E-17 -3.998849E-02  0.000000E+00
  1.364080E-02  1.063751E-02  5.000000E-01  1.377856E-02  1.063044E-02  0.000000E+00  1.765359E-02  1.037611E-02 -1.777609E-16  4.203988E-02  0.000000E+00
  1.039090E-02  8.683529E-03  5.000000E-01  1.049584E-02  8.656726E-03  0.000000E+00  1.673001E-02  1.022708E-02 -4.981684E-16  1.092174E-01  0.000000E+00
  7.586340E-03  6.938783E-03  5.000000E-01  7.662959E-03  6.894359E-03  0.000000E+00  1.603846E-02  1.023220E-02 -9.230136E-16  1.615869E-01  0.000000E+00
  5.226210E-03  5.394780E-03  5.000000E-01  5.278995E-03  5.334763E-03  0.000000E+00  1.578829E-02  1.078895E-02 -1.073155E-15  2.083704E-01  0.000000E+00
  3.324300E-03  4.039363E-03  5.000000E-01  3.357877E-03  3.965658E-03  0.000000E+00  1.608076E-02  1.227138E-02 -1.577257E-16  2.563836E-01  0.000000E+00
  1.883580E-03  2.869416E-03  5.000000E-01  1.902607E-03  2.783896E-03  0.000000E+00  1.671202E-02  1.511241E-02  2.718674E-15  3.216944E-01  0.000000E+00
  8.951490E-04  1.889412E-03  5.000000E-01  9.041942E-04  1.793994E-03  0.000000E+00  1.662882E-02  1.945147E-02  7.749457E-15  4.376524E-01  0.000000E+00
  3.201820E-04  1.112245E-03  5.000000E-01  3.234206E-04  1.008979E-03  0.000000E+00  1.385741E-02  2.375231E-02  1.377220E-14  6.239339E-01  0.000000E+00
  6.852390E-05  5.536194E-04  5.000000E-01  6.922101E-05  4.447120E-04  0.000000E+00  8.064257E-03  2.419785E-02  1.877338E-14  8.113762E-01  0.000000E+00
  4.217600E-06  2.223282E-04  5.000000E-01  4.265277E-06  1.100750E-04  0.000000E+00  2.589905E-03  2.069516E-02  2.123736E-14  8.527552E-01  0.000000E+00
 -5.032520E-09  1.133537E-04  5.000000E-01  0.000000E+00  0.000000E+00  0.000000E+00 -5.591325E-04  2.136733E-02  2.156190E-14  8.031687E-01  0.000000E+00
  5.154440E-06  4.545112E-06  5.000000E-01  5.211578E-06 -1.099075E-04  0.000000E+00 -2.629555E-03  1.985310E-02  2.099902E-14  9.019176E-01  0.000000E+00