 Title = "ADflow Slice Data"
Variables =  "CoordinateX"  "CoordinateY"  "CoordinateZ"  "XoC"  "YoC"  "ZoC" "VelocityX" "VelocityY" "VelocityZ" "CoefPressure" "Mach" 
Zone T= "Slice_0001 None Absolute Regular z = 0.50000000"
 Nodes =          192  Elements=          184  ZONETYPE=FELINESEG
 DATAPACKING=POINT
  5.653940E-01 -2.832935E-03  5.000000E-01  5.711040E-01 -2.937463E-03  0.000000E+00  9.780041E-03  6.190656E-04 -3.073838E-19  1.422787E-01  0.000000E+00
  5.859770E-01 -1.450520E-03  5.000000E-01  5.918948E-01 -1.541086E-03  0.000000E+00  9.478172E-03  6.693854E-04 -1.369473E-19  1.491562E-01  0.000000E+00
  6.063060E-01  5.901780E-05  5.000000E-01  6.124292E-01 -1.630320E-05  0.000000E+00  9.133026E-03  7.010720E-04 -1.026272E-18  1.640292E-01  0.000000E+00
  6.263240E-01  1.647324E-03  5.000000E-01  6.326493E-01  1.588044E-03  0.000000E+00  8.789448E-03  7.026921E-04 -2.447971E-18  1.830042E-01  0.000000E+00
  6.459860E-01  3.231611E-03  5.000000E-01  6.525099E-01  3.188330E-03  0.000000E+00  8.479521E-03  6.731589E-04 -1.628656E-18  2.030225E-01  0.000000E+00
  6.652460E-01  4.736365E-03  5.000000E-01  6.719644E-01  4.708281E-03  0.000000E+00  8.203878E-03  6.273301E-04  7.428837E-20  2.208179E-01  0.000000E+00
  6.840650E-01  6.140526E-03  5.000000E-01  6.909734E-01  6.126623E-03  0.000000E+00  7.931772E-03  5.874948E-04  5.177308E-19  2.339958E-01  0.000000E+00
  7.024070E-01  7.487479E-03  5.000000E-01  7.095007E-01  7.487179E-03  0.000000E+00  7.630227E-03  5.597184E-04  2.989760E-19  2.449068E-01  0.000000E+00
  7.202400E-01  8.796109E-03  5.000000E-01  7.275138E-01  8.809025E-03  0.000000E+00  7.289415E-03  5.324882E-04  1.483313E-19  2.581685E-01  0.000000E+00
  7.375350E-01  1.005490E-02  5.000000E-01  7.449834E-01  1.008053E-02  0.000000E+00  6.921216E-03  4.965328E-04  3.057753E-19  2.748418E-01  0.000000E+00
  7.542690E-01  1.123727E-02  5.000000E-01  7.618864E-01  1.127484E-02  0.000000E+00  6.552143E-03  4.498772E-04  2.101124E-19  2.933646E-01  0.000000E+00
  7.704220E-01  1.231107E-02  5.000000E-01  7.782026E-01  1.235949E-02  0.000000E+00  6.217231E-03  3.940251E-04  3.246703E-19  3.115664E-01  0.000000E+00
  7.859770E-01  1.324592E-02  5.000000E-01  7.939147E-01  1.330378E-02  0.000000E+00  5.959604E-03  3.228939E-04  4.549732E-19  3.291842E-01  0.000000E+00
  8.009220E-01  1.396679E-02  5.000000E-01  8.090106E-01  1.403193E-02  0.000000E+00  5.823109E-03  2.269068E-04  1.497713E-19  3.463862E-01  0.000000E+00
  8.152480E-01  1.439021E-02  5.000000E-01  8.234813E-01  1.445962E-02  0.000000E+00  5.824939E-03  1.130177E-04  4.452765E-19  3.588707E-01  0.000000E+00
  8.289490E-01  1.451536E-02  5.000000E-01  8.373206E-01  1.458604E-02  0.000000E+00  5.946672E-03 -3.340075E-06  5.121346E-19  3.630223E-01  0.000000E+00
  8.420260E-01  1.438427E-02  5.000000E-01  8.505297E-01  1.445363E-02  0.000000E+00  6.154874E-03 -1.148696E-04  4.764460E-19  3.607009E-01  0.000000E+00
  8.544790E-01  1.404918E-02  5.000000E-01  8.631085E-01  1.411514E-02  0.000000E+00  6.416624E-03 -2.194256E-04  2.581552E-19  3.548828E-01  0.000000E+00
  8.663160E-01  1.356219E-02  5.000000E-01  8.750650E-01  1.362324E-02  0.000000E+00  6.702434E-03 -3.155503E-04  2.810403E-19  3.471093E-01  0.000000E+00
  8.775420E-01  1.296986E-02  5.000000E-01  8.864044E-01  1.302493E-02  0.000000E+00  6.986811E-03 -4.012274E-04  4.162183E-19  3.381201E-01  0.000000E+00
  8.881660E-01  1.231207E-02  5.000000E-01  8.971357E-01  1.236050E-02  0.000000E+00  7.250384E-03 -4.744500E-04 -1.429159E-19  3.285300E-01  0.000000E+00
  8.981970E-01  1.162147E-02  5.000000E-01  9.072680E-01  1.166291E-02  0.000000E+00  7.482934E-03 -5.363406E-04 -5.066856E-19  3.191174E-01  0.000000E+00
  9.076460E-01  1.091854E-02  5.000000E-01  9.168124E-01  1.095289E-02  0.000000E+00  7.685717E-03 -5.929190E-04 -3.872759E-19  3.107806E-01  0.000000E+00
  9.165220E-01  1.021019E-02  5.000000E-01  9.257781E-01  1.023738E-02  0.000000E+00  7.867891E-03 -6.498670E-04 -4.443145E-19  3.035510E-01  0.000000E+00
  9.165220E-01  1.021019E-02  5.000000E-01  9.257781E-01  1.023738E-02  0.000000E+00  7.867891E-03 -6.498670E-04 -4.443145E-19  3.035510E-01  0.000000E+00
  9.248360E-01  9.500636E-03  5.000000E-01  9.341760E-01  9.520667E-03  0.000000E+00  8.039482E-03 -7.090501E-04 -1.548536E-19  2.966499E-01  0.000000E+00
  9.325990E-01  8.794173E-03  5.000000E-01  9.420174E-01  8.807070E-03  0.000000E+00  8.208861E-03 -7.712331E-04 -2.456673E-19  2.896405E-01  0.000000E+00
  9.398210E-01  8.094797E-03  5.000000E-01  9.493124E-01  8.100630E-03  0.000000E+00  8.383349E-03 -8.373302E-04 -5.185292E-19  2.824317E-01  0.000000E+00
  9.465130E-01  7.406476E-03  5.000000E-01  9.560719E-01  7.405357E-03  0.000000E+00  8.569264E-03 -9.081502E-04  5.407063E-20  2.749137E-01  0.000000E+00
  9.526870E-01  6.733315E-03  5.000000E-01  9.623083E-01  6.725399E-03  0.000000E+00  8.771564E-03 -9.843305E-04  2.147591E-19  2.669398E-01  0.000000E+00
  9.583540E-01  6.079728E-03  5.000000E-01  9.680325E-01  6.065211E-03  0.000000E+00  8.993891E-03 -1.066310E-03  1.146326E-19  2.583810E-01  0.000000E+00
  9.635240E-01  5.450490E-03  5.000000E-01  9.732547E-01  5.429618E-03  0.000000E+00  9.239084E-03 -1.154186E-03 -5.624809E-20  2.491162E-01  0.000000E+00
  9.682080E-01  4.850678E-03  5.000000E-01  9.779860E-01  4.823748E-03  0.000000E+00  9.510825E-03 -1.248210E-03 -6.808164E-19  2.390922E-01  0.000000E+00
  9.724140E-01  4.285668E-03  5.000000E-01  9.822345E-01  4.253032E-03  0.000000E+00  9.816048E-03 -1.348900E-03 -1.237993E-18  2.283040E-01  0.000000E+00
  9.761510E-01  3.760969E-03  5.000000E-01  9.860093E-01  3.723034E-03  0.000000E+00  1.016518E-02 -1.456686E-03 -5.235025E-19  2.167205E-01  0.000000E+00
  9.794290E-01  3.282037E-03  5.000000E-01  9.893204E-01  3.239266E-03  0.000000E+00  1.056527E-02 -1.572069E-03  8.171186E-19  2.043526E-01  0.000000E+00
  9.822540E-01  2.854270E-03  5.000000E-01  9.921739E-01  2.807179E-03  0.000000E+00  1.100182E-02 -1.693204E-03  7.545069E-19  1.914508E-01  0.000000E+00
  9.846330E-01  2.482700E-03  5.000000E-01  9.945769E-01  2.431856E-03  0.000000E+00  1.142001E-02 -1.808979E-03 -9.400492E-19  1.792643E-01  0.000000E+00
  9.865710E-01  2.171903E-03  5.000000E-01  9.965345E-01  2.117921E-03  0.000000E+00  1.168613E-02 -1.885354E-03 -2.467360E-18  1.666582E-01  0.000000E+00
  9.880740E-01  1.925816E-03  5.000000E-01  9.980527E-01  1.869348E-03  0.000000E+00  1.158233E-02 -1.914442E-03 -5.020675E-18  1.473975E-01  0.000000E+00
  9.891450E-01  1.747650E-03  5.000000E-01  9.991345E-01  1.689383E-03  0.000000E+00  1.178382E-02 -2.052424E-03 -2.159261E-17  1.483566E-01  0.000000E+00
  9.897860E-01  1.639791E-03  5.000000E-01  9.997820E-01  1.580434E-03  0.000000E+00  1.516837E-02 -2.078448E-03 -6.353985E-17  1.958162E-01  0.000000E+00
  9.900000E-01  1.603672E-03  5.000000E-01  9.999981E-01  1.543951E-03  0.000000E+00  1.058461E-02 -4.463873E-03 -6.574995E-17 -4.780254E-02  0.000000E+00
  9.900000E-01  1.682383E-03  5.000000E-01  9.999981E-01  1.623456E-03  0.000000E+00  1.059797E-03 -1.485523E-02  3.021855E-17 -1.856510E-01  0.000000E+00
  9.900000E-01  1.761103E-03  5.000000E-01  9.999981E-01  1.702972E-03  0.000000E+00 -5.270430E-04 -1.395904E-02  1.177113E-16 -9.827274E-03  0.000000E+00
  9.900000E-01  1.839823E-03  5.000000E-01  9.999981E-01  1.782487E-03  0.000000E+00 -2.991728E-04  2.422307E-03  1.115702E-16 -1.452800E-02  0.000000E+00
  9.900000E-01  1.918534E-03  5.000000E-01  9.999981E-01  1.861992E-03  0.000000E+00  7.103665E-04  3.841012E-03  1.090160E-16 -1.322935E-01  0.000000E+00
  9.900000E-01  1.997254E-03  5.000000E-01  9.999981E-01  1.941508E-03  0.000000E+00  5.878619E-03 -2.625975E-03  1.375248E-16 -3.871304E-02  0.000000E+00
  9.900000E-01  1.997254E-03  5.000000E-01  9.999981E-01  1.941508E-03  0.000000E+00  5.878619E-03 -2.625975E-03  1.375248E-16 -3.871304E-02  0.000000E+00
  9.897900E-01  2.042945E-03  5.000000E-01  9.997860E-01  1.987660E-03  0.000000E+00  7.653117E-03 -1.994634E-03  1.052838E-16  1.027705E-01  0.000000E+00
  9.891580E-01  2.179974E-03  5.000000E-01  9.991476E-01  2.126073E-03  0.000000E+00  4.741943E-03 -9.669973E-04  4.234742E-17  6.064358E-02  0.000000E+00
  9.881040E-01  2.408164E-03  5.000000E-01  9.980830E-01  2.356567E-03  0.000000E+00  3.980847E-03 -8.591730E-04  1.105921E-17  5.098665E-02  0.000000E+00
  9.866260E-01  2.727220E-03  5.000000E-01  9.965900E-01  2.678845E-03  0.000000E+00  3.793992E-03 -8.230796E-04 -3.857601E-19  5.274462E-02  0.000000E+00
  9.847200E-01  3.136718E-03  5.000000E-01  9.946648E-01  3.092479E-03  0.000000E+00  3.717908E-03 -7.959613E-04 -3.081490E-18  4.742975E-02  0.000000E+00
  9.823820E-01  3.636055E-03  5.000000E-01  9.923032E-01  3.596859E-03  0.000000E+00  3.775974E-03 -8.030103E-04 -2.277069E-18  3.934116E-02  0.000000E+00
  9.796080E-01  4.224402E-03  5.000000E-01  9.895012E-01  4.191148E-03  0.000000E+00  3.945174E-03 -8.330498E-04 -9.796216E-19  3.044933E-02  0.000000E+00
  9.763910E-01  4.900727E-03  5.000000E-01  9.862517E-01  4.874303E-03  0.000000E+00  4.183375E-03 -8.751843E-04  1.022799E-20  2.024185E-02  0.000000E+00
  9.727270E-01  5.663603E-03  5.000000E-01  9.825507E-01  5.644884E-03  0.000000E+00  4.462833E-03 -9.235696E-04  1.798438E-19  8.623580E-03  0.000000E+00
  9.686070E-01  6.511401E-03  5.000000E-01  9.783891E-01  6.501243E-03  0.000000E+00  4.767174E-03 -9.742763E-04  1.299357E-19 -4.164916E-03  0.000000E+00
  9.640240E-01  7.442025E-03  5.000000E-01  9.737598E-01  7.441265E-03  0.000000E+00  5.087494E-03 -1.024930E-03  4.051189E-19 -1.796690E-02  0.000000E+00
  9.589680E-01  8.453031E-03  5.000000E-01  9.686527E-01  8.462482E-03  0.000000E+00  5.419955E-03 -1.074348E-03  6.099160E-19 -3.264438E-02  0.000000E+00
  9.534310E-01  9.541488E-03  5.000000E-01  9.630598E-01  9.561932E-03  0.000000E+00  5.762779E-03 -1.121790E-03  3.039128E-19 -4.805758E-02  0.000000E+00
  9.474030E-01  1.070404E-02  5.000000E-01  9.569709E-01  1.073622E-02  0.000000E+00  6.113952E-03 -1.166263E-03 -3.109188E-19 -6.397624E-02  0.000000E+00
  9.408720E-01  1.193689E-02  5.000000E-01  9.503740E-01  1.198152E-02  0.000000E+00  6.470031E-03 -1.206812E-03 -1.059292E-18 -8.022338E-02  0.000000E+00
  9.338280E-01  1.323575E-02  5.000000E-01  9.432588E-01  1.329350E-02  0.000000E+00  6.826623E-03 -1.242482E-03 -1.520337E-18 -9.663324E-02  0.000000E+00
  9.262600E-01  1.459602E-02  5.000000E-01  9.356144E-01  1.466751E-02  0.000000E+00  7.178516E-03 -1.272017E-03 -1.189143E-18 -1.129609E-01  0.000000E+00
  9.181550E-01  1.601252E-02  5.000000E-01  9.274275E-01  1.609832E-02  0.000000E+00  7.519422E-03 -1.294272E-03 -7.309978E-19 -1.290107E-01  0.000000E+00
  9.095020E-01  1.747991E-02  5.000000E-01  9.186872E-01  1.758052E-02  0.000000E+00  7.842250E-03 -1.308127E-03 -2.118958E-19 -1.444706E-01  0.000000E+00
  9.002880E-01  1.899231E-02  5.000000E-01  9.093801E-01  1.910820E-02  0.000000E+00  8.138530E-03 -1.312616E-03  6.021408E-19 -1.588134E-01  0.000000E+00
  8.905020E-01  2.054374E-02  5.000000E-01  8.994953E-01  2.067530E-02  0.000000E+00  8.398420E-03 -1.308295E-03  9.969467E-19 -1.717064E-01  0.000000E+00
  8.801320E-01  2.213141E-02  5.000000E-01  8.890205E-01  2.227900E-02  0.000000E+00  8.613576E-03 -1.297567E-03  1.136428E-18 -1.832177E-01  0.000000E+00
  8.691700E-01  2.375631E-02  5.000000E-01  8.779478E-01  2.392032E-02  0.000000E+00  8.780445E-03 -1.283015E-03  7.960060E-19 -1.935612E-01  0.000000E+00
  8.691700E-01  2.375631E-02  5.000000E-01  8.779478E-01  2.392032E-02  0.000000E+00  8.780445E-03 -1.283015E-03  7.960060E-19 -1.935612E-01  0.000000E+00
  8.576080E-01  2.542178E-02  5.000000E-01  8.662691E-01  2.560260E-02  0.000000E+00  8.900998E-03 -1.266954E-03  1.506395E-19 -2.028692E-01  0.000000E+00
  8.454380E-01  2.713358E-02  5.000000E-01  8.539762E-01  2.733168E-02  0.000000E+00  8.981961E-03 -1.252547E-03 -4.463603E-19 -2.113380E-01  0.000000E+00
  8.326580E-01  2.890076E-02  5.000000E-01  8.410671E-01  2.911672E-02  0.000000E+00  9.035108E-03 -1.243621E-03 -6.551420E-19 -2.194830E-01  0.000000E+00
  8.192630E-01  3.073630E-02  5.000000E-01  8.275368E-01  3.097079E-02  0.000000E+00  9.078269E-03 -1.244625E-03 -2.424657E-19 -2.286167E-01  0.000000E+00
  8.052550E-01  3.265736E-02  5.000000E-01  8.133874E-01  3.291125E-02  0.000000E+00  9.136584E-03 -1.259000E-03  2.662487E-19 -2.407180E-01  0.000000E+00
  7.906370E-01  3.468051E-02  5.000000E-01  7.986217E-01  3.495483E-02  0.000000E+00  9.240405E-03 -1.285100E-03  4.977817E-19 -2.569580E-01  0.000000E+00
  7.754120E-01  3.680782E-02  5.000000E-01  7.832430E-01  3.710363E-02  0.000000E+00  9.415172E-03 -1.316503E-03  2.818786E-19 -2.770115E-01  0.000000E+00
  7.595880E-01  3.902201E-02  5.000000E-01  7.672592E-01  3.934018E-02  0.000000E+00  9.670389E-03 -1.347513E-03  7.500909E-19 -3.002698E-01  0.000000E+00
  7.431760E-01  4.129928E-02  5.000000E-01  7.506814E-01  4.164045E-02  0.000000E+00  9.999081E-03 -1.374184E-03  1.463382E-18 -3.261670E-01  0.000000E+00
  7.261880E-01  4.361185E-02  5.000000E-01  7.335219E-01  4.397638E-02  0.000000E+00  1.038288E-02 -1.391905E-03  1.021439E-18 -3.534427E-01  0.000000E+00
  7.086430E-01  4.592905E-02  5.000000E-01  7.157997E-01  4.631697E-02  0.000000E+00  1.079594E-02 -1.396259E-03 -3.533686E-19 -3.801578E-01  0.000000E+00
  6.905640E-01  4.822049E-02  5.000000E-01  6.975381E-01  4.863156E-02  0.000000E+00  1.120977E-02 -1.386430E-03  8.167710E-19 -4.048381E-01  0.000000E+00
  6.719770E-01  5.046488E-02  5.000000E-01  6.787634E-01  5.089861E-02  0.000000E+00  1.160156E-02 -1.368544E-03  1.560096E-18 -4.282013E-01  0.000000E+00
  6.529150E-01  5.266153E-02  5.000000E-01  6.595089E-01  5.311745E-02  0.000000E+00  1.196713E-02 -1.349570E-03  6.227305E-20 -4.522282E-01  0.000000E+00
  6.334180E-01  5.481334E-02  5.000000E-01  6.398150E-01  5.529099E-02  0.000000E+00  1.232343E-02 -1.328522E-03 -6.024036E-19 -4.779334E-01  0.000000E+00
  6.135280E-01  5.690774E-02  5.000000E-01  6.197241E-01  5.740654E-02  0.000000E+00  1.269301E-02 -1.301150E-03 -1.188266E-18 -5.058374E-01  0.000000E+00
  5.932910E-01  5.892654E-02  5.000000E-01  5.992827E-01  5.944573E-02  0.000000E+00  1.309195E-02 -1.263889E-03 -7.803940E-19 -5.358519E-01  0.000000E+00
  5.727570E-01  6.084447E-02  5.000000E-01  5.785413E-01  6.138302E-02  0.000000E+00  1.352546E-02 -1.211336E-03  2.671889E-19 -5.659598E-01  0.000000E+00
  5.519810E-01  6.262911E-02  5.000000E-01  5.575555E-01  6.318570E-02  0.000000E+00  1.398309E-02 -1.138787E-03  7.014050E-19 -5.933995E-01  0.000000E+00
  5.310180E-01  6.424707E-02  5.000000E-01  5.363808E-01  6.482000E-02  0.000000E+00  1.443956E-02 -1.052149E-03  1.012963E-18 -6.185833E-01  0.000000E+00
  5.099250E-01  6.569467E-02  5.000000E-01  5.150748E-01  6.628221E-02  0.000000E+00  1.487657E-02 -9.639037E-04  2.631528E-19 -6.450735E-01  0.000000E+00
  4.887640E-01  6.698548E-02  5.000000E-01  4.937001E-01  6.758605E-02  0.000000E+00  1.530640E-02 -8.711001E-04 -5.968649E-19 -6.737980E-01  0.000000E+00
  4.675910E-01  6.810670E-02  5.000000E-01  4.723133E-01  6.871860E-02  0.000000E+00  1.575345E-02 -7.586739E-04 -1.588544E-19 -7.021951E-01  0.000000E+00
  7.860720E-05 -4.424756E-04  5.000000E-01  7.940615E-05 -5.228612E-04  0.000000E+00 -1.125891E-02  3.636309E-02 -2.329651E-16  7.909819E-01  0.000000E+00
  3.989240E-04 -1.047101E-03  5.000000E-01  4.029579E-04 -1.133593E-03  0.000000E+00 -1.028213E-02  1.610330E-02 -2.114691E-16  1.080296E+00  0.000000E+00
  1.196920E-03 -1.779573E-03  5.000000E-01  1.209013E-03 -1.873462E-03  0.000000E+00 -2.750254E-03  2.859399E-03 -1.025592E-16  1.079952E+00  0.000000E+00
  2.563580E-03 -2.547549E-03  5.000000E-01  2.589475E-03 -2.649194E-03  0.000000E+00  4.599973E-03 -1.991782E-03 -4.532564E-18  9.365877E-01  0.000000E+00
  4.492740E-03 -3.310176E-03  5.000000E-01  4.538118E-03 -3.419523E-03  0.000000E+00  8.964353E-03 -3.090905E-03  3.912893E-17  8.123324E-01  0.000000E+00
  6.952190E-03 -4.064200E-03  5.000000E-01  7.022406E-03 -4.181161E-03  0.000000E+00  1.115761E-02 -3.140404E-03  3.314447E-17  7.260001E-01  0.000000E+00
  9.910730E-03 -4.831327E-03  5.000000E-01  1.001082E-02 -4.956036E-03  0.000000E+00  1.229302E-02 -3.027344E-03  1.176210E-17  6.579567E-01  0.000000E+00
  1.334950E-02 -5.637028E-03  5.000000E-01  1.348432E-02 -5.769874E-03  0.000000E+00  1.296259E-02 -2.866532E-03 -1.574859E-18  5.911466E-01  0.000000E+00
  1.728780E-02 -6.459925E-03  5.000000E-01  1.746240E-02 -6.601081E-03  0.000000E+00  1.336069E-02 -2.574850E-03 -5.801930E-18  5.190136E-01  0.000000E+00
  2.175590E-02 -7.250129E-03  5.000000E-01  2.197562E-02 -7.399265E-03  0.000000E+00  1.354242E-02 -2.170304E-03 -5.396774E-18  4.518271E-01  0.000000E+00
  2.676920E-02 -7.969460E-03  5.000000E-01  2.703955E-02 -8.125862E-03  0.000000E+00  1.357583E-02 -1.753078E-03 -3.346836E-18  4.010211E-01  0.000000E+00
  3.232800E-02 -8.606238E-03  5.000000E-01  3.265449E-02 -8.769070E-03  0.000000E+00  1.353360E-02 -1.396687E-03 -1.077742E-18  3.675273E-01  0.000000E+00
  3.842930E-02 -9.166392E-03  5.000000E-01  3.881741E-02 -9.334881E-03  0.000000E+00  1.345865E-02 -1.122217E-03  3.038178E-19  3.451860E-01  0.000000E+00
  4.507220E-02 -9.664200E-03  5.000000E-01  4.552739E-02 -9.837717E-03  0.000000E+00  1.338309E-02 -9.364682E-04  6.400694E-19  3.293748E-01  0.000000E+00
  5.225680E-02 -1.013057E-02  5.000000E-01  5.278455E-02 -1.030879E-02  0.000000E+00  1.334300E-02 -8.371728E-04  2.194723E-19  3.174755E-01  0.000000E+00
  5.998640E-02 -1.059910E-02  5.000000E-01  6.059221E-02 -1.078206E-02  0.000000E+00  1.334592E-02 -7.866360E-04  2.797320E-19  3.042227E-01  0.000000E+00
  6.827110E-02 -1.107463E-02  5.000000E-01  6.896058E-02 -1.126239E-02  0.000000E+00  1.336712E-02 -7.429257E-04  4.457603E-19  2.867054E-01  0.000000E+00
  7.712280E-02 -1.155046E-02  5.000000E-01  7.790168E-02 -1.174302E-02  0.000000E+00  1.338459E-02 -6.952333E-04 -3.167991E-19  2.677346E-01  0.000000E+00
  8.655260E-02 -1.202258E-02  5.000000E-01  8.742671E-02 -1.221992E-02  0.000000E+00  1.338574E-02 -6.428366E-04 -4.813562E-19  2.497917E-01  0.000000E+00
  9.657140E-02 -1.248338E-02  5.000000E-01  9.754669E-02 -1.268536E-02  0.000000E+00  1.335559E-02 -5.765468E-04 -1.540234E-19  2.324305E-01  0.000000E+00
  1.071900E-01 -1.291211E-02  5.000000E-01  1.082725E-01 -1.311843E-02  0.000000E+00  1.328656E-02 -4.945038E-04 -1.958299E-19  2.159330E-01  0.000000E+00
  1.184180E-01 -1.329387E-02  5.000000E-01  1.196139E-01 -1.350404E-02  0.000000E+00  1.319500E-02 -4.132796E-04  1.507674E-20  2.025243E-01  0.000000E+00
  1.302610E-01 -1.363229E-02  5.000000E-01  1.315765E-01 -1.384588E-02  0.000000E+00  1.310831E-02 -3.486889E-04  1.077383E-19  1.925039E-01  0.000000E+00
  1.427230E-01 -1.393891E-02  5.000000E-01  1.441644E-01 -1.415560E-02  0.000000E+00  1.304342E-02 -3.047766E-04 -3.186722E-20  1.839870E-01  0.000000E+00
  1.427230E-01 -1.393891E-02  5.000000E-01  1.441644E-01 -1.415560E-02  0.000000E+00  1.304342E-02 -3.047766E-04 -3.186722E-20  1.839870E-01  0.000000E+00
  1.558070E-01 -1.422863E-02  5.000000E-01  1.573805E-01 -1.444824E-02  0.000000E+00  1.299569E-02 -2.728934E-04 -1.897787E-19  1.747340E-01  0.000000E+00
  1.695140E-01 -1.450134E-02  5.000000E-01  1.712259E-01 -1.472371E-02  0.000000E+00  1.294204E-02 -2.365921E-04 -3.248736E-19  1.635301E-01  0.000000E+00
  1.838420E-01 -1.474029E-02  5.000000E-01  1.856986E-01 -1.496507E-02  0.000000E+00  1.285865E-02 -1.840380E-04 -1.107425E-19  1.513697E-01  0.000000E+00
  1.987870E-01 -1.491865E-02  5.000000E-01  2.007946E-01 -1.514524E-02  0.000000E+00  1.273663E-02 -1.128769E-04  4.628567E-19  1.401287E-01  0.000000E+00
  2.143420E-01 -1.500802E-02  5.000000E-01  2.165067E-01 -1.523551E-02  0.000000E+00  1.259215E-02 -3.637390E-05  8.545650E-19  1.318738E-01  0.000000E+00
  2.304940E-01 -1.500694E-02  5.000000E-01  2.328218E-01 -1.523442E-02  0.000000E+00  1.246254E-02  2.055329E-05  4.998886E-19  1.280298E-01  0.000000E+00
  2.472290E-01 -1.495171E-02  5.000000E-01  2.497258E-01 -1.517863E-02  0.000000E+00  1.237848E-02  4.669090E-05  1.695885E-19  1.267006E-01  0.000000E+00
  2.645310E-01 -1.487899E-02  5.000000E-01  2.672025E-01 -1.510517E-02  0.000000E+00  1.233850E-02  5.847568E-05  5.139745E-20  1.232780E-01  0.000000E+00
  2.823750E-01 -1.478650E-02  5.000000E-01  2.852267E-01 -1.501174E-02  0.000000E+00  1.231541E-02  8.182278E-05  2.768695E-20  1.153352E-01  0.000000E+00
  3.007320E-01 -1.463822E-02  5.000000E-01  3.037691E-01 -1.486197E-02  0.000000E+00  1.228193E-02  1.276269E-04  2.083934E-19  1.051255E-01  0.000000E+00
  3.195690E-01 -1.439809E-02  5.000000E-01  3.227964E-01 -1.461942E-02  0.000000E+00  1.222264E-02  1.905038E-04  1.787089E-19  9.631913E-02  0.000000E+00
  3.388440E-01 -1.404185E-02  5.000000E-01  3.422660E-01 -1.425958E-02  0.000000E+00  1.212915E-02  2.600178E-04  1.291451E-19  9.072884E-02  0.000000E+00
  3.585140E-01 -1.356126E-02  5.000000E-01  3.621347E-01 -1.377414E-02  0.000000E+00  1.199141E-02  3.295134E-04  2.154659E-19  8.803241E-02  0.000000E+00
  3.785290E-01 -1.294996E-02  5.000000E-01  3.823518E-01 -1.315666E-02  0.000000E+00  1.179531E-02  3.978263E-04 -3.330426E-19  8.722495E-02  0.000000E+00
  3.988350E-01 -1.219928E-02  5.000000E-01  4.028629E-01 -1.239840E-02  0.000000E+00  1.153247E-02  4.646294E-04 -6.655675E-19  8.848649E-02  0.000000E+00
  4.193750E-01 -1.130185E-02  5.000000E-01  4.236103E-01 -1.149191E-02  0.000000E+00  1.120941E-02  5.328610E-04 -3.527921E-19  9.222534E-02  0.000000E+00
  4.400850E-01 -1.023578E-02  5.000000E-01  4.445295E-01 -1.041507E-02  0.000000E+00  1.085722E-02  6.010661E-04 -1.045204E-18  9.895682E-02  0.000000E+00
  4.609060E-01 -8.999028E-03  5.000000E-01  4.655607E-01 -9.165828E-03  0.000000E+00  1.053621E-02  6.482655E-04 -8.475540E-19  1.104150E-01  0.000000E+00
  4.818030E-01 -7.664737E-03  5.000000E-01  4.866688E-01 -7.818061E-03  0.000000E+00  1.031108E-02  6.456294E-04  3.758271E-19  1.270899E-01  0.000000E+00
  5.027520E-01 -6.377751E-03  5.000000E-01  5.078293E-01 -6.518078E-03  0.000000E+00  1.019532E-02  5.983454E-04  5.422125E-19  1.431800E-01  0.000000E+00
  5.237130E-01 -5.209599E-03  5.000000E-01  5.290020E-01 -5.338128E-03  0.000000E+00  1.012325E-02  5.582378E-04  3.163624E-19  1.494611E-01  0.000000E+00
  5.446170E-01 -4.075019E-03  5.000000E-01  5.501171E-01 -4.192090E-03  0.000000E+00  9.999917E-03  5.697239E-04  5.246629E-21  1.452871E-01  0.000000E+00
  5.653940E-01 -2.832935E-03  5.000000E-01  5.711040E-01 -2.937463E-03  0.000000E+00  9.780041E-03  6.190656E-04 -3.073838E-19  1.422787E-01  0.000000E+00
  4.675910E-01  6.810670E-02  5.000000E-01  4.723133E-01  6.871860E-02  0.000000E+00  1.575345E-02 -7.586739E-04 -1.588544E-19 -7.021951E-01  0.000000E+00
  4.464640E-01  6.902631E-02  5.000000E-01  4.509729E-01  6.964750E-02  0.000000E+00  1.622155E-02 -6.240389E-04  2.211234E-19 -7.290516E-01  0.000000E+00
  4.254410E-01  6.973166E-02  5.000000E-01  4.297376E-01  7.035997E-02  0.000000E+00  1.669923E-02 -4.737819E-04  9.218768E-20 -7.549781E-01  0.000000E+00
  4.045840E-01  7.021810E-02  5.000000E-01  4.086699E-01  7.085132E-02  0.000000E+00  1.717705E-02 -3.101092E-04 -2.701002E-19 -7.804568E-01  0.000000E+00
  3.839530E-01  7.048447E-02  5.000000E-01  3.878306E-01  7.112038E-02  0.000000E+00  1.765165E-02 -1.306184E-04 -3.003327E-19 -8.052841E-01  0.000000E+00
  3.636060E-01  7.052576E-02  5.000000E-01  3.672781E-01  7.116209E-02  0.000000E+00  1.812266E-02  6.826410E-05 -1.629615E-19 -8.284184E-01  0.000000E+00
  3.435960E-01  7.033772E-02  5.000000E-01  3.470660E-01  7.097215E-02  0.000000E+00  1.858642E-02  2.876860E-04  1.837342E-19 -8.487821E-01  0.000000E+00
  3.239710E-01  6.991779E-02  5.000000E-01  3.272428E-01  7.054798E-02  0.000000E+00  1.903331E-02  5.227684E-04  4.603816E-19 -8.666950E-01  0.000000E+00
  3.047740E-01  6.927612E-02  5.000000E-01  3.078519E-01  6.989983E-02  0.000000E+00  1.945670E-02  7.657543E-04  3.113781E-19 -8.836673E-01  0.000000E+00
  2.860450E-01  6.842995E-02  5.000000E-01  2.889338E-01  6.904511E-02  0.000000E+00  1.986576E-02  1.020192E-03 -4.654983E-19 -8.996430E-01  0.000000E+00
  2.678190E-01  6.738400E-02  5.000000E-01  2.705237E-01  6.798860E-02  0.000000E+00  2.027248E-02  1.293542E-03 -1.116315E-18 -9.137706E-01  0.000000E+00
  2.501300E-01  6.614406E-02  5.000000E-01  2.526561E-01  6.673614E-02  0.000000E+00  2.067812E-02  1.585085E-03 -1.113731E-18 -9.265508E-01  0.000000E+00
  2.330040E-01  6.472078E-02  5.000000E-01  2.353571E-01  6.529848E-02  0.000000E+00  2.108079E-02  1.892537E-03 -5.690517E-19 -9.390194E-01  0.000000E+00
  2.164660E-01  6.312706E-02  5.000000E-01  2.186521E-01  6.368867E-02  0.000000E+00  2.148362E-02  2.216799E-03 -7.153409E-19 -9.511585E-01  0.000000E+00
  2.005340E-01  6.137655E-02  5.000000E-01  2.025592E-01  6.192048E-02  0.000000E+00  2.189816E-02  2.569790E-03 -1.304327E-18 -9.599069E-01  0.000000E+00
  1.852230E-01  5.946877E-02  5.000000E-01  1.870936E-01  5.999343E-02  0.000000E+00  2.232316E-02  2.958069E-03 -3.805087E-19 -9.625795E-01  0.000000E+00
  1.705440E-01  5.741053E-02  5.000000E-01  1.722663E-01  5.791441E-02  0.000000E+00  2.273535E-02  3.364204E-03 -1.026675E-18 -9.625209E-01  0.000000E+00
  1.565000E-01  5.522440E-02  5.000000E-01  1.580805E-01  5.570620E-02  0.000000E+00  2.312659E-02  3.771829E-03 -1.357102E-18 -9.672159E-01  0.000000E+00
  1.430940E-01  5.293760E-02  5.000000E-01  1.445391E-01  5.339630E-02  0.000000E+00  2.353574E-02  4.203126E-03 -9.035851E-19 -9.797300E-01  0.000000E+00
  1.303270E-01  5.055631E-02  5.000000E-01  1.316432E-01  5.099097E-02  0.000000E+00  2.402165E-02  4.725952E-03 -1.584345E-18 -9.910855E-01  0.000000E+00
  1.182110E-01  4.805266E-02  5.000000E-01  1.194048E-01  4.846203E-02  0.000000E+00  2.456899E-02  5.376888E-03 -1.664535E-18 -9.867511E-01  0.000000E+00
  1.067560E-01  4.541185E-02  5.000000E-01  1.078341E-01  4.579455E-02  0.000000E+00  2.505158E-02  6.111342E-03 -1.140894E-18 -9.579782E-01  0.000000E+00
  9.596750E-02  4.263916E-02  5.000000E-01  9.693669E-02  4.299386E-02  0.000000E+00  2.529485E-02  6.791130E-03 -8.626251E-19 -9.128301E-01  0.000000E+00
  8.582800E-02  3.979878E-02  5.000000E-01  8.669479E-02  4.012479E-02  0.000000E+00  2.523287E-02  7.293482E-03 -3.424113E-19 -8.696729E-01  0.000000E+00
  8.582800E-02  3.979878E-02  5.000000E-01  8.669479E-02  4.012479E-02  0.000000E+00  2.523287E-02  7.293482E-03 -3.424113E-19 -8.696729E-01  0.000000E+00
  7.631050E-02  3.696076E-02  5.000000E-01  7.708117E-02  3.725812E-02  0.000000E+00  2.499660E-02  7.688628E-03  8.505873E-19 -8.325171E-01  0.000000E+00
  6.740780E-02  3.413846E-02  5.000000E-01  6.808856E-02  3.440732E-02  0.000000E+00  2.474660E-02  8.107605E-03  5.603486E-19 -7.945841E-01  0.000000E+00
  5.911740E-02  3.133407E-02  5.000000E-01  5.971444E-02  3.157460E-02  0.000000E+00  2.453536E-02  8.573778E-03 -4.792801E-20 -7.531242E-01  0.000000E+00
  5.143150E-02  2.856198E-02  5.000000E-01  5.195092E-02  2.877452E-02  0.000000E+00  2.434276E-02  9.055598E-03  4.239419E-19 -7.088658E-01  0.000000E+00
  4.433770E-02  2.584224E-02  5.000000E-01  4.478548E-02  2.602731E-02  0.000000E+00  2.413272E-02  9.529317E-03  7.522947E-19 -6.643650E-01  0.000000E+00
  3.782240E-02  2.319404E-02  5.000000E-01  3.820438E-02  2.335236E-02  0.000000E+00  2.388623E-02  9.997295E-03  9.155666E-19 -6.234036E-01  0.000000E+00
  3.187460E-02  2.063114E-02  5.000000E-01  3.219651E-02  2.076358E-02  0.000000E+00  2.361581E-02  1.048539E-02  1.921074E-18 -5.889410E-01  0.000000E+00
  2.648400E-02  1.816536E-02  5.000000E-01  2.675147E-02  1.827290E-02  0.000000E+00  2.335498E-02  1.106042E-02  1.931733E-18 -5.549552E-01  0.000000E+00
  2.164990E-02  1.579834E-02  5.000000E-01  2.186855E-02  1.588197E-02  0.000000E+00  2.307542E-02  1.177617E-02 -8.888686E-19 -5.045577E-01  0.000000E+00
  1.737670E-02  1.353023E-02  5.000000E-01  1.755219E-02  1.359096E-02  0.000000E+00  2.262076E-02  1.249106E-02 -4.172208E-18 -4.318872E-01  0.000000E+00
  1.364080E-02  1.138553E-02  5.000000E-01  1.377856E-02  1.142460E-02  0.000000E+00  2.184943E-02  1.292490E-02  1.060388E-19 -3.560962E-01  0.000000E+00
  1.039090E-02  9.402319E-03  5.000000E-01  1.049584E-02  9.421357E-03  0.000000E+00  2.083085E-02  1.302833E-02  1.211419E-17 -3.017264E-01  0.000000E+00
  7.586340E-03  7.602421E-03  5.000000E-01  7.662960E-03  7.603282E-03  0.000000E+00  1.982535E-02  1.316309E-02  9.283146E-18 -2.739271E-01  0.000000E+00
  5.226210E-03  5.980714E-03  5.000000E-01  5.278995E-03  5.965197E-03  0.000000E+00  1.913773E-02  1.387419E-02 -2.335195E-17 -2.639375E-01  0.000000E+00
  3.324300E-03  4.527379E-03  5.000000E-01  3.357878E-03  4.497184E-03  0.000000E+00  1.904702E-02  1.575911E-02 -4.852166E-17 -2.634732E-01  0.000000E+00
  1.883580E-03  3.244647E-03  5.000000E-01  1.902608E-03  3.201498E-03  0.000000E+00  1.958468E-02  1.966882E-02 -1.149512E-17 -2.488682E-01  0.000000E+00
  8.951490E-04  2.145104E-03  5.000000E-01  9.041943E-04  2.090851E-03  0.000000E+00  1.975819E-02  2.633127E-02  7.115170E-17 -1.692370E-01  0.000000E+00
  3.201820E-04  1.253338E-03  5.000000E-01  3.234206E-04  1.190079E-03  0.000000E+00  1.719493E-02  3.451581E-02  1.049505E-16  1.625055E-02  0.000000E+00
  6.852390E-05  5.994369E-04  5.000000E-01  6.922101E-05  5.295736E-04  0.000000E+00  1.089606E-02  3.993409E-02  2.607173E-17  2.406058E-01  0.000000E+00
  4.217600E-06  2.057371E-04  5.000000E-01  4.265277E-06  1.318978E-04  0.000000E+00  4.103762E-03  4.148756E-02 -9.561637E-17  3.196341E-01  0.000000E+00
 -5.032520E-09  7.515800E-05  5.000000E-01  0.000000E+00  0.000000E+00  0.000000E+00 -6.910181E-04  4.750719E-02 -1.425957E-16  2.760050E-01  0.000000E+00
  5.154440E-06 -5.578784E-05  5.000000E-01  5.211579E-06 -1.322683E-04  0.000000E+00 -5.906884E-03  5.025833E-02 -1.712953E-16  4.131394E-01  0.000000E+00