 Title = "ADflow Slice Data"
Variables =  "CoordinateX"  "CoordinateY"  "CoordinateZ"  "XoC"  "YoC"  "ZoC" "VelocityX" "VelocityY" "VelocityZ" "CoefPressure" "Mach" 
Zone T= "Slice_0001 None Absolute Regular z = 0.50000000"
 Nodes =          192  Elements=          184  ZONETYPE=FELINESEG
 DATAPACKING=POINT
  5.653940E-01 -2.669653E-03  5.000000E-01  5.711040E-01 -2.772044E-03  0.000000E+00  9.768904E-03  6.152712E-04  2.312880E-17  1.433907E-01  0.000000E+00
  5.859770E-01 -1.294154E-03  5.000000E-01  5.918948E-01 -1.382654E-03  0.000000E+00  9.468806E-03  6.652659E-04  7.913017E-18  1.502283E-01  0.000000E+00
  6.063060E-01  2.073297E-04  5.000000E-01  6.124291E-01  1.339938E-04  0.000000E+00  9.126442E-03  6.966131E-04 -1.595337E-17  1.650416E-01  0.000000E+00
  6.263240E-01  1.786164E-03  5.000000E-01  6.326493E-01  1.728773E-03  0.000000E+00  8.786782E-03  6.979294E-04 -1.730922E-17  1.839127E-01  0.000000E+00
  6.459860E-01  3.359357E-03  5.000000E-01  6.525099E-01  3.317854E-03  0.000000E+00  8.481685E-03  6.681197E-04  1.519721E-18  2.037829E-01  0.000000E+00
  6.652460E-01  4.851306E-03  5.000000E-01  6.719644E-01  4.824870E-03  0.000000E+00  8.211115E-03  6.221748E-04  1.600054E-17  2.213823E-01  0.000000E+00
  6.840650E-01  6.241778E-03  5.000000E-01  6.909734E-01  6.229385E-03  0.000000E+00  7.943190E-03  5.827488E-04  1.308775E-17  2.342935E-01  0.000000E+00
  7.024070E-01  7.576245E-03  5.000000E-01  7.095007E-01  7.577328E-03  0.000000E+00  7.643895E-03  5.559874E-04  4.995056E-18  2.449237E-01  0.000000E+00
  7.202400E-01  8.875013E-03  5.000000E-01  7.275138E-01  8.889213E-03  0.000000E+00  7.302993E-03  5.300262E-04  3.877477E-18  2.580007E-01  0.000000E+00
  7.375350E-01  1.012712E-02  5.000000E-01  7.449834E-01  1.015396E-02  0.000000E+00  6.932573E-03  4.952356E-04  6.909536E-18  2.746247E-01  0.000000E+00
  7.542690E-01  1.130584E-02  5.000000E-01  7.618864E-01  1.134459E-02  0.000000E+00  6.559757E-03  4.494535E-04  8.841079E-18  2.932083E-01  0.000000E+00
  7.704220E-01  1.237853E-02  5.000000E-01  7.782026E-01  1.242812E-02  0.000000E+00  6.220346E-03  3.941547E-04  6.741360E-18  3.115346E-01  0.000000E+00
  7.859770E-01  1.331412E-02  5.000000E-01  7.939147E-01  1.337315E-02  0.000000E+00  5.958267E-03  3.232460E-04 -7.158756E-18  3.293151E-01  0.000000E+00
  8.009220E-01  1.403638E-02  5.000000E-01  8.090106E-01  1.410271E-02  0.000000E+00  5.818062E-03  2.271593E-04 -3.343559E-17  3.467026E-01  0.000000E+00
  8.152480E-01  1.446058E-02  5.000000E-01  8.234813E-01  1.453119E-02  0.000000E+00  5.817270E-03  1.129755E-04 -5.136517E-17  3.593466E-01  0.000000E+00
  8.289490E-01  1.458541E-02  5.000000E-01  8.373206E-01  1.465728E-02  0.000000E+00  5.937433E-03 -3.745123E-06 -4.695161E-17  3.635970E-01  0.000000E+00
  8.420260E-01  1.445283E-02  5.000000E-01  8.505297E-01  1.452336E-02  0.000000E+00  6.144934E-03 -1.156714E-04 -2.970284E-17  3.613270E-01  0.000000E+00
  8.544790E-01  1.411519E-02  5.000000E-01  8.631085E-01  1.418231E-02  0.000000E+00  6.406670E-03 -2.206604E-04 -1.295703E-17  3.555333E-01  0.000000E+00
  8.663160E-01  1.362483E-02  5.000000E-01  8.750650E-01  1.368699E-02  0.000000E+00  6.692998E-03 -3.172555E-04 -3.318014E-18  3.477655E-01  0.000000E+00
  8.775420E-01  1.302852E-02  5.000000E-01  8.864044E-01  1.308466E-02  0.000000E+00  6.978288E-03 -4.034284E-04 -5.832513E-19  3.387655E-01  0.000000E+00
  8.881660E-01  1.236633E-02  5.000000E-01  8.971357E-01  1.241579E-02  0.000000E+00  7.243045E-03 -4.771505E-04  3.076961E-19  3.291507E-01  0.000000E+00
  8.981970E-01  1.167108E-02  5.000000E-01  9.072680E-01  1.171352E-02  0.000000E+00  7.476937E-03 -5.395157E-04  2.241643E-18  3.197021E-01  0.000000E+00
  9.076460E-01  1.096342E-02  5.000000E-01  9.168124E-01  1.099872E-02  0.000000E+00  7.681108E-03 -5.965119E-04 -2.937543E-18  3.113204E-01  0.000000E+00
  9.165220E-01  1.025040E-02  5.000000E-01  9.257781E-01  1.027849E-02  0.000000E+00  7.864612E-03 -6.538042E-04 -3.800427E-19  3.040407E-01  0.000000E+00
  9.165220E-01  1.025040E-02  5.000000E-01  9.257781E-01  1.027849E-02  0.000000E+00  7.864612E-03 -6.538042E-04 -3.800427E-19  3.040407E-01  0.000000E+00
  9.248360E-01  9.536336E-03  5.000000E-01  9.341760E-01  9.557215E-03  0.000000E+00  8.037407E-03 -7.132623E-04  4.403356E-18  2.970893E-01  0.000000E+00
  9.325990E-01  8.825601E-03  5.000000E-01  9.420174E-01  8.839302E-03  0.000000E+00  8.207825E-03 -7.756629E-04 -2.006951E-18  2.900329E-01  0.000000E+00
  9.398210E-01  8.122236E-03  5.000000E-01  9.493124E-01  8.128834E-03  0.000000E+00  8.383178E-03 -8.419352E-04 -6.422566E-18  2.827816E-01  0.000000E+00
  9.465130E-01  7.430234E-03  5.000000E-01  9.560719E-01  7.429842E-03  0.000000E+00  8.569793E-03 -9.129032E-04 -8.062174E-18  2.752259E-01  0.000000E+00
  9.526870E-01  6.753704E-03  5.000000E-01  9.623083E-01  6.746480E-03  0.000000E+00  8.772649E-03 -9.892184E-04 -6.857139E-18  2.672192E-01  0.000000E+00
  9.583540E-01  6.097053E-03  5.000000E-01  9.680325E-01  6.083198E-03  0.000000E+00  8.995421E-03 -1.071333E-03 -5.490462E-18  2.586319E-01  0.000000E+00
  9.635240E-01  5.465046E-03  5.000000E-01  9.732547E-01  5.444808E-03  0.000000E+00  9.240981E-03 -1.159354E-03 -2.800617E-18  2.493420E-01  0.000000E+00
  9.682080E-01  4.862744E-03  5.000000E-01  9.779860E-01  4.836424E-03  0.000000E+00  9.513051E-03 -1.253546E-03  3.486598E-18  2.392956E-01  0.000000E+00
  9.724140E-01  4.295510E-03  5.000000E-01  9.822345E-01  4.263461E-03  0.000000E+00  9.818609E-03 -1.354435E-03  1.208585E-17  2.284866E-01  0.000000E+00
  9.761510E-01  3.768842E-03  5.000000E-01  9.860093E-01  3.731474E-03  0.000000E+00  1.016813E-02 -1.462467E-03  1.729317E-17  2.168831E-01  0.000000E+00
  9.794290E-01  3.288182E-03  5.000000E-01  9.893204E-01  3.245960E-03  0.000000E+00  1.056867E-02 -1.578149E-03  3.362009E-17  2.044953E-01  0.000000E+00
  9.822540E-01  2.858924E-03  5.000000E-01  9.921739E-01  2.812367E-03  0.000000E+00  1.100573E-02 -1.699625E-03  1.424778E-16  1.915735E-01  0.000000E+00
  9.846330E-01  2.486094E-03  5.000000E-01  9.945769E-01  2.435772E-03  0.000000E+00  1.142436E-02 -1.815730E-03  2.806664E-16  1.793669E-01  0.000000E+00
  9.865710E-01  2.174267E-03  5.000000E-01  9.965345E-01  2.120795E-03  0.000000E+00  1.169061E-02 -1.892307E-03 -1.539596E-16  1.667391E-01  0.000000E+00
  9.880740E-01  1.927377E-03  5.000000E-01  9.980527E-01  1.871412E-03  0.000000E+00  1.158634E-02 -1.921317E-03  1.291622E-15  1.474596E-01  0.000000E+00
  9.891450E-01  1.748637E-03  5.000000E-01  9.991345E-01  1.690867E-03  0.000000E+00  1.178684E-02 -2.059248E-03  1.844052E-14  1.484186E-01  0.000000E+00
  9.897860E-01  1.640433E-03  5.000000E-01  9.997820E-01  1.581570E-03  0.000000E+00  1.516994E-02 -2.086740E-03  7.876867E-14  1.958595E-01  0.000000E+00
  9.900000E-01  1.604200E-03  5.000000E-01  9.999981E-01  1.544971E-03  0.000000E+00  1.058515E-02 -4.472000E-03  1.412896E-13 -4.782275E-02  0.000000E+00
  9.900000E-01  1.682910E-03  5.000000E-01  9.999981E-01  1.624476E-03  0.000000E+00  1.059892E-03 -1.486147E-02  3.884037E-14 -1.856885E-01  0.000000E+00
  9.900000E-01  1.761630E-03  5.000000E-01  9.999981E-01  1.703992E-03  0.000000E+00 -5.271066E-04 -1.396561E-02 -9.337795E-14 -9.860157E-03  0.000000E+00
  9.900000E-01  1.840351E-03  5.000000E-01  9.999981E-01  1.783507E-03  0.000000E+00 -2.989380E-04  2.412735E-03 -1.388920E-13 -1.457078E-02  0.000000E+00
  9.900000E-01  1.919061E-03  5.000000E-01  9.999981E-01  1.863012E-03  0.000000E+00  7.099359E-04  3.833794E-03 -1.820165E-13 -1.322661E-01  0.000000E+00
  9.900000E-01  1.997781E-03  5.000000E-01  9.999981E-01  1.942527E-03  0.000000E+00  5.874494E-03 -2.628816E-03 -1.188114E-13 -3.874819E-02  0.000000E+00
  9.900000E-01  1.997781E-03  5.000000E-01  9.999981E-01  1.942527E-03  0.000000E+00  5.874494E-03 -2.628816E-03 -1.188114E-13 -3.874819E-02  0.000000E+00
  9.897900E-01  2.043582E-03  5.000000E-01  9.997860E-01  1.988791E-03  0.000000E+00  7.647276E-03 -1.997122E-03 -2.883557E-14  1.026271E-01  0.000000E+00
  9.891580E-01  2.180941E-03  5.000000E-01  9.991476E-01  2.127537E-03  0.000000E+00  4.736832E-03 -9.683851E-04 -6.489750E-15  6.053360E-02  0.000000E+00
  9.881040E-01  2.409676E-03  5.000000E-01  9.980830E-01  2.358582E-03  0.000000E+00  3.974672E-03 -8.598881E-04 -6.622813E-17  5.088950E-02  0.000000E+00
  9.866260E-01  2.729488E-03  5.000000E-01  9.965900E-01  2.681624E-03  0.000000E+00  3.786771E-03 -8.234400E-04  7.028614E-16  5.264574E-02  0.000000E+00
  9.847200E-01  3.139944E-03  5.000000E-01  9.946648E-01  3.096225E-03  0.000000E+00  3.710113E-03 -7.961369E-04  4.294297E-16  4.733111E-02  0.000000E+00
  9.823820E-01  3.640431E-03  5.000000E-01  9.923032E-01  3.601767E-03  0.000000E+00  3.767935E-03 -8.031299E-04  1.914620E-16  3.924232E-02  0.000000E+00
  9.796080E-01  4.230108E-03  5.000000E-01  9.895012E-01  4.197399E-03  0.000000E+00  3.937101E-03 -8.332048E-04  7.803486E-17  3.034921E-02  0.000000E+00
  9.763910E-01  4.907931E-03  5.000000E-01  9.862517E-01  4.882067E-03  0.000000E+00  4.175381E-03 -8.754229E-04  3.352585E-17  2.014039E-02  0.000000E+00
  9.727270E-01  5.672458E-03  5.000000E-01  9.825507E-01  5.654315E-03  0.000000E+00  4.454958E-03 -9.239081E-04  1.629549E-17  8.521321E-03  0.000000E+00
  9.686070E-01  6.522043E-03  5.000000E-01  9.783891E-01  6.512480E-03  0.000000E+00  4.759404E-03 -9.747121E-04  7.592457E-18 -4.266865E-03  0.000000E+00
  9.640240E-01  7.454579E-03  5.000000E-01  9.737598E-01  7.454434E-03  0.000000E+00  5.079776E-03 -1.025449E-03  2.736433E-18 -1.806655E-02  0.000000E+00
  9.589680E-01  8.467610E-03  5.000000E-01  9.686527E-01  8.477695E-03  0.000000E+00  5.412196E-03 -1.074930E-03  1.082327E-18 -3.273863E-02  0.000000E+00
  9.534310E-01  9.558193E-03  5.000000E-01  9.630598E-01  9.579292E-03  0.000000E+00  5.754850E-03 -1.122411E-03  3.134732E-19 -4.814207E-02  0.000000E+00
  9.474030E-01  1.072297E-02  5.000000E-01  9.569709E-01  1.075583E-02  0.000000E+00  6.105681E-03 -1.166898E-03 -6.403347E-19 -6.404567E-02  0.000000E+00
  9.408720E-01  1.195814E-02  5.000000E-01  9.503740E-01  1.200348E-02  0.000000E+00  6.461207E-03 -1.207438E-03 -1.850168E-18 -8.027159E-02  0.000000E+00
  9.338280E-01  1.325945E-02  5.000000E-01  9.432588E-01  1.331793E-02  0.000000E+00  6.816995E-03 -1.243079E-03 -2.539760E-18 -9.665343E-02  0.000000E+00
  9.262600E-01  1.462231E-02  5.000000E-01  9.356144E-01  1.469455E-02  0.000000E+00  7.167805E-03 -1.272576E-03 -4.147915E-19 -1.129463E-01  0.000000E+00
  9.181550E-01  1.604159E-02  5.000000E-01  9.274275E-01  1.612817E-02  0.000000E+00  7.507330E-03 -1.294799E-03  4.165791E-18 -1.289552E-01  0.000000E+00
  9.095020E-01  1.751202E-02  5.000000E-01  9.186872E-01  1.761345E-02  0.000000E+00  7.828488E-03 -1.308648E-03  5.726340E-18 -1.443704E-01  0.000000E+00
  9.002880E-01  1.902781E-02  5.000000E-01  9.093801E-01  1.914455E-02  0.000000E+00  8.122844E-03 -1.313182E-03 -1.837872E-18 -1.586689E-01  0.000000E+00
  8.905020E-01  2.058310E-02  5.000000E-01  8.994953E-01  2.071554E-02  0.000000E+00  8.380630E-03 -1.308978E-03 -1.374651E-17 -1.715227E-01  0.000000E+00
  8.801320E-01  2.217522E-02  5.000000E-01  8.890205E-01  2.232374E-02  0.000000E+00  8.593618E-03 -1.298456E-03 -9.148240E-18 -1.830054E-01  0.000000E+00
  8.691700E-01  2.380534E-02  5.000000E-01  8.779478E-01  2.397032E-02  0.000000E+00  8.758410E-03 -1.284217E-03  1.109910E-18 -1.933375E-01  0.000000E+00
  8.691700E-01  2.380534E-02  5.000000E-01  8.779478E-01  2.397032E-02  0.000000E+00  8.758410E-03 -1.284217E-03  1.109910E-18 -1.933375E-01  0.000000E+00
  8.576080E-01  2.547697E-02  5.000000E-01  8.662691E-01  2.565883E-02  0.000000E+00  8.877187E-03 -1.268601E-03 -8.226238E-21 -2.026584E-01  0.000000E+00
  8.454380E-01  2.719608E-02  5.000000E-01  8.539762E-01  2.739531E-02  0.000000E+00  8.956939E-03 -1.254795E-03 -1.321450E-18 -2.111734E-01  0.000000E+00
  8.326580E-01  2.897196E-02  5.000000E-01  8.410671E-01  2.918912E-02  0.000000E+00  9.009766E-03 -1.246648E-03 -5.427834E-19 -2.194146E-01  0.000000E+00
  8.192630E-01  3.081776E-02  5.000000E-01  8.275368E-01  3.105356E-02  0.000000E+00  9.053874E-03 -1.248614E-03  1.108190E-18 -2.287212E-01  0.000000E+00
  8.052550E-01  3.275075E-02  5.000000E-01  8.133874E-01  3.300608E-02  0.000000E+00  9.114803E-03 -1.264091E-03  1.713395E-18 -2.410936E-01  0.000000E+00
  7.906370E-01  3.478738E-02  5.000000E-01  7.986217E-01  3.506327E-02  0.000000E+00  9.223190E-03 -1.291313E-03 -2.596991E-19 -2.576855E-01  0.000000E+00
  7.754120E-01  3.692907E-02  5.000000E-01  7.832430E-01  3.722659E-02  0.000000E+00  9.404412E-03 -1.323695E-03 -2.793573E-18 -2.781233E-01  0.000000E+00
  7.595880E-01  3.915759E-02  5.000000E-01  7.672592E-01  3.947762E-02  0.000000E+00  9.667452E-03 -1.355483E-03 -4.626095E-18 -3.017765E-01  0.000000E+00
  7.431760E-01  4.144846E-02  5.000000E-01  7.506814E-01  4.179163E-02  0.000000E+00  1.000460E-02 -1.382676E-03 -5.754596E-18 -3.280640E-01  0.000000E+00
  7.261880E-01  4.377327E-02  5.000000E-01  7.335218E-01  4.413991E-02  0.000000E+00  1.039672E-02 -1.400518E-03 -4.032097E-18 -3.556778E-01  0.000000E+00
  7.086430E-01  4.610073E-02  5.000000E-01  7.157997E-01  4.649088E-02  0.000000E+00  1.081717E-02 -1.404498E-03  2.098251E-19 -3.826250E-01  0.000000E+00
  6.905640E-01  4.840007E-02  5.000000E-01  6.975381E-01  4.881343E-02  0.000000E+00  1.123675E-02 -1.393873E-03  4.360006E-18 -4.074103E-01  0.000000E+00
  6.719770E-01  5.065000E-02  5.000000E-01  6.787634E-01  5.108609E-02  0.000000E+00  1.163224E-02 -1.375045E-03  8.128220E-18 -4.307984E-01  0.000000E+00
  6.529150E-01  5.285043E-02  5.000000E-01  6.595089E-01  5.330874E-02  0.000000E+00  1.199973E-02 -1.355232E-03  1.119007E-17 -4.548424E-01  0.000000E+00
  6.334180E-01  5.500484E-02  5.000000E-01  6.398150E-01  5.548491E-02  0.000000E+00  1.235704E-02 -1.333406E-03  1.364052E-17 -4.805786E-01  0.000000E+00
  6.135280E-01  5.710067E-02  5.000000E-01  6.197241E-01  5.760191E-02  0.000000E+00  1.272753E-02 -1.305194E-03  1.483981E-17 -5.085248E-01  0.000000E+00
  5.932910E-01  5.911964E-02  5.000000E-01  5.992827E-01  5.964126E-02  0.000000E+00  1.312772E-02 -1.266990E-03  1.458015E-17 -5.385889E-01  0.000000E+00
  5.727570E-01  6.103631E-02  5.000000E-01  5.785413E-01  6.157729E-02  0.000000E+00  1.356285E-02 -1.213317E-03  1.035043E-17 -5.687247E-01  0.000000E+00
  5.519810E-01  6.281807E-02  5.000000E-01  5.575555E-01  6.337705E-02  0.000000E+00  1.402214E-02 -1.139397E-03 -1.166352E-18 -5.961304E-01  0.000000E+00
  5.310180E-01  6.443130E-02  5.000000E-01  5.363808E-01  6.500657E-02  0.000000E+00  1.447967E-02 -1.051212E-03 -1.689138E-17 -6.212043E-01  0.000000E+00
  5.099250E-01  6.587243E-02  5.000000E-01  5.150748E-01  6.646226E-02  0.000000E+00  1.491657E-02 -9.614233E-04 -2.620012E-17 -6.475187E-01  0.000000E+00
  4.887640E-01  6.715535E-02  5.000000E-01  4.937001E-01  6.775813E-02  0.000000E+00  1.534486E-02 -8.671743E-04 -1.386788E-17 -6.760098E-01  0.000000E+00
  4.675910E-01  6.826760E-02  5.000000E-01  4.723133E-01  6.888161E-02  0.000000E+00  1.578905E-02 -7.534568E-04 -1.558914E-17 -7.041304E-01  0.000000E+00
  7.860720E-05 -4.429472E-04  5.000000E-01  7.940615E-05 -5.228503E-04  0.000000E+00 -1.120802E-02  3.621823E-02 -8.008250E-13  7.932612E-01  0.000000E+00
  3.989240E-04 -1.047662E-03  5.000000E-01  4.029579E-04 -1.133672E-03  0.000000E+00 -1.020702E-02  1.600339E-02  2.834206E-13  1.080946E+00  0.000000E+00
  1.196920E-03 -1.780413E-03  5.000000E-01  1.209013E-03 -1.873823E-03  0.000000E+00 -2.679256E-03  2.805901E-03  5.826902E-13  1.079429E+00  0.000000E+00
  2.563580E-03 -2.548878E-03  5.000000E-01  2.589475E-03 -2.650049E-03  0.000000E+00  4.651567E-03 -2.018954E-03  2.667671E-13  9.356315E-01  0.000000E+00
  4.492740E-03 -3.312172E-03  5.000000E-01  4.538118E-03 -3.421051E-03  0.000000E+00  8.998878E-03 -3.106288E-03  2.126859E-14  8.112494E-01  0.000000E+00
  6.952190E-03 -4.066991E-03  5.000000E-01  7.022406E-03 -4.183494E-03  0.000000E+00  1.118197E-02 -3.150824E-03 -4.611504E-14  7.248620E-01  0.000000E+00
  9.910730E-03 -4.834993E-03  5.000000E-01  1.001082E-02 -4.959252E-03  0.000000E+00  1.231282E-02 -3.035675E-03 -3.845626E-14  6.567791E-01  0.000000E+00
  1.334950E-02 -5.641598E-03  5.000000E-01  1.348432E-02 -5.774003E-03  0.000000E+00  1.298124E-02 -2.873864E-03 -2.187364E-14  5.899224E-01  0.000000E+00
  1.728780E-02 -6.465403E-03  5.000000E-01  1.746240E-02 -6.606128E-03  0.000000E+00  1.337976E-02 -2.581415E-03 -1.132700E-14  5.177323E-01  0.000000E+00
  2.175590E-02 -7.256508E-03  5.000000E-01  2.197562E-02 -7.405222E-03  0.000000E+00  1.356226E-02 -2.176030E-03 -5.465088E-15  4.504957E-01  0.000000E+00
  2.676920E-02 -7.976716E-03  5.000000E-01  2.703955E-02 -8.132703E-03  0.000000E+00  1.359617E-02 -1.757897E-03 -2.122967E-15  3.996603E-01  0.000000E+00
  3.232800E-02 -8.614317E-03  5.000000E-01  3.265449E-02 -8.776743E-03  0.000000E+00  1.355403E-02 -1.400615E-03 -3.267671E-16  3.661560E-01  0.000000E+00
  3.842930E-02 -9.175204E-03  5.000000E-01  3.881741E-02 -9.343295E-03  0.000000E+00  1.347887E-02 -1.125320E-03  4.181867E-16  3.438138E-01  0.000000E+00
  4.507220E-02 -9.673610E-03  5.000000E-01  4.552739E-02 -9.846735E-03  0.000000E+00  1.340296E-02 -9.388335E-04  5.306835E-16  3.280034E-01  0.000000E+00
  5.225680E-02 -1.014038E-02  5.000000E-01  5.278455E-02 -1.031821E-02  0.000000E+00  1.336257E-02 -8.388804E-04  3.743156E-16  3.161020E-01  0.000000E+00
  5.998640E-02 -1.060904E-02  5.000000E-01  6.059221E-02 -1.079161E-02  0.000000E+00  1.336530E-02 -7.877102E-04  1.882157E-16  3.028407E-01  0.000000E+00
  6.827110E-02 -1.108435E-02  5.000000E-01  6.896058E-02 -1.127172E-02  0.000000E+00  1.338638E-02 -7.433326E-04  6.902289E-17  2.853087E-01  0.000000E+00
  7.712280E-02 -1.155953E-02  5.000000E-01  7.790168E-02 -1.175170E-02  0.000000E+00  1.340372E-02 -6.949173E-04  1.362158E-17  2.663207E-01  0.000000E+00
  8.655260E-02 -1.203050E-02  5.000000E-01  8.742671E-02 -1.222742E-02  0.000000E+00  1.340470E-02 -6.417311E-04 -9.516743E-18  2.483624E-01  0.000000E+00
  9.657140E-02 -1.248951E-02  5.000000E-01  9.754669E-02 -1.269107E-02  0.000000E+00  1.337418E-02 -5.745689E-04 -1.822450E-17  2.309914E-01  0.000000E+00
  1.071900E-01 -1.291572E-02  5.000000E-01  1.082725E-01 -1.312159E-02  0.000000E+00  1.330449E-02 -4.915643E-04 -2.032059E-17  2.144936E-01  0.000000E+00
  1.184180E-01 -1.329405E-02  5.000000E-01  1.196139E-01 -1.350374E-02  0.000000E+00  1.321185E-02 -4.092976E-04 -1.347803E-17  2.010998E-01  0.000000E+00
  1.302610E-01 -1.362799E-02  5.000000E-01  1.315765E-01 -1.384105E-02  0.000000E+00  1.312353E-02 -3.435874E-04  2.692648E-17  1.911156E-01  0.000000E+00
  1.427230E-01 -1.392887E-02  5.000000E-01  1.441644E-01 -1.414497E-02  0.000000E+00  1.305632E-02 -2.984803E-04  1.573799E-17  1.826617E-01  0.000000E+00
  1.427230E-01 -1.392887E-02  5.000000E-01  1.441644E-01 -1.414497E-02  0.000000E+00  1.305632E-02 -2.984803E-04  1.573799E-17  1.826617E-01  0.000000E+00
  1.558070E-01 -1.421139E-02  5.000000E-01  1.573805E-01 -1.443034E-02  0.000000E+00  1.300549E-02 -2.653486E-04  1.216272E-17  1.735057E-01  0.000000E+00
  1.695140E-01 -1.447530E-02  5.000000E-01  1.712259E-01 -1.469692E-02  0.000000E+00  1.294800E-02 -2.278198E-04  5.145572E-17  1.624404E-01  0.000000E+00
  1.838420E-01 -1.470379E-02  5.000000E-01  1.856986E-01 -1.492771E-02  0.000000E+00  1.286026E-02 -1.742209E-04  4.855345E-17  1.504657E-01  0.000000E+00
  1.987870E-01 -1.487017E-02  5.000000E-01  2.007946E-01 -1.509578E-02  0.000000E+00  1.273382E-02 -1.024370E-04  5.180840E-17  1.394620E-01  0.000000E+00
  2.143420E-01 -1.494653E-02  5.000000E-01  2.165067E-01 -1.517291E-02  0.000000E+00  1.258525E-02 -2.585200E-05  5.639998E-17  1.314827E-01  0.000000E+00
  2.304940E-01 -1.493199E-02  5.000000E-01  2.328218E-01 -1.515822E-02  0.000000E+00  1.245197E-02  3.084003E-05  4.912276E-17  1.279032E-01  0.000000E+00
  2.472290E-01 -1.486302E-02  5.000000E-01  2.497258E-01 -1.508855E-02  0.000000E+00  1.236456E-02  5.667942E-05  3.372597E-17  1.268025E-01  0.000000E+00
  2.645310E-01 -1.477640E-02  5.000000E-01  2.672025E-01 -1.500106E-02  0.000000E+00  1.232147E-02  6.811115E-05  1.948873E-17  1.235956E-01  0.000000E+00
  2.823750E-01 -1.467009E-02  5.000000E-01  2.852267E-01 -1.489367E-02  0.000000E+00  1.229553E-02  9.095900E-05  5.535493E-18  1.158733E-01  0.000000E+00
  3.007320E-01 -1.450835E-02  5.000000E-01  3.037691E-01 -1.473030E-02  0.000000E+00  1.225950E-02  1.360398E-04 -1.416776E-17  1.058873E-01  0.000000E+00
  3.195690E-01 -1.425546E-02  5.000000E-01  3.227964E-01 -1.447485E-02  0.000000E+00  1.219806E-02  1.979533E-04 -3.642570E-17  9.729629E-02  0.000000E+00
  3.388440E-01 -1.388752E-02  5.000000E-01  3.422660E-01 -1.410320E-02  0.000000E+00  1.210296E-02  2.663030E-04 -4.856166E-17  9.189988E-02  0.000000E+00
  3.585140E-01 -1.339661E-02  5.000000E-01  3.621347E-01 -1.360734E-02  0.000000E+00  1.196428E-02  3.344854E-04 -4.494425E-17  8.936790E-02  0.000000E+00
  3.785290E-01 -1.277668E-02  5.000000E-01  3.823518E-01 -1.298114E-02  0.000000E+00  1.176812E-02  4.013779E-04 -3.279570E-17  8.869198E-02  0.000000E+00
  3.988350E-01 -1.201935E-02  5.000000E-01  4.028629E-01 -1.221617E-02  0.000000E+00  1.150620E-02  4.667066E-04 -1.862144E-17  9.004664E-02  0.000000E+00
  4.193750E-01 -1.111749E-02  5.000000E-01  4.236103E-01 -1.130520E-02  0.000000E+00  1.118503E-02  5.334688E-04 -5.890665E-18  9.383423E-02  0.000000E+00
  4.400850E-01 -1.004939E-02  5.000000E-01  4.445295E-01 -1.022631E-02  0.000000E+00  1.083547E-02  6.003089E-04  2.142550E-18  1.005638E-01  0.000000E+00
  4.609060E-01 -8.813021E-03  5.000000E-01  4.655607E-01 -8.977454E-03  0.000000E+00  1.051728E-02  6.464321E-04  6.182537E-18  1.119575E-01  0.000000E+00
  4.818030E-01 -7.481051E-03  5.000000E-01  4.866688E-01 -7.632032E-03  0.000000E+00  1.029462E-02  6.431024E-04  6.610233E-18  1.285177E-01  0.000000E+00
  5.027520E-01 -6.197825E-03  5.000000E-01  5.078293E-01 -6.335848E-03  0.000000E+00  1.018071E-02  5.953935E-04  7.538114E-18  1.444897E-01  0.000000E+00
  5.237130E-01 -5.034516E-03  5.000000E-01  5.290020E-01 -5.160790E-03  0.000000E+00  1.010993E-02  5.549744E-04  2.036043E-17  1.506826E-01  0.000000E+00
  5.446170E-01 -3.905570E-03  5.000000E-01  5.501171E-01 -4.020443E-03  0.000000E+00  9.987626E-03  5.661978E-04  2.703020E-17  1.464461E-01  0.000000E+00
  5.653940E-01 -2.669653E-03  5.000000E-01  5.711040E-01 -2.772044E-03  0.000000E+00  9.768904E-03  6.152712E-04  2.312880E-17  1.433907E-01  0.000000E+00
  4.675910E-01  6.826760E-02  5.000000E-01  4.723133E-01  6.888161E-02  0.000000E+00  1.578905E-02 -7.534568E-04 -1.558914E-17 -7.041304E-01  0.000000E+00
  4.464640E-01  6.917759E-02  5.000000E-01  4.509729E-01  6.980079E-02  0.000000E+00  1.625320E-02 -6.177883E-04 -2.613922E-17 -7.306935E-01  0.000000E+00
  4.254410E-01  6.987316E-02  5.000000E-01  4.297376E-01  7.050338E-02  0.000000E+00  1.672625E-02 -4.668309E-04 -1.960198E-17 -7.563293E-01  0.000000E+00
  4.045840E-01  7.035002E-02  5.000000E-01  4.086699E-01  7.098506E-02  0.000000E+00  1.719933E-02 -3.027891E-04 -1.501232E-17 -7.815277E-01  0.000000E+00
  3.839530E-01  7.060730E-02  5.000000E-01  3.878306E-01  7.124494E-02  0.000000E+00  1.766963E-02 -1.232401E-04 -6.674157E-18 -8.061019E-01  0.000000E+00
  3.636060E-01  7.064022E-02  5.000000E-01  3.672781E-01  7.127820E-02  0.000000E+00  1.813736E-02  7.541385E-05  6.124048E-18 -8.290600E-01  0.000000E+00
  3.435960E-01  7.044471E-02  5.000000E-01  3.470660E-01  7.108071E-02  0.000000E+00  1.859947E-02  2.943873E-04  1.788158E-17 -8.494011E-01  0.000000E+00
  3.239710E-01  7.001834E-02  5.000000E-01  3.272428E-01  7.065004E-02  0.000000E+00  1.904712E-02  5.291483E-04  1.984555E-17 -8.674710E-01  0.000000E+00
  3.047740E-01  6.937088E-02  5.000000E-01  3.078519E-01  6.999603E-02  0.000000E+00  1.947432E-02  7.726619E-04  7.708008E-18 -8.846908E-01  0.000000E+00
  2.860450E-01  6.851845E-02  5.000000E-01  2.889338E-01  6.913499E-02  0.000000E+00  1.988980E-02  1.028911E-03 -1.342100E-17 -9.008922E-01  0.000000E+00
  2.678190E-01  6.746492E-02  5.000000E-01  2.705237E-01  6.807082E-02  0.000000E+00  2.030395E-02  1.305206E-03 -3.460048E-17 -9.151449E-01  0.000000E+00
  2.501300E-01  6.621556E-02  5.000000E-01  2.526561E-01  6.680885E-02  0.000000E+00  2.071604E-02  1.600462E-03 -4.919403E-17 -9.278550E-01  0.000000E+00
  2.330040E-01  6.478084E-02  5.000000E-01  2.353571E-01  6.535964E-02  0.000000E+00  2.112224E-02  1.911934E-03 -5.592956E-17 -9.399357E-01  0.000000E+00
  2.164660E-01  6.317370E-02  5.000000E-01  2.186521E-01  6.373627E-02  0.000000E+00  2.152402E-02  2.239913E-03 -6.049293E-17 -9.512824E-01  0.000000E+00
  2.005340E-01  6.140811E-02  5.000000E-01  2.025592E-01  6.195284E-02  0.000000E+00  2.193153E-02  2.594981E-03 -6.741488E-17 -9.589583E-01  0.000000E+00
  1.852230E-01  5.948504E-02  5.000000E-01  1.870936E-01  6.001035E-02  0.000000E+00  2.234361E-02  2.982395E-03 -7.521647E-17 -9.605494E-01  0.000000E+00
  1.705440E-01  5.741294E-02  5.000000E-01  1.722663E-01  5.791733E-02  0.000000E+00  2.273950E-02  3.384950E-03 -8.635664E-17 -9.595559E-01  0.000000E+00
  1.565000E-01  5.521511E-02  5.000000E-01  1.580805E-01  5.569730E-02  0.000000E+00  2.311442E-02  3.787442E-03 -1.125430E-16 -9.634975E-01  0.000000E+00
  1.430940E-01  5.291898E-02  5.000000E-01  1.445391E-01  5.337799E-02  0.000000E+00  2.350957E-02  4.213035E-03 -1.497735E-16 -9.754530E-01  0.000000E+00
  1.303270E-01  5.053067E-02  5.000000E-01  1.316432E-01  5.096555E-02  0.000000E+00  2.398468E-02  4.730089E-03 -1.608636E-16 -9.864642E-01  0.000000E+00
  1.182110E-01  4.802209E-02  5.000000E-01  1.194048E-01  4.843164E-02  0.000000E+00  2.452451E-02  5.375375E-03 -1.147318E-16 -9.820127E-01  0.000000E+00
  1.067560E-01  4.537821E-02  5.000000E-01  1.078341E-01  4.576106E-02  0.000000E+00  2.500283E-02  6.104516E-03 -6.048127E-17 -9.533236E-01  0.000000E+00
  9.596750E-02  4.260403E-02  5.000000E-01  9.693669E-02  4.295886E-02  0.000000E+00  2.524503E-02  6.779789E-03  3.034096E-17 -9.083879E-01  0.000000E+00
  8.582800E-02  3.976342E-02  5.000000E-01  8.669479E-02  4.008957E-02  0.000000E+00  2.518468E-02  7.278819E-03  8.721755E-17 -8.654944E-01  0.000000E+00
  8.582800E-02  3.976342E-02  5.000000E-01  8.669479E-02  4.008957E-02  0.000000E+00  2.518468E-02  7.278819E-03  8.721755E-17 -8.654944E-01  0.000000E+00
  7.631050E-02  3.692618E-02  5.000000E-01  7.708117E-02  3.722368E-02  0.000000E+00  2.495157E-02  7.671594E-03  1.475086E-16 -8.286202E-01  0.000000E+00
  6.740780E-02  3.410545E-02  5.000000E-01  6.808856E-02  3.437445E-02  0.000000E+00  2.470517E-02  8.088686E-03  2.201754E-16 -7.909851E-01  0.000000E+00
  5.911740E-02  3.130321E-02  5.000000E-01  5.971444E-02  3.154391E-02  0.000000E+00  2.449757E-02  8.553325E-03  2.238212E-16 -7.498346E-01  0.000000E+00
  5.143150E-02  2.853368E-02  5.000000E-01  5.195092E-02  2.874642E-02  0.000000E+00  2.430866E-02  9.034019E-03  2.551360E-16 -7.058837E-01  0.000000E+00
  4.433770E-02  2.581678E-02  5.000000E-01  4.478548E-02  2.600207E-02  0.000000E+00  2.410237E-02  9.507058E-03  2.984333E-16 -6.616719E-01  0.000000E+00
  3.782240E-02  2.317154E-02  5.000000E-01  3.820438E-02  2.333012E-02  0.000000E+00  2.385963E-02  9.974764E-03  4.140441E-16 -6.209702E-01  0.000000E+00
  3.187460E-02  2.061163E-02  5.000000E-01  3.219651E-02  2.074436E-02  0.000000E+00  2.359283E-02  1.046290E-02  8.790984E-16 -5.867379E-01  0.000000E+00
  2.648400E-02  1.814877E-02  5.000000E-01  2.675147E-02  1.825662E-02  0.000000E+00  2.333535E-02  1.103815E-02  2.158091E-15 -5.529621E-01  0.000000E+00
  2.164990E-02  1.578451E-02  5.000000E-01  2.186855E-02  1.586849E-02  0.000000E+00  2.305881E-02  1.175423E-02  4.437028E-15 -5.027592E-01  0.000000E+00
  1.737670E-02  1.351896E-02  5.000000E-01  1.755219E-02  1.358006E-02  0.000000E+00  2.260687E-02  1.246972E-02  7.087689E-15 -4.302548E-01  0.000000E+00
  1.364080E-02  1.137655E-02  5.000000E-01  1.377856E-02  1.141601E-02  0.000000E+00  2.183798E-02  1.290467E-02  9.334125E-15 -3.545799E-01  0.000000E+00
  1.039090E-02  9.395353E-03  5.000000E-01  1.049584E-02  9.414808E-03  0.000000E+00  2.082179E-02  1.300978E-02  1.293429E-14 -3.002607E-01  0.000000E+00
  7.586340E-03  7.597192E-03  5.000000E-01  7.662960E-03  7.598487E-03  0.000000E+00  1.981915E-02  1.314677E-02  2.790977E-14 -2.724351E-01  0.000000E+00
  5.226210E-03  5.976938E-03  5.000000E-01  5.278995E-03  5.961870E-03  0.000000E+00  1.913532E-02  1.386078E-02  7.715721E-14 -2.623229E-01  0.000000E+00
  3.324300E-03  4.524769E-03  5.000000E-01  3.357878E-03  4.495035E-03  0.000000E+00  1.904898E-02  1.574923E-02  1.567588E-13 -2.616113E-01  0.000000E+00
  1.883580E-03  3.242919E-03  5.000000E-01  1.902608E-03  3.200240E-03  0.000000E+00  1.958960E-02  1.966181E-02  6.074304E-14 -2.466211E-01  0.000000E+00
  8.951490E-04  2.143988E-03  5.000000E-01  9.041943E-04  2.090210E-03  0.000000E+00  1.976165E-02  2.632285E-02 -8.153529E-13 -1.665190E-01  0.000000E+00
  3.201820E-04  1.252592E-03  5.000000E-01  3.234206E-04  1.189813E-03  0.000000E+00  1.719249E-02  3.449690E-02 -3.082271E-12  1.937348E-02  0.000000E+00
  6.852390E-05  5.988737E-04  5.000000E-01  6.922101E-05  5.294921E-04  0.000000E+00  1.088927E-02  3.989486E-02 -6.603817E-12  2.439344E-01  0.000000E+00
  4.217600E-06  2.052407E-04  5.000000E-01  4.265277E-06  1.318837E-04  0.000000E+00  4.098651E-03  4.142107E-02 -1.044804E-11  3.230461E-01  0.000000E+00
 -5.032520E-09  7.467559E-05  5.000000E-01  0.000000E+00  0.000000E+00  0.000000E+00 -6.893794E-04  4.739713E-02 -1.086816E-11  2.795229E-01  0.000000E+00
  5.154440E-06 -5.626070E-05  5.000000E-01  5.211579E-06 -1.322586E-04  0.000000E+00 -5.888036E-03  5.010830E-02 -5.443081E-12  4.164713E-01  0.000000E+00