 Title = "ADflow Slice Data"
Variables =  "CoordinateX"  "CoordinateY"  "CoordinateZ"  "XoC"  "YoC"  "ZoC" "VelocityX" "VelocityY" "VelocityZ" "CoefPressure" "Mach" 
Zone T= "Slice_0001 None Absolute Regular z = 0.50000000"
 Nodes =          192  Elements=          184  ZONETYPE=FELINESEG
 DATAPACKING=POINT
  5.653940E-01  2.758730E-03  5.000000E-01  5.711039E-01  2.784106E-03  0.000000E+00  7.409318E-03  6.631857E-04  2.722938E-19  2.772810E-01  0.000000E+00
  5.859770E-01  4.523250E-03  5.000000E-01  5.918948E-01  4.566446E-03  0.000000E+00  7.394082E-03  6.170898E-04  2.203337E-18  2.802770E-01  0.000000E+00
  6.063060E-01  6.173920E-03  5.000000E-01  6.124291E-01  6.233786E-03  0.000000E+00  7.345451E-03  5.841101E-04  9.064205E-19  2.850448E-01  0.000000E+00
  6.263240E-01  7.732830E-03  5.000000E-01  6.326492E-01  7.808439E-03  0.000000E+00  7.261052E-03  5.500362E-04 -8.848532E-19  2.925320E-01  0.000000E+00
  6.459860E-01  9.180550E-03  5.000000E-01  6.525098E-01  9.270780E-03  0.000000E+00  7.152132E-03  5.077795E-04 -1.012651E-18  3.020034E-01  0.000000E+00
  6.652460E-01  1.049570E-02  5.000000E-01  6.719643E-01  1.059921E-02  0.000000E+00  7.031656E-03  4.584892E-04 -7.711149E-19  3.115919E-01  0.000000E+00
  6.840650E-01  1.166320E-02  5.000000E-01  6.909734E-01  1.177850E-02  0.000000E+00  6.911709E-03  4.042830E-04 -3.761217E-19  3.204557E-01  0.000000E+00
  7.024070E-01  1.266990E-02  5.000000E-01  7.095006E-01  1.279537E-02  0.000000E+00  6.804202E-03  3.457454E-04 -3.911207E-19  3.286111E-01  0.000000E+00
  7.202400E-01  1.350260E-02  5.000000E-01  7.275137E-01  1.363648E-02  0.000000E+00  6.720987E-03  2.824955E-04 -1.361953E-19  3.360491E-01  0.000000E+00
  7.375350E-01  1.414810E-02  5.000000E-01  7.449834E-01  1.428850E-02  0.000000E+00  6.672928E-03  2.145096E-04 -1.022127E-19  3.423592E-01  0.000000E+00
  7.542690E-01  1.459890E-02  5.000000E-01  7.618864E-01  1.474385E-02  0.000000E+00  6.669354E-03  1.420289E-04 -1.410165E-19  3.470302E-01  0.000000E+00
  7.704220E-01  1.485190E-02  5.000000E-01  7.782025E-01  1.499940E-02  0.000000E+00  6.717782E-03  6.462050E-05  6.015635E-20  3.497304E-01  0.000000E+00
  7.859770E-01  1.490850E-02  5.000000E-01  7.939146E-01  1.505658E-02  0.000000E+00  6.822671E-03 -1.888158E-05  4.655802E-19  3.502671E-01  0.000000E+00
  8.009220E-01  1.477350E-02  5.000000E-01  8.090105E-01  1.492021E-02  0.000000E+00  6.983294E-03 -1.085819E-04  3.632123E-19  3.485345E-01  0.000000E+00
  8.152480E-01  1.445960E-02  5.000000E-01  8.234812E-01  1.460314E-02  0.000000E+00  7.189675E-03 -1.989633E-04 -4.682751E-21  3.439019E-01  0.000000E+00
  8.289490E-01  1.400320E-02  5.000000E-01  8.373206E-01  1.414213E-02  0.000000E+00  7.423051E-03 -2.819950E-04  1.832112E-20  3.362097E-01  0.000000E+00
  8.420260E-01  1.344720E-02  5.000000E-01  8.505296E-01  1.358052E-02  0.000000E+00  7.663008E-03 -3.541882E-04  9.316142E-20  3.268174E-01  0.000000E+00
  8.544790E-01  1.282720E-02  5.000000E-01  8.631084E-01  1.295426E-02  0.000000E+00  7.891475E-03 -4.149770E-04  1.672354E-20  3.170818E-01  0.000000E+00
  8.663160E-01  1.217260E-02  5.000000E-01  8.750649E-01  1.229305E-02  0.000000E+00  8.092926E-03 -4.639561E-04 -4.717923E-20  3.076312E-01  0.000000E+00
  8.775420E-01  1.150680E-02  5.000000E-01  8.864043E-01  1.162052E-02  0.000000E+00  8.255409E-03 -5.006374E-04 -8.515645E-20  2.988552E-01  0.000000E+00
  8.881660E-01  1.084850E-02  5.000000E-01  8.971356E-01  1.095557E-02  0.000000E+00  8.372550E-03 -5.251158E-04 -9.452806E-20  2.910394E-01  0.000000E+00
  8.981970E-01  1.021180E-02  5.000000E-01  9.072679E-01  1.031244E-02  0.000000E+00  8.446881E-03 -5.417930E-04  6.546005E-20  2.846487E-01  0.000000E+00
  9.076460E-01  9.599810E-03  5.000000E-01  9.168123E-01  9.694274E-03  0.000000E+00  8.492622E-03 -5.607365E-04  1.284188E-19  2.803450E-01  0.000000E+00
  9.165220E-01  9.002900E-03  5.000000E-01  9.257780E-01  9.091336E-03  0.000000E+00  8.530030E-03 -5.893772E-04  1.992196E-19  2.776524E-01  0.000000E+00
  9.165220E-01  9.002900E-03  5.000000E-01  9.257780E-01  9.091336E-03  0.000000E+00  8.530030E-03 -5.893772E-04  1.992196E-19  2.776524E-01  0.000000E+00
  9.248360E-01  8.412960E-03  5.000000E-01  9.341759E-01  8.495438E-03  0.000000E+00  8.575680E-03 -6.283239E-04  1.580488E-19  2.751298E-01  0.000000E+00
  9.325990E-01  7.826160E-03  5.000000E-01  9.420173E-01  7.902712E-03  0.000000E+00  8.640092E-03 -6.763516E-04  3.017038E-20  2.720029E-01  0.000000E+00
  9.398210E-01  7.241520E-03  5.000000E-01  9.493123E-01  7.312168E-03  0.000000E+00  8.729892E-03 -7.325301E-04  2.589757E-19  2.681293E-01  0.000000E+00
  9.465130E-01  6.660420E-03  5.000000E-01  9.560718E-01  6.725199E-03  0.000000E+00  8.848994E-03 -7.960331E-04  4.393080E-19  2.634299E-01  0.000000E+00
  9.526870E-01  6.086010E-03  5.000000E-01  9.623082E-01  6.144988E-03  0.000000E+00  8.998927E-03 -8.661197E-04  7.384122E-20  2.578069E-01  0.000000E+00
  9.583540E-01  5.522700E-03  5.000000E-01  9.680324E-01  5.575989E-03  0.000000E+00  9.179494E-03 -9.420793E-04 -2.050155E-19  2.512105E-01  0.000000E+00
  9.635240E-01  4.975750E-03  5.000000E-01  9.732546E-01  5.023516E-03  0.000000E+00  9.389738E-03 -1.023064E-03 -3.159166E-19  2.436125E-01  0.000000E+00
  9.682080E-01  4.450920E-03  5.000000E-01  9.779859E-01  4.493385E-03  0.000000E+00  9.629892E-03 -1.108587E-03 -2.546714E-19  2.350623E-01  0.000000E+00
  9.724140E-01  3.954140E-03  5.000000E-01  9.822344E-01  3.991588E-03  0.000000E+00  9.903810E-03 -1.198544E-03 -2.132248E-19  2.256488E-01  0.000000E+00
  9.761510E-01  3.491330E-03  5.000000E-01  9.860091E-01  3.524104E-03  0.000000E+00  1.021895E-02 -1.292786E-03 -3.595932E-19  2.154149E-01  0.000000E+00
  9.794290E-01  3.068150E-03  5.000000E-01  9.893203E-01  3.096651E-03  0.000000E+00  1.057936E-02 -1.391402E-03 -2.848552E-19  2.044457E-01  0.000000E+00
  9.822540E-01  2.689890E-03  5.000000E-01  9.921738E-01  2.714571E-03  0.000000E+00  1.096768E-02 -1.492600E-03 -4.517867E-20  1.930393E-01  0.000000E+00
  9.846330E-01  2.361320E-03  5.000000E-01  9.945768E-01  2.382683E-03  0.000000E+00  1.132727E-02 -1.586413E-03  9.891008E-19  1.824571E-01  0.000000E+00
  9.865710E-01  2.086600E-03  5.000000E-01  9.965344E-01  2.105188E-03  0.000000E+00  1.152650E-02 -1.642278E-03  2.171193E-18  1.716442E-01  0.000000E+00
  9.880740E-01  1.869230E-03  5.000000E-01  9.980526E-01  1.885623E-03  0.000000E+00  1.135399E-02 -1.657267E-03 -2.229023E-18  1.543809E-01  0.000000E+00
  9.891450E-01  1.711960E-03  5.000000E-01  9.991344E-01  1.726765E-03  0.000000E+00  1.146820E-02 -1.772318E-03 -2.526205E-17  1.566488E-01  0.000000E+00
  9.897860E-01  1.616790E-03  5.000000E-01  9.997818E-01  1.630634E-03  0.000000E+00  1.467357E-02 -1.720445E-03 -7.267041E-17  2.046367E-01  0.000000E+00
  9.900000E-01  1.584940E-03  5.000000E-01  9.999980E-01  1.598462E-03  0.000000E+00  1.022419E-02 -4.217114E-03 -7.712682E-17 -2.860670E-02  0.000000E+00
  9.900000E-01  1.663650E-03  5.000000E-01  9.999980E-01  1.677967E-03  0.000000E+00  1.019367E-03 -1.462786E-02  5.383554E-18 -1.597497E-01  0.000000E+00
  9.900000E-01  1.742370E-03  5.000000E-01  9.999980E-01  1.757482E-03  0.000000E+00 -5.135383E-04 -1.401069E-02  8.606855E-17  1.125239E-02  0.000000E+00
  9.900000E-01  1.821090E-03  5.000000E-01  9.999980E-01  1.836997E-03  0.000000E+00 -2.788867E-04  1.577283E-03  1.042870E-16  6.845433E-03  0.000000E+00
  9.900000E-01  1.899800E-03  5.000000E-01  9.999980E-01  1.916502E-03  0.000000E+00  6.700705E-04  3.191798E-03  1.306695E-16 -1.032890E-01  0.000000E+00
  9.900000E-01  1.978520E-03  5.000000E-01  9.999980E-01  1.996017E-03  0.000000E+00  5.420598E-03 -2.481720E-03  1.639667E-16 -1.328454E-02  0.000000E+00
  9.900000E-01  1.978520E-03  5.000000E-01  9.999980E-01  1.996017E-03  0.000000E+00  5.420598E-03 -2.481720E-03  1.639667E-16 -1.328454E-02  0.000000E+00
  9.897900E-01  2.020370E-03  5.000000E-01  9.997859E-01  2.038289E-03  0.000000E+00  6.956886E-03 -1.701272E-03  1.168650E-16  1.202559E-01  0.000000E+00
  9.891580E-01  2.146040E-03  5.000000E-01  9.991475E-01  2.165228E-03  0.000000E+00  4.171243E-03 -7.727050E-04  3.965934E-17  8.014168E-02  0.000000E+00
  9.881040E-01  2.355950E-03  5.000000E-01  9.980829E-01  2.377258E-03  0.000000E+00  3.410977E-03 -6.779389E-04  4.035153E-18  7.154718E-02  0.000000E+00
  9.866260E-01  2.650770E-03  5.000000E-01  9.965899E-01  2.675056E-03  0.000000E+00  3.169609E-03 -6.384155E-04 -3.842891E-18  7.516235E-02  0.000000E+00
  9.847200E-01  3.031410E-03  5.000000E-01  9.946647E-01  3.059540E-03  0.000000E+00  3.008155E-03 -6.008895E-04 -2.926881E-18  7.242400E-02  0.000000E+00
  9.823820E-01  3.499010E-03  5.000000E-01  9.923031E-01  3.531862E-03  0.000000E+00  2.959991E-03 -5.919908E-04 -1.046039E-18  6.710593E-02  0.000000E+00
  9.796080E-01  4.054900E-03  5.000000E-01  9.895011E-01  4.093366E-03  0.000000E+00  3.011298E-03 -6.039595E-04  2.520345E-19  6.125452E-02  0.000000E+00
  9.763910E-01  4.700560E-03  5.000000E-01  9.862516E-01  4.745546E-03  0.000000E+00  3.125044E-03 -6.279631E-04  7.711381E-19  5.438510E-02  0.000000E+00
  9.727270E-01  5.437530E-03  5.000000E-01  9.825506E-01  5.489959E-03  0.000000E+00  3.276122E-03 -6.594261E-04  4.710653E-19  4.628572E-02  0.000000E+00
  9.686070E-01  6.267430E-03  5.000000E-01  9.783890E-01  6.328240E-03  0.000000E+00  3.450128E-03 -6.954170E-04  3.370306E-19  3.706261E-02  0.000000E+00
  9.640240E-01  7.191790E-03  5.000000E-01  9.737597E-01  7.261935E-03  0.000000E+00  3.640108E-03 -7.343469E-04  4.500322E-19  2.674616E-02  0.000000E+00
  9.589680E-01  8.212010E-03  5.000000E-01  9.686526E-01  8.292459E-03  0.000000E+00  3.844628E-03 -7.757748E-04  2.218599E-19  1.532595E-02  0.000000E+00
  9.534310E-01  9.329230E-03  5.000000E-01  9.630597E-01  9.420961E-03  0.000000E+00  4.065182E-03 -8.197763E-04  3.705509E-19  2.772710E-03  0.000000E+00
  9.474030E-01  1.054420E-02  5.000000E-01  9.569708E-01  1.064820E-02  0.000000E+00  4.303857E-03 -8.662892E-04  3.513602E-19 -1.087060E-02  0.000000E+00
  9.408720E-01  1.185710E-02  5.000000E-01  9.503739E-01  1.197436E-02  0.000000E+00  4.561966E-03 -9.151773E-04 -3.421110E-19 -2.561655E-02  0.000000E+00
  9.338280E-01  1.326740E-02  5.000000E-01  9.432587E-01  1.339890E-02  0.000000E+00  4.840055E-03 -9.661028E-04 -2.768774E-19 -4.148049E-02  0.000000E+00
  9.262600E-01  1.477370E-02  5.000000E-01  9.356143E-01  1.492042E-02  0.000000E+00  5.137681E-03 -1.018147E-03  1.370969E-19 -5.840362E-02  0.000000E+00
  9.181550E-01  1.637320E-02  5.000000E-01  9.274274E-01  1.653607E-02  0.000000E+00  5.453043E-03 -1.070053E-03  3.371447E-19 -7.636025E-02  0.000000E+00
  9.095020E-01  1.806190E-02  5.000000E-01  9.186871E-01  1.824182E-02  0.000000E+00  5.782813E-03 -1.120059E-03  9.395629E-19 -9.514235E-02  0.000000E+00
  9.002880E-01  1.983380E-02  5.000000E-01  9.093800E-01  2.003162E-02  0.000000E+00  6.120939E-03 -1.165945E-03  1.039254E-18 -1.142303E-01  0.000000E+00
  8.905020E-01  2.168120E-02  5.000000E-01  8.994952E-01  2.189767E-02  0.000000E+00  6.458390E-03 -1.206418E-03 -5.108116E-19 -1.332364E-01  0.000000E+00
  8.801320E-01  2.359880E-02  5.000000E-01  8.890205E-01  2.383464E-02  0.000000E+00  6.786128E-03 -1.241793E-03 -1.078907E-18 -1.521589E-01  0.000000E+00
  8.691700E-01  2.558450E-02  5.000000E-01  8.779477E-01  2.584039E-02  0.000000E+00  7.098519E-03 -1.272715E-03 -1.267508E-19 -1.710522E-01  0.000000E+00
  8.691700E-01  2.558450E-02  5.000000E-01  8.779477E-01  2.584039E-02  0.000000E+00  7.098519E-03 -1.272715E-03 -1.267508E-19 -1.710522E-01  0.000000E+00
  8.576080E-01  2.763700E-02  5.000000E-01  8.662690E-01  2.791362E-02  0.000000E+00  7.393829E-03 -1.299538E-03 -3.008546E-19 -1.898662E-01  0.000000E+00
  8.454380E-01  2.975540E-02  5.000000E-01  8.539761E-01  3.005342E-02  0.000000E+00  7.673382E-03 -1.323267E-03 -3.728113E-19 -2.086514E-01  0.000000E+00
  8.326580E-01  3.193950E-02  5.000000E-01  8.410670E-01  3.225957E-02  0.000000E+00  7.941554E-03 -1.345487E-03 -1.573263E-19 -2.275767E-01  0.000000E+00
  8.192630E-01  3.418990E-02  5.000000E-01  8.275367E-01  3.453270E-02  0.000000E+00  8.205744E-03 -1.368364E-03  7.540016E-19 -2.472223E-01  0.000000E+00
  8.052550E-01  3.650860E-02  5.000000E-01  8.133873E-01  3.687482E-02  0.000000E+00  8.476943E-03 -1.393761E-03  2.559374E-18 -2.684389E-01  0.000000E+00
  7.906370E-01  3.889610E-02  5.000000E-01  7.986216E-01  3.928643E-02  0.000000E+00  8.768486E-03 -1.420828E-03  2.785939E-18 -2.914725E-01  0.000000E+00
  7.754120E-01  4.134420E-02  5.000000E-01  7.832429E-01  4.175925E-02  0.000000E+00  9.090485E-03 -1.447086E-03  2.482709E-18 -3.161041E-01  0.000000E+00
  7.595880E-01  4.383860E-02  5.000000E-01  7.672591E-01  4.427884E-02  0.000000E+00  9.446268E-03 -1.470658E-03  1.971580E-18 -3.422469E-01  0.000000E+00
  7.431760E-01  4.636280E-02  5.000000E-01  7.506813E-01  4.682853E-02  0.000000E+00  9.833401E-03 -1.489545E-03  3.614686E-19 -3.698011E-01  0.000000E+00
  7.261880E-01  4.889790E-02  5.000000E-01  7.335218E-01  4.938924E-02  0.000000E+00  1.024491E-02 -1.500867E-03 -5.484753E-19 -3.983582E-01  0.000000E+00
  7.086430E-01  5.142210E-02  5.000000E-01  7.157996E-01  5.193893E-02  0.000000E+00  1.066972E-02 -1.501188E-03 -7.523839E-19 -4.269934E-01  0.000000E+00
  6.905640E-01  5.391090E-02  5.000000E-01  6.975380E-01  5.445286E-02  0.000000E+00  1.109296E-02 -1.488176E-03 -8.355353E-19 -4.546153E-01  0.000000E+00
  6.719770E-01  5.634190E-02  5.000000E-01  6.787633E-01  5.690841E-02  0.000000E+00  1.149803E-02 -1.463289E-03 -3.031615E-19 -4.809373E-01  0.000000E+00
  6.529150E-01  5.870280E-02  5.000000E-01  6.595088E-01  5.929315E-02  0.000000E+00  1.187345E-02 -1.430009E-03 -6.976784E-19 -5.063842E-01  0.000000E+00
  6.334180E-01  6.098630E-02  5.000000E-01  6.398149E-01  6.159972E-02  0.000000E+00  1.221748E-02 -1.390504E-03 -1.075488E-18 -5.314329E-01  0.000000E+00
  6.135280E-01  6.318580E-02  5.000000E-01  6.197240E-01  6.382143E-02  0.000000E+00  1.253664E-02 -1.346451E-03  1.346215E-19 -5.566267E-01  0.000000E+00
  5.932910E-01  6.529620E-02  5.000000E-01  5.992826E-01  6.595314E-02  0.000000E+00  1.284391E-02 -1.299561E-03 -4.665837E-19 -5.822666E-01  0.000000E+00
  5.727570E-01  6.731180E-02  5.000000E-01  5.785413E-01  6.798910E-02  0.000000E+00  1.315699E-02 -1.251165E-03 -7.801088E-19 -6.082576E-01  0.000000E+00
  5.519810E-01  6.922620E-02  5.000000E-01  5.575555E-01  6.992283E-02  0.000000E+00  1.349573E-02 -1.202525E-03 -6.355133E-19 -6.351181E-01  0.000000E+00
  5.310180E-01  7.103260E-02  5.000000E-01  5.363808E-01  7.174747E-02  0.000000E+00  1.388147E-02 -1.155375E-03 -1.523835E-18 -6.655879E-01  0.000000E+00
  5.099250E-01  7.272630E-02  5.000000E-01  5.150747E-01  7.345828E-02  0.000000E+00  1.434057E-02 -1.109925E-03 -5.100908E-19 -7.041047E-01  0.000000E+00
  4.887640E-01  7.430200E-02  5.000000E-01  4.937000E-01  7.504989E-02  0.000000E+00  1.490777E-02 -1.051546E-03  4.054738E-19 -7.511314E-01  0.000000E+00
  4.675910E-01  7.571510E-02  5.000000E-01  4.723132E-01  7.647726E-02  0.000000E+00  1.560091E-02 -9.506103E-04  1.676198E-19 -8.000922E-01  0.000000E+00
  7.860720E-05 -8.615330E-04  5.000000E-01  7.940614E-05 -8.727181E-04  0.000000E+00 -4.827234E-03  2.473070E-02  3.050239E-17  7.378821E-01  0.000000E+00
  3.989240E-04 -1.896030E-03  5.000000E-01  4.029578E-04 -1.917662E-03  0.000000E+00 -6.093839E-03  1.497570E-02  1.699647E-17  9.747978E-01  0.000000E+00
  1.196920E-03 -3.190040E-03  5.000000E-01  1.209013E-03 -3.224741E-03  0.000000E+00 -3.945820E-03  5.859084E-03  1.095170E-17  1.085220E+00  0.000000E+00
  2.563580E-03 -4.591550E-03  5.000000E-01  2.589475E-03 -4.640404E-03  0.000000E+00  2.941681E-04  5.948644E-05  4.040958E-18  1.051172E+00  0.000000E+00
  4.492740E-03 -6.021770E-03  5.000000E-01  4.538117E-03 -6.085068E-03  0.000000E+00  4.364479E-03 -2.765678E-03  1.610596E-19  9.598966E-01  0.000000E+00
  6.952190E-03 -7.461940E-03  5.000000E-01  7.022405E-03 -7.539783E-03  0.000000E+00  7.405907E-03 -3.962810E-03 -1.163803E-18  8.666622E-01  0.000000E+00
  9.910730E-03 -8.934940E-03  5.000000E-01  1.001082E-02 -9.027658E-03  0.000000E+00  9.534340E-03 -4.480611E-03 -2.617947E-18  7.835974E-01  0.000000E+00
  1.334950E-02 -1.047090E-02  5.000000E-01  1.348432E-02 -1.057913E-02  0.000000E+00  1.107836E-02 -4.644465E-03 -3.136112E-18  6.994009E-01  0.000000E+00
  1.728780E-02 -1.202890E-02  5.000000E-01  1.746239E-02 -1.215286E-02  0.000000E+00  1.220505E-02 -4.444432E-03 -3.690191E-18  6.037200E-01  0.000000E+00
  2.175590E-02 -1.352660E-02  5.000000E-01  2.197562E-02 -1.366569E-02  0.000000E+00  1.294968E-02 -3.941791E-03 -3.874909E-18  5.084730E-01  0.000000E+00
  2.676920E-02 -1.490290E-02  5.000000E-01  2.703955E-02 -1.505589E-02  0.000000E+00  1.337861E-02 -3.323184E-03 -1.990765E-18  4.320732E-01  0.000000E+00
  3.232800E-02 -1.613970E-02  5.000000E-01  3.265449E-02 -1.630518E-02  0.000000E+00  1.360441E-02 -2.746368E-03 -3.436133E-19  3.798882E-01  0.000000E+00
  3.842930E-02 -1.724680E-02  5.000000E-01  3.881740E-02 -1.742346E-02  0.000000E+00  1.371928E-02 -2.276206E-03  1.891195E-19  3.451453E-01  0.000000E+00
  4.507220E-02 -1.824650E-02  5.000000E-01  4.552739E-02 -1.843326E-02  0.000000E+00  1.379184E-02 -1.938343E-03  5.947319E-19  3.211989E-01  0.000000E+00
  5.225680E-02 -1.918440E-02  5.000000E-01  5.278455E-02 -1.938063E-02  0.000000E+00  1.388427E-02 -1.734755E-03  2.726775E-19  3.035883E-01  0.000000E+00
  5.998640E-02 -2.010780E-02  5.000000E-01  6.059221E-02 -2.031335E-02  0.000000E+00  1.401495E-02 -1.607859E-03 -3.938694E-19  2.841606E-01  0.000000E+00
  6.827110E-02 -2.102090E-02  5.000000E-01  6.896057E-02 -2.123567E-02  0.000000E+00  1.415605E-02 -1.491678E-03 -1.085608E-18  2.585877E-01  0.000000E+00
  7.712280E-02 -2.191110E-02  5.000000E-01  7.790167E-02 -2.213486E-02  0.000000E+00  1.428155E-02 -1.368455E-03 -1.517478E-18  2.310153E-01  0.000000E+00
  8.655260E-02 -2.276940E-02  5.000000E-01  8.742670E-02 -2.300183E-02  0.000000E+00  1.437560E-02 -1.236392E-03 -9.928235E-19  2.050635E-01  0.000000E+00
  9.657140E-02 -2.358130E-02  5.000000E-01  9.754668E-02 -2.382193E-02  0.000000E+00  1.441551E-02 -1.081095E-03 -3.572911E-19  1.801397E-01  0.000000E+00
  1.071900E-01 -2.431410E-02  5.000000E-01  1.082725E-01 -2.456213E-02  0.000000E+00  1.438674E-02 -8.998538E-04 -4.439086E-19  1.567506E-01  0.000000E+00
  1.184180E-01 -2.494290E-02  5.000000E-01  1.196139E-01 -2.519728E-02  0.000000E+00  1.430667E-02 -7.178921E-04 -4.316166E-19  1.381935E-01  0.000000E+00
  1.302610E-01 -2.546700E-02  5.000000E-01  1.315765E-01 -2.572668E-02  0.000000E+00  1.420683E-02 -5.585246E-04 -8.112240E-20  1.250505E-01  0.000000E+00
  1.427230E-01 -2.589480E-02  5.000000E-01  1.441644E-01 -2.615880E-02  0.000000E+00  1.410441E-02 -4.270883E-04  3.653037E-20  1.148671E-01  0.000000E+00
  1.427230E-01 -2.589480E-02  5.000000E-01  1.441644E-01 -2.615880E-02  0.000000E+00  1.410441E-02 -4.270883E-04  3.653037E-20  1.148671E-01  0.000000E+00
  1.558070E-01 -2.623800E-02  5.000000E-01  1.573805E-01 -2.650546E-02  0.000000E+00  1.399089E-02 -3.115522E-04  1.621526E-20  1.048239E-01  0.000000E+00
  1.695140E-01 -2.648920E-02  5.000000E-01  1.712259E-01 -2.675920E-02  0.000000E+00  1.384081E-02 -1.918337E-04 -2.460398E-19  9.361190E-02  0.000000E+00
  1.838420E-01 -2.662330E-02  5.000000E-01  1.856986E-01 -2.689465E-02  0.000000E+00  1.363834E-02 -5.914403E-05 -4.145890E-19  8.282985E-02  0.000000E+00
  1.987870E-01 -2.661160E-02  5.000000E-01  2.007946E-01 -2.688283E-02  0.000000E+00  1.339621E-02  7.830837E-05 -2.796675E-19  7.514763E-02  0.000000E+00
  2.143420E-01 -2.643960E-02  5.000000E-01  2.165066E-01 -2.670910E-02  0.000000E+00  1.315795E-02  1.980208E-04 -3.109542E-20  7.251291E-02  0.000000E+00
  2.304940E-01 -2.613000E-02  5.000000E-01  2.328218E-01 -2.639637E-02  0.000000E+00  1.297541E-02  2.803113E-04  1.968607E-19  7.408230E-02  0.000000E+00
  2.472290E-01 -2.572700E-02  5.000000E-01  2.497258E-01 -2.598930E-02  0.000000E+00  1.287605E-02  3.262197E-04  1.891853E-19  7.599591E-02  0.000000E+00
  2.645310E-01 -2.526780E-02  5.000000E-01  2.672025E-01 -2.552546E-02  0.000000E+00  1.284421E-02  3.618160E-04 -6.160404E-20  7.362231E-02  0.000000E+00
  2.823750E-01 -2.473790E-02  5.000000E-01  2.852267E-01 -2.499021E-02  0.000000E+00  1.283200E-02  4.209080E-04 -1.844583E-19  6.519550E-02  0.000000E+00
  3.007320E-01 -2.407930E-02  5.000000E-01  3.037691E-01 -2.432496E-02  0.000000E+00  1.279182E-02  5.162325E-04 -7.746625E-20  5.431687E-02  0.000000E+00
  3.195690E-01 -2.323350E-02  5.000000E-01  3.227963E-01 -2.347062E-02  0.000000E+00  1.269035E-02  6.382793E-04 -5.306203E-19  4.619265E-02  0.000000E+00
  3.388440E-01 -2.215790E-02  5.000000E-01  3.422660E-01 -2.238416E-02  0.000000E+00  1.250043E-02  7.702011E-04 -3.211321E-19  4.361937E-02  0.000000E+00
  3.585140E-01 -2.082920E-02  5.000000E-01  3.621346E-01 -2.104204E-02  0.000000E+00  1.218940E-02  8.991330E-04 -1.792619E-19  4.657744E-02  0.000000E+00
  3.785290E-01 -1.922520E-02  5.000000E-01  3.823518E-01 -1.942184E-02  0.000000E+00  1.172188E-02  1.016773E-03  6.378819E-19  5.437852E-02  0.000000E+00
  3.988350E-01 -1.732330E-02  5.000000E-01  4.028628E-01 -1.750073E-02  0.000000E+00  1.108195E-02  1.114265E-03  1.691660E-18  6.800097E-02  0.000000E+00
  4.193750E-01 -1.510700E-02  5.000000E-01  4.236103E-01 -1.526205E-02  0.000000E+00  1.029193E-02  1.187333E-03  5.790607E-19  8.829638E-02  0.000000E+00
  4.400850E-01 -1.255090E-02  5.000000E-01  4.445294E-01 -1.268014E-02  0.000000E+00  9.427316E-03  1.227322E-03  4.859112E-19  1.158910E-01  0.000000E+00
  4.609060E-01 -9.683150E-03  5.000000E-01  4.655607E-01 -9.783425E-03  0.000000E+00  8.620550E-03  1.207425E-03  1.770713E-18  1.535064E-01  0.000000E+00
  4.818030E-01 -6.697520E-03  5.000000E-01  4.866687E-01 -6.767643E-03  0.000000E+00  8.005374E-03  1.113627E-03  1.728025E-18  1.989417E-01  0.000000E+00
  5.027520E-01 -3.867410E-03  5.000000E-01  5.078293E-01 -3.908951E-03  0.000000E+00  7.635697E-03  9.739760E-04  4.526340E-19  2.400751E-01  0.000000E+00
  5.237130E-01 -1.364500E-03  5.000000E-01  5.290020E-01 -1.380765E-03  0.000000E+00  7.468622E-03  8.370786E-04 -2.098609E-18  2.651487E-01  0.000000E+00
  5.446170E-01  8.175660E-04  5.000000E-01  5.501171E-01  8.233381E-04  0.000000E+00  7.417761E-03  7.333887E-04 -2.503718E-18  2.743995E-01  0.000000E+00
  5.653940E-01  2.758730E-03  5.000000E-01  5.711039E-01  2.784106E-03  0.000000E+00  7.409318E-03  6.631857E-04  2.722938E-19  2.772810E-01  0.000000E+00
  4.675910E-01  7.571510E-02  5.000000E-01  4.723132E-01  7.647726E-02  0.000000E+00  1.560091E-02 -9.506103E-04  1.676198E-19 -8.000922E-01  0.000000E+00
  4.464640E-01  7.688720E-02  5.000000E-01  4.509728E-01  7.766120E-02  0.000000E+00  1.637974E-02 -7.889513E-04  4.190637E-19 -8.428358E-01  0.000000E+00
  4.254410E-01  7.775500E-02  5.000000E-01  4.297375E-01  7.853776E-02  0.000000E+00  1.714683E-02 -5.785853E-04  5.746465E-19 -8.760454E-01  0.000000E+00
  4.045840E-01  7.830820E-02  5.000000E-01  4.086699E-01  7.909655E-02  0.000000E+00  1.780304E-02 -3.487019E-04  2.624812E-19 -9.012097E-01  0.000000E+00
  3.839530E-01  7.857360E-02  5.000000E-01  3.878305E-01  7.936463E-02  0.000000E+00  1.830389E-02 -1.178850E-04  1.321757E-19 -9.202227E-01  0.000000E+00
  3.636060E-01  7.857720E-02  5.000000E-01  3.672781E-01  7.936827E-02  0.000000E+00  1.866180E-02  1.069181E-04  1.547685E-19 -9.347705E-01  0.000000E+00
  3.435960E-01  7.834640E-02  5.000000E-01  3.470660E-01  7.913514E-02  0.000000E+00  1.892092E-02  3.204433E-04 -2.776178E-20 -9.477616E-01  0.000000E+00
  3.239710E-01  7.790880E-02  5.000000E-01  3.272428E-01  7.869312E-02  0.000000E+00  1.913902E-02  5.203210E-04  1.279858E-19 -9.629820E-01  0.000000E+00
  3.047740E-01  7.729310E-02  5.000000E-01  3.078519E-01  7.807120E-02  0.000000E+00  1.937806E-02  7.144916E-04  3.041925E-19 -9.830016E-01  0.000000E+00
  2.860450E-01  7.651350E-02  5.000000E-01  2.889338E-01  7.728372E-02  0.000000E+00  1.969161E-02  9.240989E-04  7.777981E-20 -1.007320E+00  0.000000E+00
  2.678190E-01  7.556330E-02  5.000000E-01  2.705237E-01  7.632393E-02  0.000000E+00  2.010041E-02  1.166421E-03  6.097768E-20 -1.034333E+00  0.000000E+00
  2.501300E-01  7.443450E-02  5.000000E-01  2.526561E-01  7.518373E-02  0.000000E+00  2.058788E-02  1.445774E-03 -3.016738E-19 -1.062783E+00  0.000000E+00
  2.330040E-01  7.312430E-02  5.000000E-01  2.353571E-01  7.386030E-02  0.000000E+00  2.111941E-02  1.761959E-03 -5.046057E-19 -1.090382E+00  0.000000E+00
  2.164660E-01  7.163300E-02  5.000000E-01  2.186521E-01  7.235394E-02  0.000000E+00  2.165721E-02  2.112999E-03 -5.296237E-19 -1.113354E+00  0.000000E+00
  2.005340E-01  6.996480E-02  5.000000E-01  2.025592E-01  7.066889E-02  0.000000E+00  2.216663E-02  2.491985E-03 -4.418622E-19 -1.128458E+00  0.000000E+00
  1.852230E-01  6.812960E-02  5.000000E-01  1.870936E-01  6.881516E-02  0.000000E+00  2.262085E-02  2.882080E-03 -2.123348E-19 -1.137478E+00  0.000000E+00
  1.705440E-01  6.615120E-02  5.000000E-01  1.722663E-01  6.681678E-02  0.000000E+00  2.302109E-02  3.265146E-03 -1.511477E-20 -1.149682E+00  0.000000E+00
  1.565000E-01  6.405980E-02  5.000000E-01  1.580805E-01  6.470426E-02  0.000000E+00  2.342703E-02  3.643980E-03 -3.561658E-19 -1.177618E+00  0.000000E+00
  1.430940E-01  6.188330E-02  5.000000E-01  1.445391E-01  6.250577E-02  0.000000E+00  2.396772E-02  4.072851E-03 -1.632510E-18 -1.224913E+00  0.000000E+00
  1.303270E-01  5.961800E-02  5.000000E-01  1.316432E-01  6.021760E-02  0.000000E+00  2.477775E-02  4.666110E-03 -2.492770E-18 -1.275514E+00  0.000000E+00
  1.182110E-01  5.721140E-02  5.000000E-01  1.194048E-01  5.778669E-02  0.000000E+00  2.583635E-02  5.494974E-03 -2.296799E-18 -1.304544E+00  0.000000E+00
  1.067560E-01  5.462560E-02  5.000000E-01  1.078341E-01  5.517478E-02  0.000000E+00  2.690313E-02  6.509846E-03 -9.190865E-19 -1.297106E+00  0.000000E+00
  9.596750E-02  5.184850E-02  5.000000E-01  9.693668E-02  5.236963E-02  0.000000E+00  2.763510E-02  7.503838E-03  4.694714E-19 -1.264827E+00  0.000000E+00
  8.582800E-02  4.895130E-02  5.000000E-01  8.669478E-02  4.944317E-02  0.000000E+00  2.787924E-02  8.275251E-03  2.836890E-19 -1.234900E+00  0.000000E+00
  8.582800E-02  4.895130E-02  5.000000E-01  8.669478E-02  4.944317E-02  0.000000E+00  2.787924E-02  8.275251E-03  2.836890E-19 -1.234900E+00  0.000000E+00
  7.631050E-02  4.601840E-02  5.000000E-01  7.708116E-02  4.648066E-02  0.000000E+00  2.784147E-02  8.922006E-03 -4.353106E-19 -1.212921E+00  0.000000E+00
  6.740780E-02  4.305650E-02  5.000000E-01  6.808856E-02  4.348884E-02  0.000000E+00  2.779367E-02  9.653552E-03  1.320772E-19 -1.187288E+00  0.000000E+00
  5.911740E-02  4.005660E-02  5.000000E-01  5.971443E-02  4.045865E-02  0.000000E+00  2.781005E-02  1.051166E-02  8.871937E-19 -1.152249E+00  0.000000E+00
  5.143150E-02  3.702820E-02  5.000000E-01  5.195091E-02  3.739966E-02  0.000000E+00  2.782508E-02  1.143860E-02  1.623443E-18 -1.108859E+00  0.000000E+00
  4.433770E-02  3.399100E-02  5.000000E-01  4.478547E-02  3.433179E-02  0.000000E+00  2.774971E-02  1.238128E-02  1.376503E-18 -1.061899E+00  0.000000E+00
  3.782240E-02  3.096560E-02  5.000000E-01  3.820437E-02  3.127584E-02  0.000000E+00  2.753911E-02  1.333154E-02 -1.310606E-20 -1.016788E+00  0.000000E+00
  3.187460E-02  2.796630E-02  5.000000E-01  3.219651E-02  2.824625E-02  0.000000E+00  2.720752E-02  1.432293E-02 -1.101868E-18 -9.749101E-01  0.000000E+00
  2.648400E-02  2.500640E-02  5.000000E-01  2.675147E-02  2.525646E-02  0.000000E+00  2.679440E-02  1.545513E-02 -1.453372E-18 -9.229462E-01  0.000000E+00
  2.164990E-02  2.208420E-02  5.000000E-01  2.186855E-02  2.230474E-02  0.000000E+00  2.623399E-02  1.679124E-02 -1.011053E-18 -8.346305E-01  0.000000E+00
  1.737670E-02  1.919660E-02  5.000000E-01  1.755219E-02  1.938798E-02  0.000000E+00  2.529540E-02  1.804274E-02 -2.636974E-18 -7.058380E-01  0.000000E+00
  1.364080E-02  1.638500E-02  5.000000E-01  1.377856E-02  1.654799E-02  0.000000E+00  2.384671E-02  1.871203E-02 -5.014770E-18 -5.708346E-01  0.000000E+00
  1.039090E-02  1.372020E-02  5.000000E-01  1.049584E-02  1.385628E-02  0.000000E+00  2.207061E-02  1.873783E-02 -5.686149E-18 -4.660457E-01  0.000000E+00
  7.586340E-03  1.124900E-02  5.000000E-01  7.662959E-03  1.136012E-02  0.000000E+00  2.028827E-02  1.869691E-02 -6.122760E-18 -3.923698E-01  0.000000E+00
  5.226210E-03  8.970840E-03  5.000000E-01  5.278995E-03  9.058952E-03  0.000000E+00  1.869334E-02  1.926840E-02 -6.832843E-18 -3.268683E-01  0.000000E+00
  3.324300E-03  6.875930E-03  5.000000E-01  3.357877E-03  6.942886E-03  0.000000E+00  1.725348E-02  2.080629E-02 -1.159574E-17 -2.508151E-01  0.000000E+00
  1.883580E-03  4.976010E-03  5.000000E-01  1.902607E-03  5.023778E-03  0.000000E+00  1.564610E-02  2.341540E-02 -1.798404E-17 -1.446817E-01  0.000000E+00
  8.951490E-04  3.301710E-03  5.000000E-01  9.041942E-04  3.332569E-03  0.000000E+00  1.323907E-02  2.676148E-02 -1.840559E-17  1.132329E-02  0.000000E+00
  3.201820E-04  1.906970E-03  5.000000E-01  3.234206E-04  1.923744E-03  0.000000E+00  9.564434E-03  2.963027E-02 -1.295929E-17  2.112949E-01  0.000000E+00
  6.852390E-05  8.596590E-04  5.000000E-01  6.922101E-05  8.658562E-04  0.000000E+00  5.243117E-03  3.041298E-02 -2.428532E-18  3.942011E-01  0.000000E+00
  4.217600E-06  2.175620E-04  5.000000E-01  4.265277E-06  2.172747E-04  0.000000E+00  1.811978E-03  2.951531E-02  1.587254E-17  4.630461E-01  0.000000E+00
 -5.032520E-09  2.459610E-06  5.000000E-01  0.000000E+00  0.000000E+00  0.000000E+00 -1.983314E-04  3.040869E-02  3.899613E-17  4.498356E-01  0.000000E+00
  5.154440E-06 -2.143830E-04  5.000000E-01  5.211578E-06 -2.190325E-04  0.000000E+00 -2.150432E-03  3.053725E-02  4.601510E-17  5.231646E-01  0.000000E+00