 Title = "ADflow Slice Data"
Variables =  "CoordinateX"  "CoordinateY"  "CoordinateZ"  "XoC"  "YoC"  "ZoC" "VelocityX" "VelocityY" "VelocityZ" "CoefPressure" "Mach" 
Zone T= "Slice_0001 None Absolute Regular z = 0.50000000"
 Nodes =          192  Elements=          184  ZONETYPE=FELINESEG
 DATAPACKING=POINT
  5.653940E-01  2.551624E-03  5.000000E-01  5.711040E-01  2.521098E-03  0.000000E+00  8.564387E-03  5.467855E-04 -3.861717E-19  2.293950E-01  0.000000E+00
  5.859770E-01  3.833369E-03  5.000000E-01  5.918948E-01  3.815787E-03  0.000000E+00  8.558771E-03  5.328899E-04 -1.449018E-18  2.280678E-01  0.000000E+00
  6.063060E-01  5.099202E-03  5.000000E-01  6.124291E-01  5.094404E-03  0.000000E+00  8.484734E-03  5.348270E-04 -1.633810E-18  2.298433E-01  0.000000E+00
  6.263240E-01  6.377394E-03  5.000000E-01  6.326493E-01  6.385505E-03  0.000000E+00  8.331480E-03  5.377230E-04 -1.215099E-18  2.357229E-01  0.000000E+00
  6.459860E-01  7.660624E-03  5.000000E-01  6.525099E-01  7.681694E-03  0.000000E+00  8.103184E-03  5.347232E-04 -1.709817E-18  2.450932E-01  0.000000E+00
  6.652460E-01  8.944983E-03  5.000000E-01  6.719644E-01  8.979023E-03  0.000000E+00  7.813207E-03  5.249795E-04 -1.003324E-18  2.565702E-01  0.000000E+00
  6.840650E-01  1.021961E-02  5.000000E-01  6.909734E-01  1.026652E-02  0.000000E+00  7.487970E-03  5.026814E-04 -1.615800E-19  2.705153E-01  0.000000E+00
  7.024070E-01  1.144041E-02  5.000000E-01  7.095007E-01  1.149966E-02  0.000000E+00  7.162206E-03  4.627525E-04 -5.691992E-19  2.868021E-01  0.000000E+00
  7.202400E-01  1.255622E-02  5.000000E-01  7.275138E-01  1.262673E-02  0.000000E+00  6.868399E-03  4.063466E-04 -1.111671E-18  3.035446E-01  0.000000E+00
  7.375350E-01  1.351762E-02  5.000000E-01  7.449834E-01  1.359784E-02  0.000000E+00  6.632380E-03  3.371943E-04 -1.722564E-18  3.188896E-01  0.000000E+00
  7.542690E-01  1.428611E-02  5.000000E-01  7.618864E-01  1.437409E-02  0.000000E+00  6.472895E-03  2.588923E-04 -1.389395E-18  3.317132E-01  0.000000E+00
  7.704220E-01  1.483445E-02  5.000000E-01  7.782026E-01  1.492796E-02  0.000000E+00  6.402075E-03  1.730799E-04 -2.228654E-19  3.414409E-01  0.000000E+00
  7.859770E-01  1.514698E-02  5.000000E-01  7.939147E-01  1.524366E-02  0.000000E+00  6.425134E-03  7.911819E-05  5.789137E-19  3.478171E-01  0.000000E+00
  8.009220E-01  1.521633E-02  5.000000E-01  8.090106E-01  1.531370E-02  0.000000E+00  6.538805E-03 -2.306930E-05 -1.876295E-19  3.506664E-01  0.000000E+00
  8.152480E-01  1.505111E-02  5.000000E-01  8.234813E-01  1.514682E-02  0.000000E+00  6.727612E-03 -1.274724E-04 -3.740086E-19  3.492185E-01  0.000000E+00
  8.289490E-01  1.469231E-02  5.000000E-01  8.373206E-01  1.478439E-02  0.000000E+00  6.965868E-03 -2.255142E-04  7.000453E-20  3.434321E-01  0.000000E+00
  8.420260E-01  1.419099E-02  5.000000E-01  8.505297E-01  1.427801E-02  0.000000E+00  7.226606E-03 -3.131986E-04  9.598721E-20  3.350075E-01  0.000000E+00
  8.544790E-01  1.359157E-02  5.000000E-01  8.631085E-01  1.367254E-02  0.000000E+00  7.486440E-03 -3.894437E-04 -5.608117E-19  3.255981E-01  0.000000E+00
  8.663160E-01  1.293146E-02  5.000000E-01  8.750650E-01  1.300576E-02  0.000000E+00  7.725781E-03 -4.534009E-04 -8.551234E-19  3.160127E-01  0.000000E+00
  8.775420E-01  1.224083E-02  5.000000E-01  8.864044E-01  1.230815E-02  0.000000E+00  7.929593E-03 -5.041716E-04 -2.496812E-19  3.067534E-01  0.000000E+00
  8.881660E-01  1.154388E-02  5.000000E-01  8.971357E-01  1.160417E-02  0.000000E+00  8.089154E-03 -5.414771E-04  5.382428E-19  2.982057E-01  0.000000E+00
  8.981970E-01  1.085916E-02  5.000000E-01  9.072680E-01  1.091253E-02  0.000000E+00  8.204986E-03 -5.692393E-04  8.927218E-19  2.909041E-01  0.000000E+00
  9.076460E-01  1.019353E-02  5.000000E-01  9.168124E-01  1.024018E-02  0.000000E+00  8.289339E-03 -5.969993E-04 -6.189483E-20  2.855547E-01  0.000000E+00
  9.165220E-01  9.540675E-03  5.000000E-01  9.257780E-01  9.580732E-03  0.000000E+00  8.360910E-03 -6.321587E-04 -2.195634E-19  2.817750E-01  0.000000E+00
  9.165220E-01  9.540675E-03  5.000000E-01  9.257780E-01  9.580732E-03  0.000000E+00  8.360910E-03 -6.321587E-04 -2.195634E-19  2.817750E-01  0.000000E+00
  9.248360E-01  8.894903E-03  5.000000E-01  9.341760E-01  8.928438E-03  0.000000E+00  8.435587E-03 -6.758297E-04  5.068818E-19  2.782398E-01  0.000000E+00
  9.325990E-01  8.253986E-03  5.000000E-01  9.420174E-01  8.281049E-03  0.000000E+00  8.523945E-03 -7.273336E-04  4.585067E-19  2.742268E-01  0.000000E+00
  9.398210E-01  7.617955E-03  5.000000E-01  9.493123E-01  7.638594E-03  0.000000E+00  8.633073E-03 -7.861833E-04 -3.079294E-19  2.695940E-01  0.000000E+00
  9.465130E-01  6.988746E-03  5.000000E-01  9.560719E-01  7.003030E-03  0.000000E+00  8.767550E-03 -8.519067E-04 -8.046265E-19  2.642500E-01  0.000000E+00
  9.526870E-01  6.369747E-03  5.000000E-01  9.623083E-01  6.377780E-03  0.000000E+00  8.929663E-03 -9.240333E-04 -3.204607E-19  2.580846E-01  0.000000E+00
  9.583540E-01  5.765421E-03  5.000000E-01  9.680325E-01  5.767351E-03  0.000000E+00  9.119975E-03 -1.002060E-03  3.198680E-19  2.510319E-01  0.000000E+00
  9.635240E-01  5.180979E-03  5.000000E-01  9.732547E-01  5.177006E-03  0.000000E+00  9.338232E-03 -1.085297E-03  3.240454E-19  2.430458E-01  0.000000E+00
  9.682080E-01  4.622070E-03  5.000000E-01  9.779860E-01  4.612453E-03  0.000000E+00  9.585269E-03 -1.173381E-03  3.501733E-20  2.341578E-01  0.000000E+00
  9.724140E-01  4.094532E-03  5.000000E-01  9.822345E-01  4.079588E-03  0.000000E+00  9.865453E-03 -1.266323E-03  1.438711E-19  2.244411E-01  0.000000E+00
  9.761510E-01  3.604196E-03  5.000000E-01  9.860092E-01  3.584300E-03  0.000000E+00  1.018671E-02 -1.364096E-03  1.039746E-19  2.139255E-01  0.000000E+00
  9.794290E-01  3.156651E-03  5.000000E-01  9.893203E-01  3.132235E-03  0.000000E+00  1.055355E-02 -1.466867E-03 -3.678005E-19  2.026828E-01  0.000000E+00
  9.822540E-01  2.757178E-03  5.000000E-01  9.921739E-01  2.728728E-03  0.000000E+00  1.094909E-02 -1.572754E-03 -6.042050E-20  1.910061E-01  0.000000E+00
  9.846330E-01  2.410553E-03  5.000000E-01  9.945769E-01  2.378602E-03  0.000000E+00  1.131715E-02 -1.671336E-03  1.638578E-18  1.801543E-01  0.000000E+00
  9.865710E-01  2.120971E-03  5.000000E-01  9.965345E-01  2.086096E-03  0.000000E+00  1.152590E-02 -1.730921E-03  2.560586E-18  1.690300E-01  0.000000E+00
  9.880740E-01  1.891968E-03  5.000000E-01  9.980526E-01  1.854780E-03  0.000000E+00  1.136348E-02 -1.747092E-03 -2.073425E-18  1.514267E-01  0.000000E+00
  9.891450E-01  1.726345E-03  5.000000E-01  9.991345E-01  1.687484E-03  0.000000E+00  1.149481E-02 -1.866539E-03 -2.481153E-17  1.536199E-01  0.000000E+00
  9.897860E-01  1.626149E-03  5.000000E-01  9.997819E-01  1.586277E-03  0.000000E+00  1.474162E-02 -1.841748E-03 -7.243494E-17  2.015844E-01  0.000000E+00
  9.900000E-01  1.592617E-03  5.000000E-01  9.999981E-01  1.552405E-03  0.000000E+00  1.028431E-02 -4.286153E-03 -7.713288E-17 -3.409295E-02  0.000000E+00
  9.900000E-01  1.671327E-03  5.000000E-01  9.999981E-01  1.631910E-03  0.000000E+00  1.029173E-03 -1.462303E-02  5.766582E-18 -1.670078E-01  0.000000E+00
  9.900000E-01  1.750047E-03  5.000000E-01  9.999981E-01  1.711425E-03  0.000000E+00 -5.163031E-04 -1.387298E-02  8.689002E-17  4.980091E-03  0.000000E+00
  9.900000E-01  1.828767E-03  5.000000E-01  9.999981E-01  1.790941E-03  0.000000E+00 -2.867174E-04  1.961615E-03  1.043224E-16  4.602477E-04  0.000000E+00
  9.900000E-01  1.907477E-03  5.000000E-01  9.999981E-01  1.870445E-03  0.000000E+00  6.846688E-04  3.469478E-03  1.305707E-16 -1.125472E-01  0.000000E+00
  9.900000E-01  1.986197E-03  5.000000E-01  9.999981E-01  1.949961E-03  0.000000E+00  5.598058E-03 -2.526585E-03  1.650618E-16 -2.132620E-02  0.000000E+00
  9.900000E-01  1.986197E-03  5.000000E-01  9.999981E-01  1.949961E-03  0.000000E+00  5.598058E-03 -2.526585E-03  1.650618E-16 -2.132620E-02  0.000000E+00
  9.897900E-01  2.029645E-03  5.000000E-01  9.997860E-01  1.993848E-03  0.000000E+00  7.233802E-03 -1.817034E-03  1.180765E-16  1.152354E-01  0.000000E+00
  9.891580E-01  2.160096E-03  5.000000E-01  9.991476E-01  2.125615E-03  0.000000E+00  4.404625E-03 -8.511111E-04  4.010736E-17  7.453849E-02  0.000000E+00
  9.881040E-01  2.377879E-03  5.000000E-01  9.980830E-01  2.345598E-03  0.000000E+00  3.639684E-03 -7.506461E-04  4.294648E-18  6.576024E-02  0.000000E+00
  9.866260E-01  2.683531E-03  5.000000E-01  9.965900E-01  2.654337E-03  0.000000E+00  3.409786E-03 -7.110955E-04 -3.494013E-18  6.890344E-02  0.000000E+00
  9.847200E-01  3.077781E-03  5.000000E-01  9.946648E-01  3.052569E-03  0.000000E+00  3.268588E-03 -6.758338E-04 -2.086485E-18  6.544929E-02  0.000000E+00
  9.823820E-01  3.561528E-03  5.000000E-01  9.923032E-01  3.541201E-03  0.000000E+00  3.246413E-03 -6.712909E-04 -9.990861E-19  5.938232E-02  0.000000E+00
  9.796080E-01  4.135795E-03  5.000000E-01  9.895011E-01  4.121267E-03  0.000000E+00  3.326451E-03 -6.886588E-04 -1.289189E-18  5.270342E-02  0.000000E+00
  9.763910E-01  4.801716E-03  5.000000E-01  9.862517E-01  4.793913E-03  0.000000E+00  3.470311E-03 -7.185310E-04 -7.731485E-19  4.489275E-02  0.000000E+00
  9.727270E-01  5.560396E-03  5.000000E-01  9.825507E-01  5.560255E-03  0.000000E+00  3.652504E-03 -7.560495E-04 -4.307447E-19  3.575757E-02  0.000000E+00
  9.686070E-01  6.412997E-03  5.000000E-01  9.783890E-01  6.421467E-03  0.000000E+00  3.858572E-03 -7.981021E-04 -1.241830E-18  2.542431E-02  0.000000E+00
  9.640240E-01  7.360517E-03  5.000000E-01  9.737598E-01  7.378556E-03  0.000000E+00  4.081664E-03 -8.430173E-04 -1.166638E-18  1.393295E-02  0.000000E+00
  9.589680E-01  8.403791E-03  5.000000E-01  9.686527E-01  8.432366E-03  0.000000E+00  4.320471E-03 -8.903158E-04 -3.633497E-20  1.284471E-03  0.000000E+00
  9.534310E-01  9.543329E-03  5.000000E-01  9.630598E-01  9.583413E-03  0.000000E+00  4.576487E-03 -9.400198E-04 -4.348735E-20 -1.253800E-02  0.000000E+00
  9.474030E-01  1.077923E-02  5.000000E-01  9.569709E-01  1.083180E-02  0.000000E+00  4.851672E-03 -9.919529E-04  1.438709E-19 -2.747578E-02  0.000000E+00
  9.408720E-01  1.211102E-02  5.000000E-01  9.503740E-01  1.217704E-02  0.000000E+00  5.147116E-03 -1.045862E-03  3.708855E-19 -4.352817E-02  0.000000E+00
  9.338280E-01  1.353747E-02  5.000000E-01  9.432588E-01  1.361789E-02  0.000000E+00  5.463193E-03 -1.101295E-03  1.203732E-19 -6.070193E-02  0.000000E+00
  9.262600E-01  1.505650E-02  5.000000E-01  9.356144E-01  1.515227E-02  0.000000E+00  5.799444E-03 -1.157210E-03 -2.411628E-19 -7.893010E-02  0.000000E+00
  9.181550E-01  1.666466E-02  5.000000E-01  9.274275E-01  1.677666E-02  0.000000E+00  6.154216E-03 -1.212259E-03 -2.786528E-20 -9.818145E-02  0.000000E+00
  9.095020E-01  1.835726E-02  5.000000E-01  9.186871E-01  1.848636E-02  0.000000E+00  6.524570E-03 -1.264611E-03  6.428033E-19 -1.182398E-01  0.000000E+00
  9.002880E-01  2.012766E-02  5.000000E-01  9.093801E-01  2.027463E-02  0.000000E+00  6.905130E-03 -1.311993E-03  7.667885E-19 -1.385744E-01  0.000000E+00
  8.905020E-01  2.196738E-02  5.000000E-01  8.994953E-01  2.213293E-02  0.000000E+00  7.287841E-03 -1.353185E-03 -6.155027E-19 -1.588065E-01  0.000000E+00
  8.801320E-01  2.387004E-02  5.000000E-01  8.890205E-01  2.405481E-02  0.000000E+00  7.665173E-03 -1.388694E-03 -2.505700E-18 -1.789714E-01  0.000000E+00
  8.691700E-01  2.583183E-02  5.000000E-01  8.779478E-01  2.603641E-02  0.000000E+00  8.033717E-03 -1.419259E-03 -1.086529E-18 -1.991557E-01  0.000000E+00
  8.691700E-01  2.583183E-02  5.000000E-01  8.779478E-01  2.603641E-02  0.000000E+00  8.033717E-03 -1.419259E-03 -1.086529E-18 -1.991557E-01  0.000000E+00
  8.576080E-01  2.784900E-02  5.000000E-01  8.662691E-01  2.807395E-02  0.000000E+00  8.394352E-03 -1.445072E-03  6.388691E-19 -2.192990E-01  0.000000E+00
  8.454380E-01  2.991706E-02  5.000000E-01  8.539762E-01  3.016290E-02  0.000000E+00  8.750424E-03 -1.466579E-03  4.649388E-19 -2.394375E-01  0.000000E+00
  8.326580E-01  3.203052E-02  5.000000E-01  8.410671E-01  3.229770E-02  0.000000E+00  9.106523E-03 -1.484013E-03  4.774983E-19 -2.597940E-01  0.000000E+00
  8.192630E-01  3.418218E-02  5.000000E-01  8.275368E-01  3.447109E-02  0.000000E+00  9.466693E-03 -1.496919E-03  1.054673E-18 -2.809576E-01  0.000000E+00
  8.052550E-01  3.636260E-02  5.000000E-01  8.133873E-01  3.667353E-02  0.000000E+00  9.832209E-03 -1.502515E-03  2.399085E-18 -3.032145E-01  0.000000E+00
  7.906370E-01  3.855600E-02  5.000000E-01  7.986217E-01  3.888909E-02  0.000000E+00  1.019617E-02 -1.492922E-03  2.246268E-18 -3.250436E-01  0.000000E+00
  7.754120E-01  4.073235E-02  5.000000E-01  7.832430E-01  4.108742E-02  0.000000E+00  1.053380E-02 -1.460352E-03  1.548248E-18 -3.439789E-01  0.000000E+00
  7.595880E-01  4.286002E-02  5.000000E-01  7.672591E-01  4.323658E-02  0.000000E+00  1.080276E-02 -1.405681E-03  1.935815E-18 -3.587832E-01  0.000000E+00
  7.431760E-01  4.492564E-02  5.000000E-01  7.506814E-01  4.532305E-02  0.000000E+00  1.096108E-02 -1.335719E-03  1.096803E-20 -3.686618E-01  0.000000E+00
  7.261880E-01  4.692888E-02  5.000000E-01  7.335218E-01  4.734652E-02  0.000000E+00  1.098342E-02 -1.260074E-03 -3.252136E-19 -3.724197E-01  0.000000E+00
  7.086430E-01  4.888712E-02  5.000000E-01  7.157997E-01  4.932454E-02  0.000000E+00  1.087018E-02 -1.193583E-03  2.143275E-18 -3.700878E-01  0.000000E+00
  6.905640E-01  5.084148E-02  5.000000E-01  6.975381E-01  5.129864E-02  0.000000E+00  1.065603E-02 -1.155892E-03  3.726303E-18 -3.657605E-01  0.000000E+00
  6.719770E-01  5.286396E-02  5.000000E-01  6.787634E-01  5.334155E-02  0.000000E+00  1.041644E-02 -1.167091E-03  3.239812E-18 -3.690577E-01  0.000000E+00
  6.529150E-01  5.505879E-02  5.000000E-01  6.595088E-01  5.555854E-02  0.000000E+00  1.027056E-02 -1.226620E-03  1.446233E-18 -3.879063E-01  0.000000E+00
  6.334180E-01  5.747060E-02  5.000000E-01  6.398149E-01  5.799470E-02  0.000000E+00  1.034681E-02 -1.306879E-03 -3.487757E-20 -4.223180E-01  0.000000E+00
  6.135280E-01  6.003305E-02  5.000000E-01  6.197241E-01  6.058304E-02  0.000000E+00  1.071882E-02 -1.385755E-03 -1.190304E-18 -4.707323E-01  0.000000E+00
  5.932910E-01  6.265457E-02  5.000000E-01  5.992827E-01  6.323103E-02  0.000000E+00  1.138937E-02 -1.449816E-03  2.398598E-19 -5.306723E-01  0.000000E+00
  5.727570E-01  6.522388E-02  5.000000E-01  5.785413E-01  6.582628E-02  0.000000E+00  1.230130E-02 -1.472554E-03  1.304403E-18 -5.927362E-01  0.000000E+00
  5.519810E-01  6.761140E-02  5.000000E-01  5.575555E-01  6.823792E-02  0.000000E+00  1.333320E-02 -1.423845E-03  4.126609E-19 -6.442478E-01  0.000000E+00
  5.310180E-01  6.969632E-02  5.000000E-01  5.363808E-01  7.034389E-02  0.000000E+00  1.431247E-02 -1.314206E-03 -2.374173E-19 -6.824307E-01  0.000000E+00
  5.099250E-01  7.148079E-02  5.000000E-01  5.150748E-01  7.214638E-02  0.000000E+00  1.510484E-02 -1.185392E-03 -5.155705E-19 -7.138999E-01  0.000000E+00
  4.887640E-01  7.301644E-02  5.000000E-01  4.937001E-01  7.369755E-02  0.000000E+00  1.569347E-02 -1.053743E-03 -3.468629E-19 -7.424281E-01  0.000000E+00
  4.675910E-01  7.432739E-02  5.000000E-01  4.723132E-01  7.502173E-02  0.000000E+00  1.614241E-02 -9.141723E-04 -2.874657E-19 -7.689722E-01  0.000000E+00
  7.860720E-05 -5.842152E-04  5.000000E-01  7.940614E-05 -6.464107E-04  0.000000E+00 -6.903676E-03  2.709769E-02 -9.898785E-17  8.265551E-01  0.000000E+00
  3.989240E-04 -1.339708E-03  5.000000E-01  4.029579E-04 -1.409534E-03  0.000000E+00 -6.862342E-03  1.316556E-02 -8.523418E-17  1.061061E+00  0.000000E+00
  1.196920E-03 -2.268542E-03  5.000000E-01  1.209013E-03 -2.347748E-03  0.000000E+00 -2.037809E-03  2.673627E-03 -5.546607E-17  1.087752E+00  0.000000E+00
  2.563580E-03 -3.258650E-03  5.000000E-01  2.589475E-03 -3.347855E-03  0.000000E+00  3.713312E-03 -2.066601E-03 -2.855979E-17  9.749225E-01  0.000000E+00
  4.492740E-03 -4.257724E-03  5.000000E-01  4.538118E-03 -4.357018E-03  0.000000E+00  7.737068E-03 -3.506398E-03 -7.386862E-18  8.553367E-01  0.000000E+00
  6.952190E-03 -5.258902E-03  5.000000E-01  7.022406E-03 -5.368308E-03  0.000000E+00  1.009105E-02 -3.782558E-03  2.064127E-18  7.639604E-01  0.000000E+00
  9.910730E-03 -6.286091E-03  5.000000E-01  1.001082E-02 -6.405870E-03  0.000000E+00  1.150700E-02 -3.797873E-03  1.969693E-18  6.906343E-01  0.000000E+00
  1.334950E-02 -7.368155E-03  5.000000E-01  1.348432E-02 -7.498862E-03  0.000000E+00  1.246814E-02 -3.708031E-03 -8.886504E-19  6.178210E-01  0.000000E+00
  1.728780E-02 -8.477884E-03  5.000000E-01  1.746240E-02 -8.619798E-03  0.000000E+00  1.312933E-02 -3.424953E-03 -2.468056E-18  5.368627E-01  0.000000E+00
  2.175590E-02 -9.553966E-03  5.000000E-01  2.197562E-02 -9.706748E-03  0.000000E+00  1.351771E-02 -2.969351E-03 -2.467045E-18  4.592494E-01  0.000000E+00
  2.676920E-02 -1.054946E-02  5.000000E-01  2.703955E-02 -1.071229E-02  0.000000E+00  1.369520E-02 -2.469393E-03 -1.155368E-18  3.992959E-01  0.000000E+00
  3.232800E-02 -1.144956E-02  5.000000E-01  3.265449E-02 -1.162148E-02  0.000000E+00  1.375009E-02 -2.027205E-03 -3.477611E-19  3.592971E-01  0.000000E+00
  3.842930E-02 -1.226078E-02  5.000000E-01  3.881741E-02 -1.244090E-02  0.000000E+00  1.374535E-02 -1.678060E-03 -6.490806E-20  3.325312E-01  0.000000E+00
  4.507220E-02 -1.299962E-02  5.000000E-01  4.552739E-02 -1.318720E-02  0.000000E+00  1.372933E-02 -1.435431E-03  8.037386E-19  3.135486E-01  0.000000E+00
  5.225680E-02 -1.370221E-02  5.000000E-01  5.278455E-02 -1.389689E-02  0.000000E+00  1.375085E-02 -1.299169E-03  1.017274E-18  2.990876E-01  0.000000E+00
  5.998640E-02 -1.440741E-02  5.000000E-01  6.059221E-02 -1.460921E-02  0.000000E+00  1.382235E-02 -1.223140E-03  8.161750E-19  2.826858E-01  0.000000E+00
  6.827110E-02 -1.511919E-02  5.000000E-01  6.896058E-02 -1.532818E-02  0.000000E+00  1.391631E-02 -1.154433E-03  3.205344E-20  2.607864E-01  0.000000E+00
  7.712280E-02 -1.582740E-02  5.000000E-01  7.790167E-02 -1.604354E-02  0.000000E+00  1.400714E-02 -1.078608E-03 -4.879829E-19  2.368022E-01  0.000000E+00
  8.655260E-02 -1.652467E-02  5.000000E-01  8.742671E-02 -1.674785E-02  0.000000E+00  1.407912E-02 -9.939093E-04 -5.173379E-19  2.137758E-01  0.000000E+00
  9.657140E-02 -1.719870E-02  5.000000E-01  9.754669E-02 -1.742869E-02  0.000000E+00  1.411237E-02 -8.879190E-04 -2.615195E-19  1.912249E-01  0.000000E+00
  1.071900E-01 -1.782106E-02  5.000000E-01  1.082725E-01 -1.805733E-02  0.000000E+00  1.409538E-02 -7.576443E-04  6.011251E-19  1.695812E-01  0.000000E+00
  1.184180E-01 -1.836935E-02  5.000000E-01  1.196139E-01 -1.861116E-02  0.000000E+00  1.404517E-02 -6.237131E-04  5.788120E-19  1.516756E-01  0.000000E+00
  1.302610E-01 -1.884200E-02  5.000000E-01  1.315765E-01 -1.908859E-02  0.000000E+00  1.399116E-02 -5.057523E-04 -5.644158E-20  1.380297E-01  0.000000E+00
  1.427230E-01 -1.924531E-02  5.000000E-01  1.441644E-01 -1.949597E-02  0.000000E+00  1.394858E-02 -4.082257E-04 -2.528976E-19  1.265177E-01  0.000000E+00
  1.427230E-01 -1.924531E-02  5.000000E-01  1.441644E-01 -1.949597E-02  0.000000E+00  1.394858E-02 -4.082257E-04 -2.528976E-19  1.265177E-01  0.000000E+00
  1.558070E-01 -1.958793E-02  5.000000E-01  1.573805E-01 -1.984205E-02  0.000000E+00  1.390523E-02 -3.196337E-04 -1.893479E-19  1.146276E-01  0.000000E+00
  1.695140E-01 -1.985972E-02  5.000000E-01  1.712259E-01 -2.011658E-02  0.000000E+00  1.382670E-02 -2.196708E-04  2.320348E-19  1.011938E-01  0.000000E+00
  1.838420E-01 -2.003080E-02  5.000000E-01  1.856986E-01 -2.028939E-02  0.000000E+00  1.368008E-02 -9.629680E-05 -2.329784E-19  8.782448E-02  0.000000E+00
  1.987870E-01 -2.006178E-02  5.000000E-01  2.007946E-01 -2.032068E-02  0.000000E+00  1.345478E-02  4.743269E-05 -3.823022E-19  7.731061E-02  0.000000E+00
  2.143420E-01 -1.991769E-02  5.000000E-01  2.165067E-01 -2.017514E-02  0.000000E+00  1.317419E-02  1.894982E-04 -1.707802E-19  7.243514E-02  0.000000E+00
  2.304940E-01 -1.959955E-02  5.000000E-01  2.328218E-01 -1.985378E-02  0.000000E+00  1.288656E-02  3.001432E-04 -2.197009E-19  7.433947E-02  0.000000E+00
  2.472290E-01 -1.914750E-02  5.000000E-01  2.497258E-01 -1.939716E-02  0.000000E+00  1.263245E-02  3.689144E-04 -1.996861E-19  8.024806E-02  0.000000E+00
  2.645310E-01 -1.860446E-02  5.000000E-01  2.672025E-01 -1.884864E-02  0.000000E+00  1.242015E-02  4.143761E-04 -4.714659E-19  8.493320E-02  0.000000E+00
  2.823750E-01 -1.797508E-02  5.000000E-01  2.852267E-01 -1.821290E-02  0.000000E+00  1.223511E-02  4.623621E-04 -5.240434E-20  8.569839E-02  0.000000E+00
  3.007320E-01 -1.723498E-02  5.000000E-01  3.037691E-01 -1.746533E-02  0.000000E+00  1.206650E-02  5.194586E-04 -9.499310E-20  8.483910E-02  0.000000E+00
  3.195690E-01 -1.637072E-02  5.000000E-01  3.227964E-01 -1.659235E-02  0.000000E+00  1.191270E-02  5.755499E-04  7.046677E-19  8.590366E-02  0.000000E+00
  3.388440E-01 -1.539101E-02  5.000000E-01  3.422660E-01 -1.560274E-02  0.000000E+00  1.176154E-02  6.252119E-04  1.704036E-18  8.923601E-02  0.000000E+00
  3.585140E-01 -1.429979E-02  5.000000E-01  3.621347E-01 -1.450050E-02  0.000000E+00  1.157538E-02  6.757869E-04  9.017096E-19  9.259800E-02  0.000000E+00
  3.785290E-01 -1.307330E-02  5.000000E-01  3.823518E-01 -1.326163E-02  0.000000E+00  1.130500E-02  7.328209E-04 -6.945899E-19  9.574529E-02  0.000000E+00
  3.988350E-01 -1.168264E-02  5.000000E-01  4.028629E-01 -1.185692E-02  0.000000E+00  1.091595E-02  7.932571E-04 -1.006128E-18  1.014054E-01  0.000000E+00
  4.193750E-01 -1.010014E-02  5.000000E-01  4.236103E-01 -1.025843E-02  0.000000E+00  1.040455E-02  8.557091E-04  5.336554E-19  1.114363E-01  0.000000E+00
  4.400850E-01 -8.284154E-03  5.000000E-01  4.445295E-01 -8.424112E-03  0.000000E+00  9.814340E-03  9.116044E-04  9.486236E-19  1.269304E-01  0.000000E+00
  4.609060E-01 -6.233206E-03  5.000000E-01  4.655607E-01 -6.352451E-03  0.000000E+00  9.246794E-03  9.285101E-04  5.667790E-19  1.510046E-01  0.000000E+00
  4.818030E-01 -4.087674E-03  5.000000E-01  4.866688E-01 -4.185252E-03  0.000000E+00  8.819108E-03  8.777075E-04 -9.001356E-19  1.830826E-01  0.000000E+00
  5.027520E-01 -2.070484E-03  5.000000E-01  5.078293E-01 -2.147689E-03  0.000000E+00  8.587478E-03  7.736413E-04 -1.448956E-18  2.131673E-01  0.000000E+00
  5.237130E-01 -3.200403E-04  5.000000E-01  5.290020E-01 -3.795678E-04  0.000000E+00  8.518812E-03  6.644507E-04  4.810257E-20  2.298008E-01  0.000000E+00
  5.446170E-01  1.189681E-03  5.000000E-01  5.501171E-01  1.145401E-03  0.000000E+00  8.534388E-03  5.875799E-04  3.981978E-19  2.321937E-01  0.000000E+00
  5.653940E-01  2.551624E-03  5.000000E-01  5.711040E-01  2.521098E-03  0.000000E+00  8.564387E-03  5.467855E-04 -3.861717E-19  2.293950E-01  0.000000E+00
  4.675910E-01  7.432739E-02  5.000000E-01  4.723132E-01  7.502173E-02  0.000000E+00  1.614241E-02 -9.141723E-04 -2.874657E-19 -7.689722E-01  0.000000E+00
  4.464640E-01  7.541460E-02  5.000000E-01  4.509729E-01  7.611992E-02  0.000000E+00  1.653001E-02 -7.700435E-04 -1.889939E-19 -7.963195E-01  0.000000E+00
  4.254410E-01  7.629269E-02  5.000000E-01  4.297376E-01  7.700689E-02  0.000000E+00  1.692718E-02 -6.218949E-04 -4.508111E-20 -8.265858E-01  0.000000E+00
  4.045840E-01  7.695627E-02  5.000000E-01  4.086699E-01  7.767716E-02  0.000000E+00  1.738370E-02 -4.579396E-04  4.617133E-20 -8.591534E-01  0.000000E+00
  3.839530E-01  7.738963E-02  5.000000E-01  3.878306E-01  7.811489E-02  0.000000E+00  1.791243E-02 -2.682644E-04  1.988405E-21 -8.925640E-01  0.000000E+00
  3.636060E-01  7.757530E-02  5.000000E-01  3.672781E-01  7.830244E-02  0.000000E+00  1.849745E-02 -4.685760E-05  1.390368E-21 -9.244594E-01  0.000000E+00
  3.435960E-01  7.749889E-02  5.000000E-01  3.470660E-01  7.822526E-02  0.000000E+00  1.910558E-02  2.088770E-04  2.750772E-20 -9.521935E-01  0.000000E+00
  3.239710E-01  7.714974E-02  5.000000E-01  3.272428E-01  7.787258E-02  0.000000E+00  1.969460E-02  4.916952E-04 -2.394587E-19 -9.752159E-01  0.000000E+00
  3.047740E-01  7.653619E-02  5.000000E-01  3.078519E-01  7.725284E-02  0.000000E+00  2.023218E-02  7.864643E-04 -2.455218E-19 -9.954413E-01  0.000000E+00
  2.860450E-01  7.568154E-02  5.000000E-01  2.889338E-01  7.638955E-02  0.000000E+00  2.071888E-02  1.091690E-03  1.181848E-19 -1.013568E+00  0.000000E+00
  2.678190E-01  7.459563E-02  5.000000E-01  2.705237E-01  7.529268E-02  0.000000E+00  2.117224E-02  1.414674E-03  1.018365E-19 -1.029221E+00  0.000000E+00
  2.501300E-01  7.328819E-02  5.000000E-01  2.526561E-01  7.397204E-02  0.000000E+00  2.160290E-02  1.755364E-03 -3.390616E-19 -1.043104E+00  0.000000E+00
  2.330040E-01  7.177282E-02  5.000000E-01  2.353571E-01  7.244136E-02  0.000000E+00  2.201697E-02  2.112504E-03 -2.282167E-19 -1.055776E+00  0.000000E+00
  2.164660E-01  7.006423E-02  5.000000E-01  2.186521E-01  7.071552E-02  0.000000E+00  2.242067E-02  2.487462E-03  1.583901E-19 -1.066285E+00  0.000000E+00
  2.005340E-01  6.817760E-02  5.000000E-01  2.025592E-01  6.880984E-02  0.000000E+00  2.282225E-02  2.888739E-03  3.490780E-19 -1.071455E+00  0.000000E+00
  1.852230E-01  6.611832E-02  5.000000E-01  1.870936E-01  6.672976E-02  0.000000E+00  2.321653E-02  3.316853E-03  1.106136E-19 -1.070023E+00  0.000000E+00
  1.705440E-01  6.390108E-02  5.000000E-01  1.722663E-01  6.449013E-02  0.000000E+00  2.358536E-02  3.752623E-03  1.370318E-19 -1.067549E+00  0.000000E+00
  1.565000E-01  6.155368E-02  5.000000E-01  1.580805E-01  6.211902E-02  0.000000E+00  2.393800E-02  4.184691E-03 -4.328477E-19 -1.073464E+00  0.000000E+00
  1.430940E-01  5.910590E-02  5.000000E-01  1.445391E-01  5.964652E-02  0.000000E+00  2.433998E-02  4.648609E-03 -1.305621E-18 -1.090831E+00  0.000000E+00
  1.303270E-01  5.656120E-02  5.000000E-01  1.316432E-01  5.707612E-02  0.000000E+00  2.487302E-02  5.233973E-03 -2.170756E-19 -1.107563E+00  0.000000E+00
  1.182110E-01  5.388180E-02  5.000000E-01  1.194048E-01  5.436967E-02  0.000000E+00  2.551492E-02  5.989197E-03 -1.213289E-18 -1.105075E+00  0.000000E+00
  1.067560E-01  5.104477E-02  5.000000E-01  1.078341E-01  5.150398E-02  0.000000E+00  2.609639E-02  6.858573E-03 -1.970728E-18 -1.072598E+00  0.000000E+00
  9.596750E-02  4.805082E-02  5.000000E-01  9.693669E-02  4.847979E-02  0.000000E+00  2.638735E-02  7.665591E-03  2.273733E-18 -1.020215E+00  0.000000E+00
  8.582800E-02  4.497139E-02  5.000000E-01  8.669479E-02  4.536926E-02  0.000000E+00  2.629969E-02  8.252428E-03  3.184679E-18 -9.702923E-01  0.000000E+00
  8.582800E-02  4.497139E-02  5.000000E-01  8.669479E-02  4.536926E-02  0.000000E+00  2.629969E-02  8.252428E-03  3.184679E-18 -9.702923E-01  0.000000E+00
  7.631050E-02  4.188628E-02  5.000000E-01  7.708117E-02  4.225300E-02  0.000000E+00  2.599575E-02  8.706489E-03 -2.827243E-19 -9.275937E-01  0.000000E+00
  6.740780E-02  3.880820E-02  5.000000E-01  6.808856E-02  3.914383E-02  0.000000E+00  2.567494E-02  9.193888E-03 -2.371685E-19 -8.836656E-01  0.000000E+00
  5.911740E-02  3.573667E-02  5.000000E-01  5.971444E-02  3.604128E-02  0.000000E+00  2.539955E-02  9.744427E-03  2.407681E-18 -8.349457E-01  0.000000E+00
  5.143150E-02  3.268624E-02  5.000000E-01  5.195092E-02  3.296005E-02  0.000000E+00  2.513989E-02  1.031651E-02  1.689618E-18 -7.822783E-01  0.000000E+00
  4.433770E-02  2.967879E-02  5.000000E-01  4.478548E-02  2.992222E-02  0.000000E+00  2.484726E-02  1.087678E-02  9.335165E-19 -7.287308E-01  0.000000E+00
  3.782240E-02  2.673566E-02  5.000000E-01  3.820438E-02  2.694937E-02  0.000000E+00  2.449481E-02  1.142417E-02  8.373992E-19 -6.785520E-01  0.000000E+00
  3.187460E-02  2.387204E-02  5.000000E-01  3.219651E-02  2.405683E-02  0.000000E+00  2.409234E-02  1.198612E-02 -2.939030E-18 -6.346632E-01  0.000000E+00
  2.648400E-02  2.110117E-02  5.000000E-01  2.675147E-02  2.125797E-02  0.000000E+00  2.367198E-02  1.263856E-02 -5.806175E-18 -5.895319E-01  0.000000E+00
  2.164990E-02  1.842394E-02  5.000000E-01  2.186855E-02  1.855371E-02  0.000000E+00  2.319816E-02  1.343901E-02 -7.460793E-18 -5.237405E-01  0.000000E+00
  1.737670E-02  1.583959E-02  5.000000E-01  1.755219E-02  1.594326E-02  0.000000E+00  2.251046E-02  1.421105E-02 -1.243862E-17 -4.315525E-01  0.000000E+00
  1.364080E-02  1.337851E-02  5.000000E-01  1.377856E-02  1.345733E-02  0.000000E+00  2.149166E-02  1.462815E-02 -1.974601E-17 -3.356699E-01  0.000000E+00
  1.039090E-02  1.108946E-02  5.000000E-01  1.049584E-02  1.114515E-02  0.000000E+00  2.025103E-02  1.465319E-02 -2.563173E-17 -2.630491E-01  0.000000E+00
  7.586340E-03  9.001500E-03  5.000000E-01  7.662960E-03  9.036111E-03  0.000000E+00  1.905443E-02  1.471594E-02 -3.030074E-17 -2.165375E-01  0.000000E+00
  5.226210E-03  7.109460E-03  5.000000E-01  5.278995E-03  7.124964E-03  0.000000E+00  1.813875E-02  1.539396E-02 -3.915088E-17 -1.818319E-01  0.000000E+00
  3.324300E-03  5.401909E-03  5.000000E-01  3.357877E-03  5.400168E-03  0.000000E+00  1.760240E-02  1.716798E-02 -6.438799E-17 -1.458624E-01  0.000000E+00
  1.883580E-03  3.882713E-03  5.000000E-01  1.902608E-03  3.865630E-03  0.000000E+00  1.721429E-02  2.050158E-02 -1.126656E-16 -8.626384E-02  0.000000E+00
  8.951490E-04  2.568999E-03  5.000000E-01  9.041943E-04  2.538648E-03  0.000000E+00  1.604481E-02  2.545898E-02 -1.761286E-16  3.222550E-02  0.000000E+00
  3.201820E-04  1.493765E-03  5.000000E-01  3.234206E-04  1.452555E-03  0.000000E+00  1.275532E-02  3.060828E-02 -2.332054E-16  2.237372E-01  0.000000E+00
  6.852390E-05  6.984734E-04  5.000000E-01  6.922101E-05  6.492320E-04  0.000000E+00  7.486932E-03  3.305689E-02 -2.568967E-16  4.219165E-01  0.000000E+00
  4.217600E-06  2.162950E-04  5.000000E-01  4.265277E-06  1.621840E-04  0.000000E+00  2.673657E-03  3.267225E-02 -2.266738E-16  4.918268E-01  0.000000E+00
 -5.032520E-09  5.573255E-05  5.000000E-01  0.000000E+00  0.000000E+00  0.000000E+00 -3.665975E-04  3.509965E-02 -1.558756E-16  4.621431E-01  0.000000E+00
  5.154440E-06 -1.056250E-04  5.000000E-01  5.211578E-06 -1.629872E-04  0.000000E+00 -3.434874E-03  3.607213E-02 -1.063634E-16  5.558616E-01  0.000000E+00