 Title = "ADflow Slice Data"
Variables =  "CoordinateX"  "CoordinateY"  "CoordinateZ"  "XoC"  "YoC"  "ZoC" "VelocityX" "VelocityY" "VelocityZ" "CoefPressure" "Mach" 
Zone T= "Slice_0001 None Absolute Regular z = 0.50000000"
 Nodes =          192  Elements=          184  ZONETYPE=FELINESEG
 DATAPACKING=POINT
  5.653940E-01  2.386807E-03  5.000000E-01  5.711040E-01  2.356088E-03  0.000000E+00  8.084634E-03  6.800730E-04 -4.323233E-19  2.324758E-01  0.000000E+00
  5.859770E-01  4.113217E-03  5.000000E-01  5.918948E-01  4.099933E-03  0.000000E+00  7.856983E-03  6.535809E-04 -8.898256E-21  2.430459E-01  0.000000E+00
  6.063060E-01  5.790489E-03  5.000000E-01  6.124292E-01  5.794144E-03  0.000000E+00  7.637991E-03  6.169916E-04  9.078572E-19  2.576813E-01  0.000000E+00
  6.263240E-01  7.371510E-03  5.000000E-01  6.326493E-01  7.391132E-03  0.000000E+00  7.458659E-03  5.625699E-04  1.210445E-18  2.733248E-01  0.000000E+00
  6.459860E-01  8.783192E-03  5.000000E-01  6.525099E-01  8.817071E-03  0.000000E+00  7.341147E-03  4.895800E-04  6.773578E-19  2.876399E-01  0.000000E+00
  6.652460E-01  9.967597E-03  5.000000E-01  6.719644E-01  1.001344E-02  0.000000E+00  7.285189E-03  4.082908E-04 -1.207603E-19  2.981846E-01  0.000000E+00
  6.840650E-01  1.091725E-02  5.000000E-01  6.909735E-01  1.097269E-02  0.000000E+00  7.267302E-03  3.349442E-04  1.169437E-20  3.033399E-01  0.000000E+00
  7.024070E-01  1.168128E-02  5.000000E-01  7.095007E-01  1.174443E-02  0.000000E+00  7.258840E-03  2.765461E-04  3.524690E-19  3.048711E-01  0.000000E+00
  7.202400E-01  1.229844E-02  5.000000E-01  7.275138E-01  1.236782E-02  0.000000E+00  7.243713E-03  2.276409E-04  2.810681E-20  3.063288E-01  0.000000E+00
  7.375350E-01  1.278772E-02  5.000000E-01  7.449834E-01  1.286204E-02  0.000000E+00  7.219741E-03  1.815439E-04 -4.505414E-19  3.090050E-01  0.000000E+00
  7.542690E-01  1.315584E-02  5.000000E-01  7.618864E-01  1.323387E-02  0.000000E+00  7.195198E-03  1.337550E-04 -9.324648E-19  3.124220E-01  0.000000E+00
  7.704220E-01  1.340062E-02  5.000000E-01  7.782026E-01  1.348113E-02  0.000000E+00  7.185233E-03  8.111442E-05 -6.873740E-19  3.157252E-01  0.000000E+00
  7.859770E-01  1.351600E-02  5.000000E-01  7.939147E-01  1.359768E-02  0.000000E+00  7.208425E-03  1.917548E-05  8.196039E-20  3.184683E-01  0.000000E+00
  8.009220E-01  1.348574E-02  5.000000E-01  8.090106E-01  1.356711E-02  0.000000E+00  7.281236E-03 -5.591589E-05  7.000292E-20  3.203582E-01  0.000000E+00
  8.152480E-01  1.329555E-02  5.000000E-01  8.234813E-01  1.337500E-02  0.000000E+00  7.406985E-03 -1.386214E-04 -8.118100E-20  3.197419E-01  0.000000E+00
  8.289490E-01  1.296498E-02  5.000000E-01  8.373206E-01  1.304109E-02  0.000000E+00  7.572929E-03 -2.182415E-04  1.144755E-19  3.154247E-01  0.000000E+00
  8.420260E-01  1.252806E-02  5.000000E-01  8.505297E-01  1.259976E-02  0.000000E+00  7.759871E-03 -2.894916E-04 -4.340134E-20  3.086336E-01  0.000000E+00
  8.544790E-01  1.201649E-02  5.000000E-01  8.631085E-01  1.208302E-02  0.000000E+00  7.948797E-03 -3.509258E-04  9.967431E-20  3.009624E-01  0.000000E+00
  8.663160E-01  1.145854E-02  5.000000E-01  8.750650E-01  1.151944E-02  0.000000E+00  8.122194E-03 -4.016763E-04  9.303546E-20  2.931988E-01  0.000000E+00
  8.775420E-01  1.087788E-02  5.000000E-01  8.864044E-01  1.093291E-02  0.000000E+00  8.265615E-03 -4.409122E-04  2.013060E-20  2.857864E-01  0.000000E+00
  8.881660E-01  1.029415E-02  5.000000E-01  8.971357E-01  1.034328E-02  0.000000E+00  8.370198E-03 -4.683967E-04  2.444816E-19  2.790553E-01  0.000000E+00
  8.981970E-01  9.722655E-03  5.000000E-01  9.072680E-01  9.766022E-03  0.000000E+00  8.436323E-03 -4.881153E-04 -2.204751E-19  2.735267E-01  0.000000E+00
  9.076460E-01  9.167971E-03  5.000000E-01  9.168124E-01  9.205735E-03  0.000000E+00  8.476458E-03 -5.096248E-04 -3.775652E-19  2.699079E-01  0.000000E+00
  9.165220E-01  8.622035E-03  5.000000E-01  9.257781E-01  8.654287E-03  0.000000E+00  8.509488E-03 -5.400302E-04 -1.632978E-19  2.677758E-01  0.000000E+00
  9.165220E-01  8.622035E-03  5.000000E-01  9.257781E-01  8.654287E-03  0.000000E+00  8.509488E-03 -5.400302E-04 -1.632978E-19  2.677758E-01  0.000000E+00
  9.248360E-01  8.078004E-03  5.000000E-01  9.341760E-01  8.104761E-03  0.000000E+00  8.551036E-03 -5.799227E-04 -1.729438E-19  2.657481E-01  0.000000E+00
  9.325990E-01  7.532940E-03  5.000000E-01  9.420174E-01  7.554193E-03  0.000000E+00  8.611074E-03 -6.281770E-04 -3.932447E-19  2.630861E-01  0.000000E+00
  9.398210E-01  6.986464E-03  5.000000E-01  9.493124E-01  7.002197E-03  0.000000E+00  8.695963E-03 -6.839801E-04 -4.086658E-19  2.596630E-01  0.000000E+00
  9.465130E-01  6.440335E-03  5.000000E-01  9.560719E-01  6.450553E-03  0.000000E+00  8.809553E-03 -7.466255E-04 -2.136015E-19  2.554085E-01  0.000000E+00
  9.526870E-01  5.897931E-03  5.000000E-01  9.623083E-01  5.902672E-03  0.000000E+00  8.953435E-03 -8.154839E-04 -1.236722E-19  2.502296E-01  0.000000E+00
  9.583540E-01  5.363790E-03  5.000000E-01  9.680325E-01  5.363136E-03  0.000000E+00  9.127525E-03 -8.899434E-04 -2.050354E-19  2.440769E-01  0.000000E+00
  9.635240E-01  4.843241E-03  5.000000E-01  9.732547E-01  4.837330E-03  0.000000E+00  9.330954E-03 -9.692352E-04  1.039445E-21  2.369211E-01  0.000000E+00
  9.682080E-01  4.342098E-03  5.000000E-01  9.779860E-01  4.331126E-03  0.000000E+00  9.563934E-03 -1.052910E-03  2.956053E-20  2.288084E-01  0.000000E+00
  9.724140E-01  3.866336E-03  5.000000E-01  9.822345E-01  3.850559E-03  0.000000E+00  9.830148E-03 -1.140849E-03 -1.380730E-19  2.198245E-01  0.000000E+00
  9.761510E-01  3.421938E-03  5.000000E-01  9.860093E-01  3.401673E-03  0.000000E+00  1.013679E-02 -1.232843E-03 -3.952408E-19  2.100110E-01  0.000000E+00
  9.794290E-01  3.014652E-03  5.000000E-01  9.893204E-01  2.990274E-03  0.000000E+00  1.048785E-02 -1.328946E-03 -7.829866E-19  1.994487E-01  0.000000E+00
  9.822540E-01  2.649856E-03  5.000000E-01  9.921739E-01  2.621794E-03  0.000000E+00  1.086686E-02 -1.427544E-03 -2.603151E-19  1.884312E-01  0.000000E+00
  9.846330E-01  2.332428E-03  5.000000E-01  9.945769E-01  2.301160E-03  0.000000E+00  1.121998E-02 -1.519301E-03  1.627972E-18  1.782155E-01  0.000000E+00
  9.865710E-01  2.066634E-03  5.000000E-01  9.965345E-01  2.032682E-03  0.000000E+00  1.142071E-02 -1.574922E-03  3.034270E-18  1.677344E-01  0.000000E+00
  9.880740E-01  1.856084E-03  5.000000E-01  9.980527E-01  1.820005E-03  0.000000E+00  1.126334E-02 -1.593110E-03 -2.093875E-18  1.507020E-01  0.000000E+00
  9.891450E-01  1.703614E-03  5.000000E-01  9.991345E-01  1.665995E-03  0.000000E+00  1.140963E-02 -1.713211E-03 -2.550718E-17  1.530223E-01  0.000000E+00
  9.897860E-01  1.611292E-03  5.000000E-01  9.997820E-01  1.572741E-03  0.000000E+00  1.467361E-02 -1.654572E-03 -7.274954E-17  2.014062E-01  0.000000E+00
  9.900000E-01  1.580389E-03  5.000000E-01  9.999981E-01  1.541526E-03  0.000000E+00  1.024779E-02 -4.106404E-03 -7.718599E-17 -3.239014E-02  0.000000E+00
  9.900000E-01  1.659099E-03  5.000000E-01  9.999981E-01  1.621031E-03  0.000000E+00  1.024913E-03 -1.447797E-02  5.131638E-18 -1.645848E-01  0.000000E+00
  9.900000E-01  1.737819E-03  5.000000E-01  9.999981E-01  1.700546E-03  0.000000E+00 -5.141711E-04 -1.373092E-02  8.560202E-17  7.036422E-03  0.000000E+00
  9.900000E-01  1.816539E-03  5.000000E-01  9.999981E-01  1.780061E-03  0.000000E+00 -2.907752E-04  2.127675E-03  1.035309E-16  2.746042E-03  0.000000E+00
  9.900000E-01  1.895249E-03  5.000000E-01  9.999981E-01  1.859566E-03  0.000000E+00  6.917324E-04  3.595357E-03  1.312772E-16 -1.113889E-01  0.000000E+00
  9.900000E-01  1.973969E-03  5.000000E-01  9.999981E-01  1.939081E-03  0.000000E+00  5.662043E-03 -2.456978E-03  1.675066E-16 -1.904236E-02  0.000000E+00
  9.900000E-01  1.973969E-03  5.000000E-01  9.999981E-01  1.939081E-03  0.000000E+00  5.662043E-03 -2.456978E-03  1.675066E-16 -1.904236E-02  0.000000E+00
  9.897900E-01  2.014852E-03  5.000000E-01  9.997860E-01  1.980376E-03  0.000000E+00  7.324759E-03 -1.750851E-03  1.202510E-16  1.194522E-01  0.000000E+00
  9.891580E-01  2.137587E-03  5.000000E-01  9.991476E-01  2.104351E-03  0.000000E+00  4.490333E-03 -8.135232E-04  4.075907E-17  7.823653E-02  0.000000E+00
  9.881040E-01  2.342523E-03  5.000000E-01  9.980830E-01  2.311357E-03  0.000000E+00  3.748418E-03 -7.273604E-04  4.149027E-18  6.936421E-02  0.000000E+00
  9.866260E-01  2.630198E-03  5.000000E-01  9.965900E-01  2.601937E-03  0.000000E+00  3.536702E-03 -6.944784E-04 -3.832421E-18  7.278208E-02  0.000000E+00
  9.847200E-01  3.001333E-03  5.000000E-01  9.946648E-01  2.976820E-03  0.000000E+00  3.401710E-03 -6.621962E-04 -2.676196E-18  6.961153E-02  0.000000E+00
  9.823820E-01  3.456830E-03  5.000000E-01  9.923032E-01  3.436917E-03  0.000000E+00  3.377726E-03 -6.577403E-04 -8.214400E-19  6.388230E-02  0.000000E+00
  9.796080E-01  3.997729E-03  5.000000E-01  9.895012E-01  3.983279E-03  0.000000E+00  3.450848E-03 -6.730143E-04 -3.004044E-19  5.763165E-02  0.000000E+00
  9.763910E-01  4.625157E-03  5.000000E-01  9.862517E-01  4.617043E-03  0.000000E+00  3.584461E-03 -6.994109E-04 -5.604237E-19  5.033724E-02  0.000000E+00
  9.727270E-01  5.340266E-03  5.000000E-01  9.825507E-01  5.339374E-03  0.000000E+00  3.754141E-03 -7.326063E-04 -2.962946E-19  4.181099E-02  0.000000E+00
  9.686070E-01  6.144216E-03  5.000000E-01  9.783891E-01  6.151444E-03  0.000000E+00  3.945828E-03 -7.697463E-04 -1.528529E-19  3.218960E-02  0.000000E+00
  9.640240E-01  7.038046E-03  5.000000E-01  9.737598E-01  7.054301E-03  0.000000E+00  4.152627E-03 -8.092499E-04 -3.641393E-19  2.152302E-02  0.000000E+00
  9.589680E-01  8.022613E-03  5.000000E-01  9.686527E-01  8.048811E-03  0.000000E+00  4.372992E-03 -8.506251E-04 -6.468281E-20  9.819963E-03  0.000000E+00
  9.534310E-01  9.098497E-03  5.000000E-01  9.630598E-01  9.135560E-03  0.000000E+00  4.608125E-03 -8.938458E-04 -1.117269E-21 -2.927723E-03  0.000000E+00
  9.474030E-01  1.026586E-02  5.000000E-01  9.569709E-01  1.031472E-02  0.000000E+00  4.859654E-03 -9.386844E-04  7.591329E-19 -1.664761E-02  0.000000E+00
  9.408720E-01  1.152430E-02  5.000000E-01  9.503740E-01  1.158586E-02  0.000000E+00  5.128273E-03 -9.848487E-04  7.591352E-19 -3.132474E-02  0.000000E+00
  9.338280E-01  1.287271E-02  5.000000E-01  9.432588E-01  1.294789E-02  0.000000E+00  5.413861E-03 -1.031860E-03  7.882131E-20 -4.694782E-02  0.000000E+00
  9.262600E-01  1.430919E-02  5.000000E-01  9.356144E-01  1.439888E-02  0.000000E+00  5.715300E-03 -1.078657E-03 -6.685532E-20 -6.342548E-02  0.000000E+00
  9.181550E-01  1.583049E-02  5.000000E-01  9.274275E-01  1.593554E-02  0.000000E+00  6.030075E-03 -1.123895E-03 -6.777899E-19 -8.069953E-02  0.000000E+00
  9.095020E-01  1.743228E-02  5.000000E-01  9.186872E-01  1.755351E-02  0.000000E+00  6.354131E-03 -1.165779E-03 -8.224419E-19 -9.852798E-02  0.000000E+00
  9.002880E-01  1.910839E-02  5.000000E-01  9.093801E-01  1.924654E-02  0.000000E+00  6.680721E-03 -1.202143E-03 -1.684004E-18 -1.163583E-01  0.000000E+00
  8.905020E-01  2.085113E-02  5.000000E-01  8.994953E-01  2.100688E-02  0.000000E+00  7.000185E-03 -1.231937E-03 -1.639389E-18 -1.337831E-01  0.000000E+00
  8.801320E-01  2.265530E-02  5.000000E-01  8.890206E-01  2.282928E-02  0.000000E+00  7.303030E-03 -1.255855E-03  4.562790E-19 -1.507930E-01  0.000000E+00
  8.691700E-01  2.451905E-02  5.000000E-01  8.779478E-01  2.471185E-02  0.000000E+00  7.583399E-03 -1.274869E-03  1.699519E-18 -1.674488E-01  0.000000E+00
  8.691700E-01  2.451905E-02  5.000000E-01  8.779478E-01  2.471185E-02  0.000000E+00  7.583399E-03 -1.274869E-03  1.699519E-18 -1.674488E-01  0.000000E+00
  8.576080E-01  2.644151E-02  5.000000E-01  8.662691E-01  2.665373E-02  0.000000E+00  7.839592E-03 -1.289605E-03  1.995749E-18 -1.837054E-01  0.000000E+00
  8.454380E-01  2.842255E-02  5.000000E-01  8.539762E-01  2.865477E-02  0.000000E+00  8.073080E-03 -1.301369E-03  1.760685E-18 -1.996059E-01  0.000000E+00
  8.326580E-01  3.046318E-02  5.000000E-01  8.410671E-01  3.071601E-02  0.000000E+00  8.288378E-03 -1.312032E-03  2.575862E-19 -2.153310E-01  0.000000E+00
  8.192630E-01  3.256572E-02  5.000000E-01  8.275368E-01  3.283978E-02  0.000000E+00  8.492928E-03 -1.323991E-03 -4.035674E-19 -2.315194E-01  0.000000E+00
  8.052550E-01  3.473449E-02  5.000000E-01  8.133874E-01  3.503045E-02  0.000000E+00  8.697529E-03 -1.339149E-03  4.802677E-20 -2.491223E-01  0.000000E+00
  7.906370E-01  3.697266E-02  5.000000E-01  7.986217E-01  3.729123E-02  0.000000E+00  8.914685E-03 -1.356232E-03  7.359392E-19 -2.684421E-01  0.000000E+00
  7.754120E-01  3.927437E-02  5.000000E-01  7.832430E-01  3.961618E-02  0.000000E+00  9.152244E-03 -1.371866E-03  1.231992E-18 -2.891373E-01  0.000000E+00
  7.595880E-01  4.162640E-02  5.000000E-01  7.672592E-01  4.199197E-02  0.000000E+00  9.409057E-03 -1.383585E-03  1.752717E-18 -3.108722E-01  0.000000E+00
  7.431760E-01  4.401416E-02  5.000000E-01  7.506814E-01  4.440384E-02  0.000000E+00  9.676879E-03 -1.390059E-03  2.197532E-18 -3.332336E-01  0.000000E+00
  7.261880E-01  4.642389E-02  5.000000E-01  7.335219E-01  4.683791E-02  0.000000E+00  9.944686E-03 -1.390863E-03  1.337865E-18 -3.554279E-01  0.000000E+00
  7.086430E-01  4.884427E-02  5.000000E-01  7.157997E-01  4.928273E-02  0.000000E+00  1.020344E-02 -1.387396E-03  9.711278E-19 -3.765338E-01  0.000000E+00
  6.905640E-01  5.126887E-02  5.000000E-01  6.975381E-01  5.173181E-02  0.000000E+00  1.045155E-02 -1.384760E-03  8.610143E-19 -3.968972E-01  0.000000E+00
  6.719770E-01  5.370233E-02  5.000000E-01  6.787634E-01  5.418986E-02  0.000000E+00  1.070256E-02 -1.392765E-03  4.428271E-19 -4.196435E-01  0.000000E+00
  6.529150E-01  5.616706E-02  5.000000E-01  6.595089E-01  5.667948E-02  0.000000E+00  1.099409E-02 -1.416362E-03  1.419154E-19 -4.484287E-01  0.000000E+00
  6.334180E-01  5.866942E-02  5.000000E-01  6.398150E-01  5.920711E-02  0.000000E+00  1.137907E-02 -1.446766E-03 -1.014256E-18 -4.844895E-01  0.000000E+00
  6.135280E-01  6.117445E-02  5.000000E-01  6.197241E-01  6.173743E-02  0.000000E+00  1.189704E-02 -1.471339E-03  1.849122E-19 -5.281459E-01  0.000000E+00
  5.932910E-01  6.363130E-02  5.000000E-01  5.992827E-01  6.421909E-02  0.000000E+00  1.255929E-02 -1.477587E-03  1.487460E-18 -5.780986E-01  0.000000E+00
  5.727570E-01  6.597332E-02  5.000000E-01  5.785413E-01  6.658477E-02  0.000000E+00  1.334481E-02 -1.446774E-03  9.265403E-19 -6.283439E-01  0.000000E+00
  5.519810E-01  6.811837E-02  5.000000E-01  5.575555E-01  6.875148E-02  0.000000E+00  1.419159E-02 -1.360831E-03  9.259302E-19 -6.707219E-01  0.000000E+00
  5.310180E-01  6.998581E-02  5.000000E-01  5.363808E-01  7.063778E-02  0.000000E+00  1.499920E-02 -1.230183E-03  1.362157E-18 -7.040039E-01  0.000000E+00
  5.099250E-01  7.157274E-02  5.000000E-01  5.150748E-01  7.224074E-02  0.000000E+00  1.568430E-02 -1.084760E-03  9.612323E-19 -7.335566E-01  0.000000E+00
  4.887640E-01  7.291094E-02  5.000000E-01  4.937001E-01  7.359245E-02  0.000000E+00  1.623482E-02 -9.311163E-04 -2.228966E-19 -7.613364E-01  0.000000E+00
  4.675910E-01  7.400456E-02  5.000000E-01  4.723133E-01  7.469711E-02  0.000000E+00  1.668086E-02 -7.573430E-04  2.730802E-19 -7.847660E-01  0.000000E+00
  7.860720E-05 -6.089996E-04  5.000000E-01  7.940615E-05 -6.699734E-04  0.000000E+00 -7.196864E-03  2.891190E-02  4.062740E-17  7.782530E-01  0.000000E+00
  3.989240E-04 -1.392675E-03  5.000000E-01  4.029579E-04 -1.461563E-03  0.000000E+00 -7.732172E-03  1.502157E-02  2.098476E-17  1.037104E+00  0.000000E+00
  1.196920E-03 -2.357030E-03  5.000000E-01  1.209013E-03 -2.435658E-03  0.000000E+00 -3.326495E-03  4.026355E-03  1.121868E-17  1.094591E+00  0.000000E+00
  2.563580E-03 -3.385673E-03  5.000000E-01  2.589475E-03 -3.474689E-03  0.000000E+00  2.472382E-03 -1.329476E-03  1.561363E-18  9.996969E-01  0.000000E+00
  4.492740E-03 -4.423813E-03  5.000000E-01  4.538118E-03 -4.523313E-03  0.000000E+00  6.779798E-03 -3.173766E-03 -2.320428E-18  8.851457E-01  0.000000E+00
  6.952190E-03 -5.463747E-03  5.000000E-01  7.022406E-03 -5.573749E-03  0.000000E+00  9.406045E-03 -3.655751E-03 -2.350830E-18  7.936632E-01  0.000000E+00
  9.910730E-03 -6.529690E-03  5.000000E-01  1.001082E-02 -6.650458E-03  0.000000E+00  1.100118E-02 -3.763992E-03 -2.116074E-18  7.192245E-01  0.000000E+00
  1.334950E-02 -7.651032E-03  5.000000E-01  1.348432E-02 -7.783124E-03  0.000000E+00  1.206271E-02 -3.714183E-03 -3.256899E-18  6.453440E-01  0.000000E+00
  1.728780E-02 -8.799339E-03  5.000000E-01  1.746240E-02 -8.943028E-03  0.000000E+00  1.277890E-02 -3.446396E-03 -3.801344E-18  5.631929E-01  0.000000E+00
  2.175590E-02 -9.911200E-03  5.000000E-01  2.197562E-02 -1.006612E-02  0.000000E+00  1.320030E-02 -2.993654E-03 -2.979203E-18  4.840165E-01  0.000000E+00
  2.676920E-02 -1.093830E-02  5.000000E-01  2.703955E-02 -1.110359E-02  0.000000E+00  1.340161E-02 -2.491412E-03 -1.740560E-18  4.223201E-01  0.000000E+00
  3.232800E-02 -1.186569E-02  5.000000E-01  3.265449E-02 -1.204035E-02  0.000000E+00  1.347797E-02 -2.046076E-03 -6.822642E-19  3.807142E-01  0.000000E+00
  3.842930E-02 -1.270050E-02  5.000000E-01  3.881741E-02 -1.288359E-02  0.000000E+00  1.349463E-02 -1.694562E-03 -2.559836E-19  3.526142E-01  0.000000E+00
  4.507220E-02 -1.346015E-02  5.000000E-01  4.552739E-02 -1.365091E-02  0.000000E+00  1.349883E-02 -1.450764E-03 -1.963532E-19  3.325815E-01  0.000000E+00
  5.225680E-02 -1.418226E-02  5.000000E-01  5.278455E-02 -1.438031E-02  0.000000E+00  1.353772E-02 -1.314609E-03  2.580456E-19  3.173237E-01  0.000000E+00
  5.998640E-02 -1.490713E-02  5.000000E-01  6.059221E-02 -1.511251E-02  0.000000E+00  1.362321E-02 -1.239606E-03  6.440106E-19  3.002743E-01  0.000000E+00
  6.827110E-02 -1.563934E-02  5.000000E-01  6.896058E-02 -1.585210E-02  0.000000E+00  1.372822E-02 -1.172399E-03  6.342596E-19  2.778010E-01  0.000000E+00
  7.712280E-02 -1.636904E-02  5.000000E-01  7.790168E-02 -1.658917E-02  0.000000E+00  1.382788E-02 -1.098519E-03  6.396626E-19  2.533256E-01  0.000000E+00
  8.655260E-02 -1.708939E-02  5.000000E-01  8.742671E-02 -1.731680E-02  0.000000E+00  1.390741E-02 -1.016340E-03  2.567135E-19  2.298830E-01  0.000000E+00
  9.657140E-02 -1.778869E-02  5.000000E-01  9.754669E-02 -1.802317E-02  0.000000E+00  1.394787E-02 -9.134438E-04  5.428330E-20  2.069389E-01  0.000000E+00
  1.071900E-01 -1.843893E-02  5.000000E-01  1.082725E-01 -1.867997E-02  0.000000E+00  1.393856E-02 -7.869133E-04 -1.184392E-19  1.848901E-01  0.000000E+00
  1.184180E-01 -1.901850E-02  5.000000E-01  1.196139E-01 -1.926539E-02  0.000000E+00  1.389742E-02 -6.576870E-04 -7.032997E-19  1.665592E-01  0.000000E+00
  1.302610E-01 -1.952728E-02  5.000000E-01  1.315765E-01 -1.977931E-02  0.000000E+00  1.385510E-02 -5.456818E-04 -5.677927E-19  1.524229E-01  0.000000E+00
  1.427230E-01 -1.997330E-02  5.000000E-01  1.441644E-01 -2.022983E-02  0.000000E+00  1.382838E-02 -4.554401E-04  4.593972E-19  1.402804E-01  0.000000E+00
  1.427230E-01 -1.997330E-02  5.000000E-01  1.441644E-01 -2.022983E-02  0.000000E+00  1.382838E-02 -4.554401E-04  4.593972E-19  1.402804E-01  0.000000E+00
  1.558070E-01 -2.036713E-02  5.000000E-01  1.573805E-01 -2.062764E-02  0.000000E+00  1.380677E-02 -3.752164E-04  5.825551E-19  1.275343E-01  0.000000E+00
  1.695140E-01 -2.070021E-02  5.000000E-01  1.712259E-01 -2.096409E-02  0.000000E+00  1.375740E-02 -2.840239E-04  3.057394E-20  1.129274E-01  0.000000E+00
  1.838420E-01 -2.094372E-02  5.000000E-01  1.856986E-01 -2.121005E-02  0.000000E+00  1.364817E-02 -1.686919E-04 -2.189155E-19  9.798932E-02  0.000000E+00
  1.987870E-01 -2.105847E-02  5.000000E-01  2.007946E-01 -2.132597E-02  0.000000E+00  1.346822E-02 -3.078132E-05 -3.472001E-19  8.543823E-02  0.000000E+00
  2.143420E-01 -2.100838E-02  5.000000E-01  2.165067E-01 -2.127536E-02  0.000000E+00  1.323954E-02  1.087338E-04 -5.518209E-19  7.805344E-02  0.000000E+00
  2.304940E-01 -2.079238E-02  5.000000E-01  2.328218E-01 -2.105719E-02  0.000000E+00  1.300826E-02  2.198658E-04 -4.823112E-19  7.711879E-02  0.000000E+00
  2.472290E-01 -2.044861E-02  5.000000E-01  2.497258E-01 -2.070995E-02  0.000000E+00  1.281137E-02  2.918865E-04 -3.052079E-19  7.996101E-02  0.000000E+00
  2.645310E-01 -2.001598E-02  5.000000E-01  2.672025E-01 -2.027295E-02  0.000000E+00  1.265101E-02  3.442983E-04  4.667576E-19  8.134747E-02  0.000000E+00
  2.823750E-01 -1.949228E-02  5.000000E-01  2.852267E-01 -1.974396E-02  0.000000E+00  1.250473E-02  4.043098E-04  4.726877E-19  7.870540E-02  0.000000E+00
  3.007320E-01 -1.884386E-02  5.000000E-01  3.037691E-01 -1.908899E-02  0.000000E+00  1.235448E-02  4.791596E-04 -1.203404E-20  7.465894E-02  0.000000E+00
  3.195690E-01 -1.804619E-02  5.000000E-01  3.227964E-01 -1.828326E-02  0.000000E+00  1.219474E-02  5.581321E-04  8.694566E-19  7.312835E-02  0.000000E+00
  3.388440E-01 -1.709615E-02  5.000000E-01  3.422660E-01 -1.732363E-02  0.000000E+00  1.201635E-02  6.323841E-04  6.787946E-19  7.499565E-02  0.000000E+00
  3.585140E-01 -1.599471E-02  5.000000E-01  3.621347E-01 -1.621107E-02  0.000000E+00  1.179241E-02  7.039732E-04  2.572979E-20  7.847156E-02  0.000000E+00
  3.785290E-01 -1.472523E-02  5.000000E-01  3.823518E-01 -1.492877E-02  0.000000E+00  1.148696E-02  7.759577E-04  2.051412E-19  8.288267E-02  0.000000E+00
  3.988350E-01 -1.326702E-02  5.000000E-01  4.028629E-01 -1.345583E-02  0.000000E+00  1.107635E-02  8.456689E-04 -1.117066E-19  9.008468E-02  0.000000E+00
  4.193750E-01 -1.160144E-02  5.000000E-01  4.236103E-01 -1.177342E-02  0.000000E+00  1.056232E-02  9.125867E-04 -1.139341E-18  1.014804E-01  0.000000E+00
  4.400850E-01 -9.696894E-03  5.000000E-01  4.445295E-01 -9.849648E-03  0.000000E+00  9.984615E-03  9.702769E-04 -7.004257E-19  1.179620E-01  0.000000E+00
  4.609060E-01 -7.556989E-03  5.000000E-01  4.655607E-01 -7.688131E-03  0.000000E+00  9.427553E-03  9.911939E-04  1.165922E-18  1.420224E-01  0.000000E+00
  4.818030E-01 -5.303602E-03  5.000000E-01  4.866688E-01 -5.411987E-03  0.000000E+00  8.983130E-03  9.489021E-04  1.319378E-18  1.733041E-01  0.000000E+00
  5.027520E-01 -3.137758E-03  5.000000E-01  5.078294E-01 -3.224270E-03  0.000000E+00  8.684205E-03  8.568921E-04  7.518563E-20  2.033236E-01  0.000000E+00
  5.237130E-01 -1.176490E-03  5.000000E-01  5.290020E-01 -1.243195E-03  0.000000E+00  8.481435E-03  7.646492E-04 -3.991000E-19  2.216321E-01  0.000000E+00
  5.446170E-01  6.289992E-04  5.000000E-01  5.501171E-01  5.805280E-04  0.000000E+00  8.295076E-03  7.088358E-04 -2.633275E-19  2.277757E-01  0.000000E+00
  5.653940E-01  2.386807E-03  5.000000E-01  5.711040E-01  2.356088E-03  0.000000E+00  8.084634E-03  6.800730E-04 -4.323233E-19  2.324758E-01  0.000000E+00
  4.675910E-01  7.400456E-02  5.000000E-01  4.723133E-01  7.469711E-02  0.000000E+00  1.668086E-02 -7.573430E-04  2.730802E-19 -7.847660E-01  0.000000E+00
  4.464640E-01  7.483566E-02  5.000000E-01  4.509729E-01  7.553661E-02  0.000000E+00  1.704053E-02 -5.651862E-04  1.102996E-18 -8.021275E-01  0.000000E+00
  4.254410E-01  7.540586E-02  5.000000E-01  4.297376E-01  7.611257E-02  0.000000E+00  1.731205E-02 -3.715477E-04  1.131894E-18 -8.142392E-01  0.000000E+00
  4.045840E-01  7.573691E-02  5.000000E-01  4.086699E-01  7.644696E-02  0.000000E+00  1.749646E-02 -1.918492E-04  5.296045E-19 -8.229811E-01  0.000000E+00
  3.839530E-01  7.586291E-02  5.000000E-01  3.878306E-01  7.657424E-02  0.000000E+00  1.761392E-02 -3.199535E-05 -2.014347E-20 -8.303733E-01  0.000000E+00
  3.636060E-01  7.581354E-02  5.000000E-01  3.672781E-01  7.652437E-02  0.000000E+00  1.770362E-02  1.084861E-04  2.966246E-20 -8.393251E-01  0.000000E+00
  3.435960E-01  7.561693E-02  5.000000E-01  3.470660E-01  7.632577E-02  0.000000E+00  1.781683E-02  2.314098E-04 -2.407691E-19 -8.546536E-01  0.000000E+00
  3.239710E-01  7.529885E-02  5.000000E-01  3.272428E-01  7.600447E-02  0.000000E+00  1.801702E-02  3.474618E-04 -5.201065E-19 -8.806045E-01  0.000000E+00
  3.047740E-01  7.486911E-02  5.000000E-01  3.078520E-01  7.557040E-02  0.000000E+00  1.837223E-02  4.857995E-04 -1.104195E-19 -9.166659E-01  0.000000E+00
  2.860450E-01  7.429974E-02  5.000000E-01  2.889338E-01  7.499528E-02  0.000000E+00  1.892043E-02  6.790943E-04 -1.809813E-19 -9.583590E-01  0.000000E+00
  2.678190E-01  7.354917E-02  5.000000E-01  2.705237E-01  7.423712E-02  0.000000E+00  1.964098E-02  9.418824E-04 -5.097033E-19 -1.001402E+00  0.000000E+00
  2.501300E-01  7.258582E-02  5.000000E-01  2.526561E-01  7.326405E-02  0.000000E+00  2.046806E-02  1.272623E-03 -6.666320E-19 -1.042915E+00  0.000000E+00
  2.330040E-01  7.139398E-02  5.000000E-01  2.353571E-01  7.206018E-02  0.000000E+00  2.132382E-02  1.663457E-03 -1.367188E-18 -1.080419E+00  0.000000E+00
  2.164660E-01  6.996983E-02  5.000000E-01  2.186521E-01  7.062164E-02  0.000000E+00  2.214450E-02  2.104829E-03 -1.218825E-18 -1.110684E+00  0.000000E+00
  2.005340E-01  6.831891E-02  5.000000E-01  2.025592E-01  6.895405E-02  0.000000E+00  2.289039E-02  2.590047E-03  1.006664E-19 -1.129703E+00  0.000000E+00
  1.852230E-01  6.644662E-02  5.000000E-01  1.870936E-01  6.706285E-02  0.000000E+00  2.353265E-02  3.103330E-03  1.021703E-18 -1.137176E+00  0.000000E+00
  1.705440E-01  6.437419E-02  5.000000E-01  1.722663E-01  6.496949E-02  0.000000E+00  2.405525E-02  3.614711E-03  5.132831E-19 -1.140545E+00  0.000000E+00
  1.565000E-01  6.213711E-02  5.000000E-01  1.580805E-01  6.270981E-02  0.000000E+00  2.449024E-02  4.109470E-03 -9.742017E-19 -1.150914E+00  0.000000E+00
  1.430940E-01  5.977222E-02  5.000000E-01  1.445391E-01  6.032104E-02  0.000000E+00  2.493603E-02  4.626236E-03 -1.758773E-18 -1.171961E+00  0.000000E+00
  1.303270E-01  5.728830E-02  5.000000E-01  1.316432E-01  5.781203E-02  0.000000E+00  2.550411E-02  5.262452E-03 -2.910321E-19 -1.191004E+00  0.000000E+00
  1.182110E-01  5.465079E-02  5.000000E-01  1.194048E-01  5.514789E-02  0.000000E+00  2.618384E-02  6.072562E-03 -5.438042E-19 -1.188651E+00  0.000000E+00
  1.067560E-01  5.183909E-02  5.000000E-01  1.078341E-01  5.230779E-02  0.000000E+00  2.679700E-02  7.000024E-03  1.474184E-19 -1.154171E+00  0.000000E+00
  9.596750E-02  4.885586E-02  5.000000E-01  9.693669E-02  4.929443E-02  0.000000E+00  2.709647E-02  7.859050E-03  2.178497E-20 -1.098779E+00  0.000000E+00
  8.582800E-02  4.577557E-02  5.000000E-01  8.669479E-02  4.618304E-02  0.000000E+00  2.698921E-02  8.483038E-03 -1.072895E-18 -1.046192E+00  0.000000E+00
  8.582800E-02  4.577557E-02  5.000000E-01  8.669479E-02  4.618304E-02  0.000000E+00  2.698921E-02  8.483038E-03 -1.072895E-18 -1.046192E+00  0.000000E+00
  7.631050E-02  4.268099E-02  5.000000E-01  7.708117E-02  4.305721E-02  0.000000E+00  2.665357E-02  8.965294E-03  5.653514E-19 -1.001489E+00  0.000000E+00
  6.740780E-02  3.958593E-02  5.000000E-01  6.808856E-02  3.993089E-02  0.000000E+00  2.630692E-02  9.483204E-03  1.629107E-18 -9.557554E-01  0.000000E+00
  5.911740E-02  3.649044E-02  5.000000E-01  5.971444E-02  3.680414E-02  0.000000E+00  2.601571E-02  1.006958E-02  2.792658E-18 -9.051250E-01  0.000000E+00
  5.143150E-02  3.340975E-02  5.000000E-01  5.195092E-02  3.369234E-02  0.000000E+00  2.574536E-02  1.068045E-02  1.270375E-18 -8.505113E-01  0.000000E+00
  4.433770E-02  3.036653E-02  5.000000E-01  4.478548E-02  3.061839E-02  0.000000E+00  2.544174E-02  1.128003E-02 -3.275596E-19 -7.952799E-01  0.000000E+00
  3.782240E-02  2.738290E-02  5.000000E-01  3.820438E-02  2.760462E-02  0.000000E+00  2.507618E-02  1.186716E-02 -4.953098E-19 -7.439197E-01  0.000000E+00
  3.187460E-02  2.447461E-02  5.000000E-01  3.219651E-02  2.466696E-02  0.000000E+00  2.465998E-02  1.247143E-02 -1.287231E-18 -6.992159E-01  0.000000E+00
  2.648400E-02  2.165542E-02  5.000000E-01  2.675147E-02  2.181930E-02  0.000000E+00  2.422750E-02  1.317353E-02 -6.851019E-19 -6.528859E-01  0.000000E+00
  2.164990E-02  1.892640E-02  5.000000E-01  2.186855E-02  1.906272E-02  0.000000E+00  2.374046E-02  1.403356E-02 -1.077520E-18 -5.845565E-01  0.000000E+00
  1.737670E-02  1.628688E-02  5.000000E-01  1.755219E-02  1.639654E-02  0.000000E+00  2.302840E-02  1.486233E-02 -2.654302E-18 -4.885613E-01  0.000000E+00
  1.364080E-02  1.376859E-02  5.000000E-01  1.377856E-02  1.385281E-02  0.000000E+00  2.196674E-02  1.531108E-02 -3.424991E-18 -3.890273E-01  0.000000E+00
  1.039090E-02  1.142254E-02  5.000000E-01  1.049584E-02  1.148307E-02  0.000000E+00  2.066625E-02  1.533637E-02 -4.504830E-18 -3.143486E-01  0.000000E+00
  7.586340E-03  9.279520E-03  5.000000E-01  7.662960E-03  9.318412E-03  0.000000E+00  1.939540E-02  1.538456E-02 -4.534649E-18 -2.675736E-01  0.000000E+00
  5.226210E-03  7.334768E-03  5.000000E-01  5.278995E-03  7.354020E-03  0.000000E+00  1.838822E-02  1.605091E-02 -6.118113E-18 -2.336543E-01  0.000000E+00
  3.324300E-03  5.576981E-03  5.000000E-01  3.357878E-03  5.578480E-03  0.000000E+00  1.773732E-02  1.781794E-02 -1.204760E-17 -1.987260E-01  0.000000E+00
  1.883580E-03  4.010745E-03  5.000000E-01  1.902608E-03  3.996427E-03  0.000000E+00  1.721223E-02  2.113991E-02 -1.984759E-17 -1.399015E-01  0.000000E+00
  8.951490E-04  2.654427E-03  5.000000E-01  9.041943E-04  2.626411E-03  0.000000E+00  1.591361E-02  2.606944E-02 -2.622117E-17 -2.201703E-02  0.000000E+00
  3.201820E-04  1.542916E-03  5.000000E-01  3.234206E-04  1.503674E-03  0.000000E+00  1.257709E-02  3.119999E-02 -2.743686E-17  1.684443E-01  0.000000E+00
  6.852390E-05  7.199398E-04  5.000000E-01  6.922101E-05  6.723871E-04  0.000000E+00  7.374659E-03  3.374267E-02 -2.114944E-17  3.655010E-01  0.000000E+00
  4.217600E-06  2.206118E-04  5.000000E-01  4.265277E-06  1.680163E-04  0.000000E+00  2.647241E-03  3.359246E-02  1.558124E-18  4.360923E-01  0.000000E+00
 -5.032520E-09  5.427537E-05  5.000000E-01  0.000000E+00  0.000000E+00  0.000000E+00 -3.545385E-04  3.622240E-02  4.155283E-17  4.077228E-01  0.000000E+00
  5.154440E-06 -1.129171E-04  5.000000E-01  5.211579E-06 -1.688810E-04  0.000000E+00 -3.452965E-03  3.747494E-02  6.035615E-17  5.011682E-01  0.000000E+00