 Title = "ADflow Slice Data"
Variables =  "CoordinateX"  "CoordinateY"  "CoordinateZ"  "XoC"  "YoC"  "ZoC" "VelocityX" "VelocityY" "VelocityZ" "CoefPressure" "Mach" 
Zone T= "Slice_0001 None Absolute Regular z = 0.50000000"
 Nodes =          192  Elements=          184  ZONETYPE=FELINESEG
 DATAPACKING=POINT
  5.653940E-01  4.034981E-03  5.000000E-01  5.711039E-01  4.006187E-03  0.000000E+00  1.209806E-02 -1.452035E-03 -1.121881E-18  2.211982E-01  0.000000E+00
  5.859770E-01  1.314737E-03  5.000000E-01  5.918947E-01  1.258472E-03  0.000000E+00  1.426523E-02 -1.789472E-03  1.593272E-18  1.083906E-01  0.000000E+00
  6.063060E-01 -1.122375E-03  5.000000E-01  6.124290E-01 -1.203252E-03  0.000000E+00  1.554151E-02 -1.487290E-03  2.044303E-18 -2.816541E-02  0.000000E+00
  6.263240E-01 -2.569648E-03  5.000000E-01  6.326492E-01 -2.665141E-03  0.000000E+00  1.507497E-02 -5.264150E-04  1.245064E-19 -1.438017E-01  0.000000E+00
  6.459860E-01 -2.442488E-03  5.000000E-01  6.525097E-01 -2.536697E-03  0.000000E+00  1.255560E-02  6.556605E-04 -2.103577E-18 -2.014316E-01  0.000000E+00
  6.652460E-01 -2.585424E-04  5.000000E-01  6.719642E-01 -3.306958E-04  0.000000E+00  8.698419E-03  1.337745E-03 -1.638854E-18 -1.650356E-01  0.000000E+00
  6.840650E-01  3.940772E-03  5.000000E-01  6.909733E-01  3.911027E-03  0.000000E+00  4.903740E-03  1.199344E-03 -2.160261E-18 -1.869756E-02  0.000000E+00
  7.024070E-01  9.272575E-03  5.000000E-01  7.095005E-01  9.296675E-03  0.000000E+00  2.140620E-03  6.437104E-04 -4.546572E-19  1.700838E-01  0.000000E+00
  7.202400E-01  1.487625E-02  5.000000E-01  7.275136E-01  1.495694E-02  0.000000E+00  4.936022E-04  1.617942E-04  1.869989E-18  3.084112E-01  0.000000E+00
  7.375350E-01  2.008672E-02  5.000000E-01  7.449833E-01  2.022003E-02  0.000000E+00 -3.692033E-04 -9.816913E-05  4.209972E-18  3.758300E-01  0.000000E+00
  7.542690E-01  2.445859E-02  5.000000E-01  7.618863E-01  2.463605E-02  0.000000E+00 -7.695196E-04 -1.774374E-04  3.727921E-18  4.023441E-01  0.000000E+00
  7.704220E-01  2.773885E-02  5.000000E-01  7.782024E-01  2.794944E-02  0.000000E+00 -8.919663E-04 -1.514915E-04 -8.807247E-19  4.172884E-01  0.000000E+00
  7.859770E-01  2.982582E-02  5.000000E-01  7.939145E-01  3.005748E-02  0.000000E+00 -8.212875E-04 -8.457941E-05 -9.455098E-19  4.318420E-01  0.000000E+00
  8.009220E-01  3.079160E-02  5.000000E-01  8.090104E-01  3.103302E-02  0.000000E+00 -6.006340E-04 -2.494873E-05 -7.796827E-20  4.462958E-01  0.000000E+00
  8.152480E-01  3.085115E-02  5.000000E-01  8.234811E-01  3.109316E-02  0.000000E+00 -2.608487E-04  5.590403E-07  2.714771E-19  4.586312E-01  0.000000E+00
  8.289490E-01  3.023827E-02  5.000000E-01  8.373205E-01  3.047410E-02  0.000000E+00  1.723642E-04 -1.533094E-05  1.382130E-18  4.671344E-01  0.000000E+00
  8.420260E-01  2.915737E-02  5.000000E-01  8.505295E-01  2.938228E-02  0.000000E+00  6.766945E-04 -6.950959E-05  1.663598E-18  4.705001E-01  0.000000E+00
  8.544790E-01  2.776733E-02  5.000000E-01  8.631083E-01  2.797820E-02  0.000000E+00  1.232013E-03 -1.540209E-04  1.564170E-18  4.684671E-01  0.000000E+00
  8.663160E-01  2.618774E-02  5.000000E-01  8.750648E-01  2.638266E-02  0.000000E+00  1.819315E-03 -2.599161E-04  1.654381E-18  4.614428E-01  0.000000E+00
  8.775420E-01  2.450737E-02  5.000000E-01  8.864042E-01  2.468532E-02  0.000000E+00  2.419778E-03 -3.783129E-04  2.072369E-18  4.503997E-01  0.000000E+00
  8.881660E-01  2.279150E-02  5.000000E-01  8.971355E-01  2.295213E-02  0.000000E+00  3.015301E-03 -5.008036E-04  3.667728E-19  4.367434E-01  0.000000E+00
  8.981970E-01  2.108766E-02  5.000000E-01  9.072678E-01  2.123108E-02  0.000000E+00  3.589751E-03 -6.219188E-04 -1.733589E-18  4.216389E-01  0.000000E+00
  9.076460E-01  1.942355E-02  5.000000E-01  9.168122E-01  1.955016E-02  0.000000E+00  4.132055E-03 -7.406667E-04 -2.258957E-18  4.062349E-01  0.000000E+00
  9.165220E-01  1.780844E-02  5.000000E-01  9.257779E-01  1.791874E-02  0.000000E+00  4.638636E-03 -8.583199E-04 -1.999634E-18  3.911576E-01  0.000000E+00
  9.165220E-01  1.780844E-02  5.000000E-01  9.257779E-01  1.791874E-02  0.000000E+00  4.638636E-03 -8.583199E-04 -1.999634E-18  3.911576E-01  0.000000E+00
  9.248360E-01  1.624700E-02  5.000000E-01  9.341758E-01  1.634153E-02  0.000000E+00  5.111795E-03 -9.757027E-04 -1.530936E-18  3.762540E-01  0.000000E+00
  9.325990E-01  1.474340E-02  5.000000E-01  9.420172E-01  1.482275E-02  0.000000E+00  5.557284E-03 -1.093646E-03 -1.128321E-18  3.613642E-01  0.000000E+00
  9.398210E-01  1.330138E-02  5.000000E-01  9.493122E-01  1.336617E-02  0.000000E+00  5.982939E-03 -1.213458E-03  5.161152E-19  3.464694E-01  0.000000E+00
  9.465130E-01  1.192445E-02  5.000000E-01  9.560717E-01  1.197533E-02  0.000000E+00  6.397059E-03 -1.336558E-03  6.581150E-19  3.314962E-01  0.000000E+00
  9.526870E-01  1.061608E-02  5.000000E-01  9.623081E-01  1.065375E-02  0.000000E+00  6.807034E-03 -1.464193E-03 -5.944858E-19  3.163389E-01  0.000000E+00
  9.583540E-01  9.380098E-03  5.000000E-01  9.680323E-01  9.405284E-03  0.000000E+00  7.219030E-03 -1.597366E-03 -8.212609E-19  3.008977E-01  0.000000E+00
  9.635240E-01  8.220616E-03  5.000000E-01  9.732545E-01  8.234093E-03  0.000000E+00  7.638699E-03 -1.736846E-03  2.819421E-19  2.850564E-01  0.000000E+00
  9.682080E-01  7.141817E-03  5.000000E-01  9.779858E-01  7.144399E-03  0.000000E+00  8.073397E-03 -1.883894E-03  1.041222E-19  2.687682E-01  0.000000E+00
  9.724140E-01  6.148294E-03  5.000000E-01  9.822343E-01  6.140842E-03  0.000000E+00  8.534876E-03 -2.040743E-03 -8.897113E-19  2.520276E-01  0.000000E+00
  9.761510E-01  5.244514E-03  5.000000E-01  9.860090E-01  5.227935E-03  0.000000E+00  9.038421E-03 -2.210085E-03 -6.801237E-19  2.347742E-01  0.000000E+00
  9.794290E-01  4.434645E-03  5.000000E-01  9.893201E-01  4.409888E-03  0.000000E+00  9.592870E-03 -2.393642E-03 -1.108121E-18  2.169872E-01  0.000000E+00
  9.822540E-01  3.723079E-03  5.000000E-01  9.921737E-01  3.691136E-03  0.000000E+00  1.017854E-02 -2.586779E-03 -1.238398E-18  1.989384E-01  0.000000E+00
  9.846330E-01  3.113673E-03  5.000000E-01  9.945767E-01  3.075575E-03  0.000000E+00  1.072418E-02 -2.768211E-03 -8.938815E-20  1.817930E-01  0.000000E+00
  9.865710E-01  2.610003E-03  5.000000E-01  9.965343E-01  2.566819E-03  0.000000E+00  1.106650E-02 -2.884123E-03  1.441800E-18  1.640908E-01  0.000000E+00
  9.880740E-01  2.214924E-03  5.000000E-01  9.980525E-01  2.167750E-03  0.000000E+00  1.096282E-02 -2.900693E-03 -1.611505E-18  1.409216E-01  0.000000E+00
  9.891450E-01  1.930926E-03  5.000000E-01  9.991343E-01  1.880884E-03  0.000000E+00  1.102861E-02 -3.004784E-03 -2.187538E-17  1.403912E-01  0.000000E+00
  9.897860E-01  1.759865E-03  5.000000E-01  9.997817E-01  1.708095E-03  0.000000E+00  1.375475E-02 -3.216316E-03 -6.404917E-17  1.769527E-01  0.000000E+00
  9.900000E-01  1.702671E-03  5.000000E-01  9.999979E-01  1.650323E-03  0.000000E+00  9.486363E-03 -5.634193E-03 -6.899074E-17 -5.148997E-02  0.000000E+00
  9.900000E-01  1.781381E-03  5.000000E-01  9.999979E-01  1.729829E-03  0.000000E+00  9.558384E-04 -1.505962E-02  3.518325E-18 -1.737368E-01  0.000000E+00
  9.900000E-01  1.860101E-03  5.000000E-01  9.999979E-01  1.809344E-03  0.000000E+00 -4.922852E-04 -1.482413E-02  7.735015E-17 -1.623884E-02  0.000000E+00
  9.900000E-01  1.938821E-03  5.000000E-01  9.999979E-01  1.888859E-03  0.000000E+00 -1.939966E-04 -1.516622E-03  9.791774E-17 -2.217435E-02  0.000000E+00
  9.900000E-01  2.017532E-03  5.000000E-01  9.999979E-01  1.968364E-03  0.000000E+00  5.167018E-04  6.215982E-04  1.180096E-16 -1.037304E-01  0.000000E+00
  9.900000E-01  2.096252E-03  5.000000E-01  9.999979E-01  2.047879E-03  0.000000E+00  3.897516E-03 -2.915479E-03  1.356440E-16 -3.258958E-02  0.000000E+00
  9.900000E-01  2.096252E-03  5.000000E-01  9.999979E-01  2.047879E-03  0.000000E+00  3.897516E-03 -2.915479E-03  1.356440E-16 -3.258958E-02  0.000000E+00
  9.897900E-01  2.162788E-03  5.000000E-01  9.997858E-01  2.115087E-03  0.000000E+00  4.756813E-03 -1.743711E-03  9.254965E-17  6.470390E-02  0.000000E+00
  9.891580E-01  2.362672E-03  5.000000E-01  9.991474E-01  2.316990E-03  0.000000E+00  2.368637E-03 -7.042053E-04  3.192531E-17  3.278248E-02  0.000000E+00
  9.881040E-01  2.696085E-03  5.000000E-01  9.980828E-01  2.653770E-03  0.000000E+00  1.522668E-03 -4.798316E-04  4.289530E-18  2.456908E-02  0.000000E+00
  9.866260E-01  3.163529E-03  5.000000E-01  9.965898E-01  3.125935E-03  0.000000E+00  1.147516E-03 -3.670935E-04 -2.828852E-18  2.625682E-02  0.000000E+00
  9.847200E-01  3.765815E-03  5.000000E-01  9.946646E-01  3.734303E-03  0.000000E+00  8.974457E-04 -2.835217E-04 -2.816021E-18  2.334765E-02  0.000000E+00
  9.823820E-01  4.503811E-03  5.000000E-01  9.923030E-01  4.479752E-03  0.000000E+00  7.822206E-04 -2.463186E-04 -1.658741E-18  1.762900E-02  0.000000E+00
  9.796080E-01  5.378390E-03  5.000000E-01  9.895010E-01  5.363163E-03  0.000000E+00  7.869049E-04 -2.478195E-04 -1.963650E-18  1.076309E-02  0.000000E+00
  9.763910E-01  6.390743E-03  5.000000E-01  9.862515E-01  6.385740E-03  0.000000E+00  8.760956E-04 -2.754421E-04 -3.935831E-19  2.511180E-03  0.000000E+00
  9.727270E-01  7.541568E-03  5.000000E-01  9.825505E-01  7.548187E-03  0.000000E+00  1.022791E-03 -3.207411E-04  1.878489E-18 -7.434981E-03  0.000000E+00
  9.686070E-01  8.832030E-03  5.000000E-01  9.783889E-01  8.851682E-03  0.000000E+00  1.211248E-03 -3.786904E-04  1.237825E-18 -1.920612E-02  0.000000E+00
  9.640240E-01  1.026276E-02  5.000000E-01  9.737596E-01  1.029686E-02  0.000000E+00  1.434819E-03 -4.468678E-04 -2.080038E-19 -3.298132E-02  0.000000E+00
  9.589680E-01  1.183439E-02  5.000000E-01  9.686525E-01  1.188436E-02  0.000000E+00  1.693472E-03 -5.249537E-04 -1.450930E-19 -4.893846E-02  0.000000E+00
  9.534310E-01  1.354682E-02  5.000000E-01  9.630596E-01  1.361409E-02  0.000000E+00  1.990943E-03 -6.136632E-04  2.007632E-19 -6.726899E-02  0.000000E+00
  9.474030E-01  1.539957E-02  5.000000E-01  9.569707E-01  1.548554E-02  0.000000E+00  2.332497E-03 -7.139297E-04  6.135199E-20 -8.815939E-02  0.000000E+00
  9.408720E-01  1.739153E-02  5.000000E-01  9.503738E-01  1.749762E-02  0.000000E+00  2.723644E-03 -8.266169E-04  2.336465E-19 -1.118419E-01  0.000000E+00
  9.338280E-01  1.952032E-02  5.000000E-01  9.432586E-01  1.964791E-02  0.000000E+00  3.169966E-03 -9.523285E-04  1.497927E-18 -1.385833E-01  0.000000E+00
  9.262600E-01  2.178233E-02  5.000000E-01  9.356142E-01  2.193277E-02  0.000000E+00  3.677300E-03 -1.091176E-03  1.898992E-18 -1.686491E-01  0.000000E+00
  9.181550E-01  2.417220E-02  5.000000E-01  9.274273E-01  2.434677E-02  0.000000E+00  4.252080E-03 -1.242874E-03  2.911922E-19 -2.023614E-01  0.000000E+00
  9.095020E-01  2.668213E-02  5.000000E-01  9.186870E-01  2.688205E-02  0.000000E+00  4.901862E-03 -1.406521E-03 -7.777555E-19 -2.399471E-01  0.000000E+00
  9.002880E-01  2.930108E-02  5.000000E-01  9.093799E-01  2.952745E-02  0.000000E+00  5.635375E-03 -1.580501E-03  4.656547E-19 -2.814768E-01  0.000000E+00
  8.905020E-01  3.201367E-02  5.000000E-01  8.994951E-01  3.226743E-02  0.000000E+00  6.464140E-03 -1.763397E-03  2.035593E-18 -3.273110E-01  0.000000E+00
  8.801320E-01  3.480263E-02  5.000000E-01  8.890204E-01  3.508456E-02  0.000000E+00  7.406973E-03 -1.954575E-03  2.939555E-18 -3.781677E-01  0.000000E+00
  8.691700E-01  3.764681E-02  5.000000E-01  8.779477E-01  3.795746E-02  0.000000E+00  8.492704E-03 -2.152090E-03  2.534278E-18 -4.344471E-01  0.000000E+00
  8.691700E-01  3.764681E-02  5.000000E-01  8.779477E-01  3.795746E-02  0.000000E+00  8.492704E-03 -2.152090E-03  2.534278E-18 -4.344471E-01  0.000000E+00
  8.576080E-01  4.051632E-02  5.000000E-01  8.662689E-01  4.085595E-02  0.000000E+00  9.756206E-03 -2.348578E-03  1.155693E-18 -4.964787E-01  0.000000E+00
  8.454380E-01  4.336760E-02  5.000000E-01  8.539760E-01  4.373602E-02  0.000000E+00  1.123037E-02 -2.525870E-03  9.046380E-19 -5.662965E-01  0.000000E+00
  8.326580E-01  4.613657E-02  5.000000E-01  8.410669E-01  4.653295E-02  0.000000E+00  1.293534E-02 -2.645728E-03  3.780759E-19 -6.475968E-01  0.000000E+00
  8.192630E-01  4.873029E-02  5.000000E-01  8.275366E-01  4.915287E-02  0.000000E+00  1.484934E-02 -2.637157E-03  1.931792E-18 -7.399539E-01  0.000000E+00
  8.052550E-01  5.101558E-02  5.000000E-01  8.133872E-01  5.146123E-02  0.000000E+00  1.684480E-02 -2.385423E-03  3.913524E-18 -8.273149E-01  0.000000E+00
  7.906370E-01  5.280608E-02  5.000000E-01  7.986216E-01  5.326982E-02  0.000000E+00  1.860871E-02 -1.754132E-03  3.828108E-18 -8.728369E-01  0.000000E+00
  7.754120E-01  5.385420E-02  5.000000E-01  7.832428E-01  5.432852E-02  0.000000E+00  1.958976E-02 -7.305473E-04  4.804623E-18 -8.409050E-01  0.000000E+00
  7.595880E-01  5.396266E-02  5.000000E-01  7.672590E-01  5.443808E-02  0.000000E+00  1.918426E-02  4.051656E-04  5.631949E-18 -7.290641E-01  0.000000E+00
  7.431760E-01  5.312894E-02  5.000000E-01  7.506813E-01  5.359594E-02  0.000000E+00  1.720623E-02  1.244293E-03  3.802455E-18 -5.613254E-01  0.000000E+00
  7.261880E-01  5.147376E-02  5.000000E-01  7.335217E-01  5.192405E-02  0.000000E+00  1.407016E-02  1.542973E-03  2.252724E-18 -3.703649E-01  0.000000E+00
  7.086430E-01  4.927273E-02  5.000000E-01  7.157995E-01  4.970079E-02  0.000000E+00  1.049091E-02  1.316778E-03  6.094937E-19 -1.936920E-01  0.000000E+00
  6.905640E-01  4.699501E-02  5.000000E-01  6.975379E-01  4.740007E-02  0.000000E+00  7.112620E-03  7.930013E-04 -1.639380E-18 -6.562591E-02  0.000000E+00
  6.719770E-01  4.531862E-02  5.000000E-01  6.787632E-01  4.570675E-02  0.000000E+00  4.341978E-03  2.668319E-04 -9.939151E-19 -6.671050E-03  0.000000E+00
  6.529150E-01  4.508436E-02  5.000000E-01  6.595087E-01  4.547012E-02  0.000000E+00  2.379357E-03 -4.442261E-05 -1.036712E-18 -5.802085E-03  0.000000E+00
  6.334180E-01  4.668118E-02  5.000000E-01  6.398148E-01  4.708307E-02  0.000000E+00  1.266614E-03 -1.355722E-04 -2.471997E-18 -3.424164E-02  0.000000E+00
  6.135280E-01  4.976051E-02  5.000000E-01  6.197240E-01  5.019350E-02  0.000000E+00  9.318459E-04 -1.689152E-04 -1.315139E-18 -8.406656E-02  0.000000E+00
  5.932910E-01  5.386402E-02  5.000000E-01  5.992826E-01  5.433845E-02  0.000000E+00  1.275255E-03 -2.784429E-04  2.851020E-18 -1.615470E-01  0.000000E+00
  5.727570E-01  5.847884E-02  5.000000E-01  5.785412E-01  5.899987E-02  0.000000E+00  2.186871E-03 -4.828724E-04  3.023799E-18 -2.569566E-01  0.000000E+00
  5.519810E-01  6.304868E-02  5.000000E-01  5.575554E-01  6.361586E-02  0.000000E+00  3.455634E-03 -7.013982E-04  1.229288E-18 -3.427332E-01  0.000000E+00
  5.310180E-01  6.709094E-02  5.000000E-01  5.363807E-01  6.769895E-02  0.000000E+00  4.730140E-03 -8.489154E-04 -5.058118E-19 -4.070151E-01  0.000000E+00
  5.099250E-01  7.065321E-02  5.000000E-01  5.150747E-01  7.129718E-02  0.000000E+00  5.663455E-03 -9.183943E-04 -1.790829E-18 -4.575509E-01  0.000000E+00
  4.887640E-01  7.396602E-02  5.000000E-01  4.937000E-01  7.464345E-02  0.000000E+00  6.101701E-03 -9.451968E-04 -8.110750E-20 -4.983212E-01  0.000000E+00
  4.675910E-01  7.723291E-02  5.000000E-01  4.723132E-01  7.794333E-02  0.000000E+00  6.147015E-03 -9.667985E-04 -4.250842E-19 -5.413587E-01  0.000000E+00
  7.860720E-05 -3.611561E-04  5.000000E-01  7.940613E-05 -4.343458E-04  0.000000E+00  6.649187E-03 -1.319258E-02 -7.061060E-15  1.010782E+00  0.000000E+00
  3.989240E-04 -8.630105E-04  5.000000E-01  4.029578E-04 -9.412684E-04  0.000000E+00  1.465420E-02 -1.552119E-02 -5.077149E-15  8.089705E-01  0.000000E+00
  1.196920E-03 -1.472148E-03  5.000000E-01  1.209013E-03 -1.556558E-03  0.000000E+00  1.859978E-02 -1.150283E-02 -2.678736E-15  5.430858E-01  0.000000E+00
  2.563580E-03 -2.115445E-03  5.000000E-01  2.589474E-03 -2.206351E-03  0.000000E+00  1.802654E-02 -7.344462E-03 -7.817325E-16  3.976273E-01  0.000000E+00
  4.492740E-03 -2.762923E-03  5.000000E-01  4.538117E-03 -2.860368E-03  0.000000E+00  1.654621E-02 -4.986979E-03  1.790600E-16  3.455907E-01  0.000000E+00
  6.952190E-03 -3.415301E-03  5.000000E-01  7.022404E-03 -3.519334E-03  0.000000E+00  1.576954E-02 -3.899404E-03  3.957752E-16  3.200100E-01  0.000000E+00
  9.910730E-03 -4.093703E-03  5.000000E-01  1.001082E-02 -4.204587E-03  0.000000E+00  1.575784E-02 -3.472995E-03  2.814308E-16  2.929711E-01  0.000000E+00
  1.334950E-02 -4.822267E-03  5.000000E-01  1.348432E-02 -4.940509E-03  0.000000E+00  1.615261E-02 -3.269569E-03  1.267547E-16  2.540419E-01  0.000000E+00
  1.728780E-02 -5.584786E-03  5.000000E-01  1.746239E-02 -5.710729E-03  0.000000E+00  1.655524E-02 -2.997887E-03  3.228338E-17  2.025211E-01  0.000000E+00
  2.175590E-02 -6.338865E-03  5.000000E-01  2.197562E-02 -6.472423E-03  0.000000E+00  1.673394E-02 -2.600801E-03 -3.798067E-18  1.530212E-01  0.000000E+00
  2.676920E-02 -7.049850E-03  5.000000E-01  2.703954E-02 -7.190589E-03  0.000000E+00  1.667355E-02 -2.166366E-03 -9.051932E-18  1.188647E-01  0.000000E+00
  3.232800E-02 -7.704311E-03  5.000000E-01  3.265448E-02 -7.851658E-03  0.000000E+00  1.646605E-02 -1.778633E-03 -5.458291E-18  1.008336E-01  0.000000E+00
  3.842930E-02 -8.303299E-03  5.000000E-01  3.881740E-02 -8.456695E-03  0.000000E+00  1.620526E-02 -1.468856E-03 -1.906260E-18  9.200286E-02  0.000000E+00
  4.507220E-02 -8.854822E-03  5.000000E-01  4.552738E-02 -9.013788E-03  0.000000E+00  1.596895E-02 -1.249540E-03 -1.139654E-18  8.729699E-02  0.000000E+00
  5.225680E-02 -9.381820E-03  5.000000E-01  5.278454E-02 -9.546109E-03  0.000000E+00  1.581763E-02 -1.120217E-03 -2.206731E-19  8.399028E-02  0.000000E+00
  5.998640E-02 -9.909908E-03  5.000000E-01  6.059220E-02 -1.007953E-02  0.000000E+00  1.575815E-02 -1.039510E-03  2.175225E-19  7.682983E-02  0.000000E+00
  6.827110E-02 -1.043791E-02  5.000000E-01  6.896057E-02 -1.061286E-02  0.000000E+00  1.575145E-02 -9.599769E-04 -1.688283E-19  6.310023E-02  0.000000E+00
  7.712280E-02 -1.095271E-02  5.000000E-01  7.790166E-02 -1.113286E-02  0.000000E+00  1.576072E-02 -8.677809E-04  7.729863E-19  4.617714E-02  0.000000E+00
  8.655260E-02 -1.144214E-02  5.000000E-01  8.742669E-02 -1.162724E-02  0.000000E+00  1.575990E-02 -7.601747E-04  1.144915E-18  2.925988E-02  0.000000E+00
  9.657140E-02 -1.188875E-02  5.000000E-01  9.754667E-02 -1.207835E-02  0.000000E+00  1.571988E-02 -6.251778E-04  1.244153E-18  1.246378E-02  0.000000E+00
  1.071900E-01 -1.226023E-02  5.000000E-01  1.082725E-01 -1.245358E-02  0.000000E+00  1.562086E-02 -4.594463E-04  1.040634E-18 -3.371177E-03  0.000000E+00
  1.184180E-01 -1.252699E-02  5.000000E-01  1.196139E-01 -1.272304E-02  0.000000E+00  1.547050E-02 -2.809870E-04  5.603215E-19 -1.526970E-02  0.000000E+00
  1.302610E-01 -1.267456E-02  5.000000E-01  1.315765E-01 -1.287210E-02  0.000000E+00  1.528584E-02 -1.074048E-04  6.470752E-19 -2.221571E-02  0.000000E+00
  1.427230E-01 -1.269344E-02  5.000000E-01  1.441643E-01 -1.289117E-02  0.000000E+00  1.506682E-02  5.625128E-05  1.477066E-19 -2.555846E-02  0.000000E+00
  1.427230E-01 -1.269344E-02  5.000000E-01  1.441643E-01 -1.289117E-02  0.000000E+00  1.506682E-02  5.625128E-05  1.477066E-19 -2.555846E-02  0.000000E+00
  1.558070E-01 -1.257514E-02  5.000000E-01  1.573805E-01 -1.277168E-02  0.000000E+00  1.478511E-02  2.172160E-04 -2.366390E-19 -2.696892E-02  0.000000E+00
  1.695140E-01 -1.229528E-02  5.000000E-01  1.712259E-01 -1.248899E-02  0.000000E+00  1.439386E-02  3.870569E-04  1.079369E-21 -2.676909E-02  0.000000E+00
  1.838420E-01 -1.181457E-02  5.000000E-01  1.856986E-01 -1.200343E-02  0.000000E+00  1.385688E-02  5.652943E-04  1.215246E-18 -2.270841E-02  0.000000E+00
  1.987870E-01 -1.109152E-02  5.000000E-01  2.007945E-01 -1.127308E-02  0.000000E+00  1.317358E-02  7.346585E-04  3.200544E-18 -1.153488E-02  0.000000E+00
  2.143420E-01 -1.010151E-02  5.000000E-01  2.165066E-01 -1.027307E-02  0.000000E+00  1.238897E-02  8.657496E-04  1.753833E-18  9.216593E-03  0.000000E+00
  2.304940E-01 -8.864051E-03  5.000000E-01  2.328217E-01 -9.023110E-03  0.000000E+00  1.157801E-02  9.351232E-04  4.604371E-21  3.899256E-02  0.000000E+00
  2.472290E-01 -7.437424E-03  5.000000E-01  2.497257E-01 -7.582076E-03  0.000000E+00  1.081742E-02  9.410283E-04 -1.133434E-19  7.375717E-02  0.000000E+00
  2.645310E-01 -5.900721E-03  5.000000E-01  2.672025E-01 -6.029855E-03  0.000000E+00  1.016805E-02  9.023232E-04 -3.504961E-19  1.081257E-01  0.000000E+00
  2.823750E-01 -4.320220E-03  5.000000E-01  2.852267E-01 -4.433392E-03  0.000000E+00  9.674531E-03  8.413843E-04  4.043857E-19  1.383169E-01  0.000000E+00
  3.007320E-01 -2.755057E-03  5.000000E-01  3.037691E-01 -2.852423E-03  0.000000E+00  9.372998E-03  7.635825E-04  7.318620E-19  1.640489E-01  0.000000E+00
  3.195690E-01 -1.291521E-03  5.000000E-01  3.227963E-01 -1.374107E-03  0.000000E+00  9.280384E-03  6.603941E-04  7.679794E-19  1.862581E-01  0.000000E+00
  3.388440E-01 -4.471918E-05  5.000000E-01  3.422660E-01 -1.147133E-04  0.000000E+00  9.354837E-03  5.406793E-04  9.281244E-19  2.016746E-01  0.000000E+00
  3.585140E-01  9.545400E-04  5.000000E-01  3.621346E-01  8.946373E-04  0.000000E+00  9.476714E-03  4.399417E-04  5.684164E-19  2.050577E-01  0.000000E+00
  3.785290E-01  1.794039E-03  5.000000E-01  3.823517E-01  1.742614E-03  0.000000E+00  9.495096E-03  3.817445E-04 -4.744630E-19  1.996237E-01  0.000000E+00
  3.988350E-01  2.576799E-03  5.000000E-01  4.028628E-01  2.533279E-03  0.000000E+00  9.288637E-03  3.673471E-04  4.079317E-19  1.946980E-01  0.000000E+00
  4.193750E-01  3.411567E-03  5.000000E-01  4.236102E-01  3.376477E-03  0.000000E+00  8.806124E-03  3.949297E-04  1.841438E-18  1.953857E-01  0.000000E+00
  4.400850E-01  4.430508E-03  5.000000E-01  4.445294E-01  4.405708E-03  0.000000E+00  8.112653E-03  4.399132E-04  1.792942E-18  2.043476E-01  0.000000E+00
  4.609060E-01  5.680836E-03  5.000000E-01  4.655606E-01  5.668664E-03  0.000000E+00  7.430758E-03  4.303296E-04  2.216476E-18  2.301683E-01  0.000000E+00
  4.818030E-01  6.855672E-03  5.000000E-01  4.866687E-01  6.855364E-03  0.000000E+00  7.067710E-03  3.142690E-04  1.321742E-18  2.708621E-01  0.000000E+00
  5.027520E-01  7.534980E-03  5.000000E-01  5.078292E-01  7.541533E-03  0.000000E+00  7.278691E-03  8.883339E-05  3.518245E-19  3.043256E-01  0.000000E+00
  5.237130E-01  7.388008E-03  5.000000E-01  5.290019E-01  7.393076E-03  0.000000E+00  8.212644E-03 -2.714454E-04  2.464314E-19  3.106363E-01  0.000000E+00
  5.446170E-01  6.235822E-03  5.000000E-01  5.501170E-01  6.229254E-03  0.000000E+00  9.891813E-03 -8.223831E-04 -1.986437E-18  2.857495E-01  0.000000E+00
  5.653940E-01  4.034981E-03  5.000000E-01  5.711039E-01  4.006187E-03  0.000000E+00  1.209806E-02 -1.452035E-03 -1.121881E-18  2.211982E-01  0.000000E+00
  4.675910E-01  7.723291E-02  5.000000E-01  4.723132E-01  7.794333E-02  0.000000E+00  6.147015E-03 -9.667985E-04 -4.250842E-19 -5.413587E-01  0.000000E+00
  4.464640E-01  8.062501E-02  5.000000E-01  4.509728E-01  8.136969E-02  0.000000E+00  6.134044E-03 -1.028068E-03 -1.534469E-18 -6.233886E-01  0.000000E+00
  4.254410E-01  8.427419E-02  5.000000E-01  4.297375E-01  8.505573E-02  0.000000E+00  6.585922E-03 -1.157614E-03 -3.360252E-18 -7.902861E-01  0.000000E+00
  4.045840E-01  8.793050E-02  5.000000E-01  4.086699E-01  8.874896E-02  0.000000E+00  8.163889E-03 -1.350184E-03 -3.578223E-18 -1.071264E+00  0.000000E+00
  3.839530E-01  9.113002E-02  5.000000E-01  3.878305E-01  9.198079E-02  0.000000E+00  1.161182E-02 -1.515047E-03 -4.824691E-19 -1.441229E+00  0.000000E+00
  3.636060E-01  9.343109E-02  5.000000E-01  3.672780E-01  9.430510E-02  0.000000E+00  1.734815E-02 -1.290579E-03  1.437872E-18 -1.784685E+00  0.000000E+00
  3.435960E-01  9.443653E-02  5.000000E-01  3.470659E-01  9.532069E-02  0.000000E+00  2.467002E-02 -3.310191E-05  1.062458E-18 -1.946310E+00  0.000000E+00
  3.239710E-01  9.380774E-02  5.000000E-01  3.272428E-01  9.468556E-02  0.000000E+00  3.116529E-02  2.462143E-03  1.641152E-18 -1.859131E+00  0.000000E+00
  3.047740E-01  9.153996E-02  5.000000E-01  3.078519E-01  9.239487E-02  0.000000E+00  3.416015E-02  5.139933E-03  5.900597E-19 -1.607574E+00  0.000000E+00
  2.860450E-01  8.811771E-02  5.000000E-01  2.889337E-01  8.893805E-02  0.000000E+00  3.330622E-02  6.759590E-03  7.607222E-19 -1.317295E+00  0.000000E+00
  2.678190E-01  8.401380E-02  5.000000E-01  2.705237E-01  8.479271E-02  0.000000E+00  3.025018E-02  7.146758E-03  9.722559E-19 -1.054869E+00  0.000000E+00
  2.501300E-01  7.960949E-02  5.000000E-01  2.526560E-01  8.034392E-02  0.000000E+00  2.666042E-02  6.755455E-03 -2.005068E-18 -8.432609E-01  0.000000E+00
  2.330040E-01  7.518231E-02  5.000000E-01  2.353571E-01  7.587202E-02  0.000000E+00  2.350706E-02  6.071310E-03 -1.392300E-18 -6.855311E-01  0.000000E+00
  2.164660E-01  7.091382E-02  5.000000E-01  2.186521E-01  7.156042E-02  0.000000E+00  2.115134E-02  5.392772E-03  3.453812E-19 -5.773479E-01  0.000000E+00
  2.005340E-01  6.690580E-02  5.000000E-01  2.025592E-01  6.751194E-02  0.000000E+00  1.961562E-02  4.867367E-03  1.575148E-18 -5.080704E-01  0.000000E+00
  1.852230E-01  6.316354E-02  5.000000E-01  1.870936E-01  6.373188E-02  0.000000E+00  1.877588E-02  4.547563E-03  3.349359E-19 -4.637666E-01  0.000000E+00
  1.705440E-01  5.964314E-02  5.000000E-01  1.722663E-01  6.017593E-02  0.000000E+00  1.844995E-02  4.406574E-03 -2.043100E-18 -4.359159E-01  0.000000E+00
  1.565000E-01  5.630280E-02  5.000000E-01  1.580805E-01  5.680185E-02  0.000000E+00  1.846320E-02  4.394012E-03  2.068958E-19 -4.223157E-01  0.000000E+00
  1.430940E-01  5.310907E-02  5.000000E-01  1.445391E-01  5.357587E-02  0.000000E+00  1.869276E-02  4.489864E-03  1.945772E-18 -4.208080E-01  0.000000E+00
  1.303270E-01  5.001729E-02  5.000000E-01  1.316432E-01  5.045287E-02  0.000000E+00  1.906197E-02  4.714055E-03  7.638061E-19 -4.227508E-01  0.000000E+00
  1.182110E-01  4.696092E-02  5.000000E-01  1.194048E-01  4.736564E-02  0.000000E+00  1.948920E-02  5.069134E-03  6.320673E-19 -4.162855E-01  0.000000E+00
  1.067560E-01  4.389595E-02  5.000000E-01  1.078341E-01  4.426970E-02  0.000000E+00  1.986267E-02  5.505105E-03 -7.703756E-19 -3.930865E-01  0.000000E+00
  9.596750E-02  4.080545E-02  5.000000E-01  9.693667E-02  4.114799E-02  0.000000E+00  2.006653E-02  5.912260E-03 -2.006578E-18 -3.572391E-01  0.000000E+00
  8.582800E-02  3.773377E-02  5.000000E-01  8.669477E-02  3.804530E-02  0.000000E+00  2.006062E-02  6.198601E-03  3.691064E-19 -3.215922E-01  0.000000E+00
  8.582800E-02  3.773377E-02  5.000000E-01  8.669477E-02  3.804530E-02  0.000000E+00  2.006062E-02  6.198601E-03  3.691064E-19 -3.215922E-01  0.000000E+00
  7.631050E-02  3.473393E-02  5.000000E-01  7.708116E-02  3.501516E-02  0.000000E+00  1.991843E-02  6.411718E-03  1.156303E-18 -2.883505E-01  0.000000E+00
  6.740780E-02  3.180857E-02  5.000000E-01  6.808855E-02  3.206026E-02  0.000000E+00  1.972728E-02  6.638540E-03  8.461136E-19 -2.523511E-01  0.000000E+00
  5.911740E-02  2.895272E-02  5.000000E-01  5.971443E-02  2.917556E-02  0.000000E+00  1.951772E-02  6.888259E-03  1.447217E-18 -2.122884E-01  0.000000E+00
  5.143150E-02  2.617467E-02  5.000000E-01  5.195091E-02  2.636946E-02  0.000000E+00  1.928452E-02  7.134691E-03  2.152460E-18 -1.688388E-01  0.000000E+00
  4.433770E-02  2.348910E-02  5.000000E-01  4.478547E-02  2.365677E-02  0.000000E+00  1.901070E-02  7.359399E-03  2.531631E-18 -1.231416E-01  0.000000E+00
  3.782240E-02  2.091053E-02  5.000000E-01  3.820437E-02  2.105216E-02  0.000000E+00  1.868198E-02  7.560311E-03  1.851119E-18 -7.709568E-02  0.000000E+00
  3.187460E-02  1.844897E-02  5.000000E-01  3.219650E-02  1.856574E-02  0.000000E+00  1.829836E-02  7.748190E-03 -1.023301E-18 -3.313312E-02  0.000000E+00
  2.648400E-02  1.611286E-02  5.000000E-01  2.675146E-02  1.620604E-02  0.000000E+00  1.787446E-02  7.959955E-03 -5.894900E-18  1.142360E-02  0.000000E+00
  2.164990E-02  1.390175E-02  5.000000E-01  2.186854E-02  1.397260E-02  0.000000E+00  1.740101E-02  8.229819E-03 -9.911245E-18  6.714145E-02  0.000000E+00
  1.737670E-02  1.181397E-02  5.000000E-01  1.755219E-02  1.186373E-02  0.000000E+00  1.682477E-02  8.487492E-03 -8.339621E-18  1.381455E-01  0.000000E+00
  1.364080E-02  9.867840E-03  5.000000E-01  1.377856E-02  9.897951E-03  0.000000E+00  1.613945E-02  8.606310E-03  1.701773E-17  2.130786E-01  0.000000E+00
  1.039090E-02  8.091735E-03  5.000000E-01  1.049584E-02  8.103910E-03  0.000000E+00  1.547578E-02  8.617643E-03  9.569152E-17  2.788395E-01  0.000000E+00
  7.586340E-03  6.499313E-03  5.000000E-01  7.662959E-03  6.495406E-03  0.000000E+00  1.503562E-02  8.783003E-03  2.329990E-16  3.365098E-01  0.000000E+00
  5.226210E-03  5.081687E-03  5.000000E-01  5.278994E-03  5.063464E-03  0.000000E+00  1.493547E-02  9.415269E-03  3.376928E-16  3.961150E-01  0.000000E+00
  3.324300E-03  3.826263E-03  5.000000E-01  3.357877E-03  3.795362E-03  0.000000E+00  1.508713E-02  1.072418E-02  1.511576E-16  4.664786E-01  0.000000E+00
  1.883580E-03  2.730427E-03  5.000000E-01  1.902607E-03  2.688459E-03  0.000000E+00  1.498390E-02  1.274760E-02 -6.880029E-16  5.648508E-01  0.000000E+00
  8.951490E-04  1.800140E-03  5.000000E-01  9.041941E-04  1.748777E-03  0.000000E+00  1.338731E-02  1.480233E-02 -2.360908E-15  7.146253E-01  0.000000E+00
  3.201820E-04  1.051407E-03  5.000000E-01  3.234206E-04  9.924830E-04  0.000000E+00  9.059273E-03  1.440482E-02 -4.565187E-15  9.006520E-01  0.000000E+00
  6.852390E-05  5.052760E-04  5.000000E-01  6.922100E-05  4.408363E-04  0.000000E+00  3.470023E-03  8.331137E-03 -6.585850E-15  1.021301E+00  0.000000E+00
  4.217600E-06  1.774437E-04  5.000000E-01  4.265276E-06  1.096932E-04  0.000000E+00  1.677084E-04 -5.165294E-04 -7.760620E-15  9.789784E-01  0.000000E+00
 -5.032520E-09  6.884721E-05  5.000000E-01  0.000000E+00  0.000000E+00  0.000000E+00 -4.110586E-04 -3.016096E-03 -8.127667E-15  9.098184E-01  0.000000E+00
  5.154440E-06 -3.999617E-05  5.000000E-01  5.211577E-06 -1.099426E-04  0.000000E+00  9.836032E-04 -5.442361E-03 -8.002159E-15  9.808221E-01  0.000000E+00