 Title = "ADflow Slice Data"
Variables =  "CoordinateX"  "CoordinateY"  "CoordinateZ"  "XoC"  "YoC"  "ZoC" "VelocityX" "VelocityY" "VelocityZ" "CoefPressure" "Mach" 
Zone T= "Slice_0001 None Absolute Regular z = 0.50000000"
 Nodes =          192  Elements=          184  ZONETYPE=FELINESEG
 DATAPACKING=POINT
  5.653940E-01 -3.841901E-04  5.000000E-01  5.711040E-01 -4.635524E-04  0.000000E+00  8.979838E-03  7.247448E-04 -7.511126E-19  1.779029E-01  0.000000E+00
  5.859770E-01  1.331435E-03  5.000000E-01  5.918949E-01  1.269399E-03  0.000000E+00  8.621094E-03  7.361003E-04 -1.290645E-18  1.901523E-01  0.000000E+00
  6.063060E-01  3.111232E-03  5.000000E-01  6.124292E-01  3.067170E-03  0.000000E+00  8.234857E-03  7.282414E-04 -6.297848E-19  2.090193E-01  0.000000E+00
  6.263240E-01  4.899552E-03  5.000000E-01  6.326493E-01  4.873551E-03  0.000000E+00  7.863103E-03  6.932896E-04 -8.600319E-19  2.308116E-01  0.000000E+00
  6.459860E-01  6.609077E-03  5.000000E-01  6.525099E-01  6.600340E-03  0.000000E+00  7.540930E-03  6.323684E-04 -1.088087E-18  2.526086E-01  0.000000E+00
  6.652460E-01  8.161712E-03  5.000000E-01  6.719644E-01  8.168657E-03  0.000000E+00  7.282550E-03  5.569483E-04 -6.432663E-19  2.715501E-01  0.000000E+00
  6.840650E-01  9.518867E-03  5.000000E-01  6.909735E-01  9.539517E-03  0.000000E+00  7.080803E-03  4.814342E-04  1.695791E-20  2.858071E-01  0.000000E+00
  7.024070E-01  1.068755E-02  5.000000E-01  7.095007E-01  1.072000E-02  0.000000E+00  6.922283E-03  4.116780E-04  8.142741E-19  2.963848E-01  0.000000E+00
  7.202400E-01  1.167189E-02  5.000000E-01  7.275138E-01  1.171429E-02  0.000000E+00  6.801079E-03  3.442875E-04  4.758273E-19  3.056434E-01  0.000000E+00
  7.375350E-01  1.246776E-02  5.000000E-01  7.449835E-01  1.251819E-02  0.000000E+00  6.718961E-03  2.756687E-04 -3.823784E-19  3.141888E-01  0.000000E+00
  7.542690E-01  1.307007E-02  5.000000E-01  7.618865E-01  1.312658E-02  0.000000E+00  6.682198E-03  2.039374E-04 -9.839667E-20  3.214105E-01  0.000000E+00
  7.704220E-01  1.347417E-02  5.000000E-01  7.782026E-01  1.353476E-02  0.000000E+00  6.699117E-03  1.276124E-04  2.356046E-19  3.266385E-01  0.000000E+00
  7.859770E-01  1.367818E-02  5.000000E-01  7.939147E-01  1.374084E-02  0.000000E+00  6.777949E-03  4.389863E-05  1.387472E-19  3.296515E-01  0.000000E+00
  8.009220E-01  1.367788E-02  5.000000E-01  8.090106E-01  1.374053E-02  0.000000E+00  6.922855E-03 -4.907982E-05  5.915532E-20  3.303412E-01  0.000000E+00
  8.152480E-01  1.347725E-02  5.000000E-01  8.234813E-01  1.353788E-02  0.000000E+00  7.126186E-03 -1.453594E-04  1.619576E-19  3.275832E-01  0.000000E+00
  8.289490E-01  1.311195E-02  5.000000E-01  8.373207E-01  1.316889E-02  0.000000E+00  7.367954E-03 -2.352612E-04  2.741330E-19  3.208697E-01  0.000000E+00
  8.420260E-01  1.262780E-02  5.000000E-01  8.505298E-01  1.267985E-02  0.000000E+00  7.624934E-03 -3.142193E-04  1.260072E-19  3.117518E-01  0.000000E+00
  8.544790E-01  1.206457E-02  5.000000E-01  8.631085E-01  1.211093E-02  0.000000E+00  7.876147E-03 -3.811003E-04  5.089843E-21  3.018893E-01  0.000000E+00
  8.663160E-01  1.145569E-02  5.000000E-01  8.750651E-01  1.149590E-02  0.000000E+00  8.103413E-03 -4.352174E-04  2.704263E-19  2.920869E-01  0.000000E+00
  8.775420E-01  1.082797E-02  5.000000E-01  8.864044E-01  1.086184E-02  0.000000E+00  8.292352E-03 -4.759027E-04  2.504013E-20  2.828093E-01  0.000000E+00
  8.881660E-01  1.020282E-02  5.000000E-01  8.971357E-01  1.023038E-02  0.000000E+00  8.434438E-03 -5.030816E-04 -2.748739E-19  2.744146E-01  0.000000E+00
  8.981970E-01  9.596495E-03  5.000000E-01  9.072680E-01  9.617930E-03  0.000000E+00  8.530263E-03 -5.208015E-04  1.792338E-19  2.674287E-01  0.000000E+00
  9.076460E-01  9.014238E-03  5.000000E-01  9.168125E-01  9.029792E-03  0.000000E+00  8.592209E-03 -5.386116E-04  2.089033E-19  2.625463E-01  0.000000E+00
  9.165220E-01  8.448692E-03  5.000000E-01  9.257781E-01  8.458534E-03  0.000000E+00  8.639117E-03 -5.638228E-04 -1.151988E-19  2.593805E-01  0.000000E+00
  9.165220E-01  8.448692E-03  5.000000E-01  9.257781E-01  8.458534E-03  0.000000E+00  8.639117E-03 -5.638228E-04 -1.151988E-19  2.593805E-01  0.000000E+00
  9.248360E-01  7.893089E-03  5.000000E-01  9.341761E-01  7.897320E-03  0.000000E+00  8.687037E-03 -5.974553E-04 -5.405181E-19  2.566060E-01  0.000000E+00
  9.325990E-01  7.343977E-03  5.000000E-01  9.420175E-01  7.342663E-03  0.000000E+00  8.746803E-03 -6.387767E-04 -7.552250E-19  2.534864E-01  0.000000E+00
  9.398210E-01  6.800080E-03  5.000000E-01  9.493124E-01  6.793272E-03  0.000000E+00  8.825825E-03 -6.872589E-04 -3.538136E-19  2.498592E-01  0.000000E+00
  9.465130E-01  6.262026E-03  5.000000E-01  9.560720E-01  6.249785E-03  0.000000E+00  8.929043E-03 -7.423943E-04  3.029020E-19  2.456154E-01  0.000000E+00
  9.526870E-01  5.731966E-03  5.000000E-01  9.623083E-01  5.714372E-03  0.000000E+00  9.059106E-03 -8.036964E-04  4.551278E-19  2.406274E-01  0.000000E+00
  9.583540E-01  5.213218E-03  5.000000E-01  9.680326E-01  5.190384E-03  0.000000E+00  9.216892E-03 -8.706614E-04  4.118801E-19  2.348111E-01  0.000000E+00
  9.635240E-01  4.709968E-03  5.000000E-01  9.732548E-01  4.682053E-03  0.000000E+00  9.402325E-03 -9.425986E-04 -1.917877E-20  2.281054E-01  0.000000E+00
  9.682080E-01  4.227018E-03  5.000000E-01  9.779861E-01  4.194225E-03  0.000000E+00  9.616178E-03 -1.019100E-03 -5.768389E-19  2.205258E-01  0.000000E+00
  9.724140E-01  3.769476E-03  5.000000E-01  9.822346E-01  3.732062E-03  0.000000E+00  9.862429E-03 -1.100035E-03 -6.740485E-19  2.121324E-01  0.000000E+00
  9.761510E-01  3.342617E-03  5.000000E-01  9.860093E-01  3.300893E-03  0.000000E+00  1.014839E-02 -1.185138E-03 -6.815869E-19  2.029466E-01  0.000000E+00
  9.794290E-01  2.951643E-03  5.000000E-01  9.893204E-01  2.905970E-03  0.000000E+00  1.047821E-02 -1.274410E-03 -4.882255E-19  1.930300E-01  0.000000E+00
  9.822540E-01  2.601513E-03  5.000000E-01  9.921739E-01  2.552304E-03  0.000000E+00  1.083621E-02 -1.366372E-03  2.467668E-19  1.826580E-01  0.000000E+00
  9.846330E-01  2.296811E-03  5.000000E-01  9.945770E-01  2.244525E-03  0.000000E+00  1.117064E-02 -1.452237E-03  1.868821E-18  1.730725E-01  0.000000E+00
  9.865710E-01  2.041601E-03  5.000000E-01  9.965345E-01  1.986737E-03  0.000000E+00  1.135896E-02 -1.503916E-03  2.867395E-18  1.631976E-01  0.000000E+00
  9.880740E-01  1.839371E-03  5.000000E-01  9.980527E-01  1.782465E-03  0.000000E+00  1.120007E-02 -1.521751E-03 -2.057143E-18  1.466844E-01  0.000000E+00
  9.891450E-01  1.692882E-03  5.000000E-01  9.991345E-01  1.634496E-03  0.000000E+00  1.135755E-02 -1.642433E-03 -2.562570E-17  1.492850E-01  0.000000E+00
  9.897860E-01  1.604157E-03  5.000000E-01  9.997820E-01  1.544876E-03  0.000000E+00  1.465055E-02 -1.569477E-03 -7.340326E-17  1.981492E-01  0.000000E+00
  9.900000E-01  1.574458E-03  5.000000E-01  9.999982E-01  1.514876E-03  0.000000E+00  1.024689E-02 -4.001452E-03 -7.784123E-17 -3.527373E-02  0.000000E+00
  9.900000E-01  1.653168E-03  5.000000E-01  9.999982E-01  1.594381E-03  0.000000E+00  1.026559E-03 -1.436249E-02  3.435263E-18 -1.677353E-01  0.000000E+00
  9.900000E-01  1.731888E-03  5.000000E-01  9.999982E-01  1.673896E-03  0.000000E+00 -5.139672E-04 -1.354303E-02  8.265131E-17  4.092928E-03  0.000000E+00
  9.900000E-01  1.810608E-03  5.000000E-01  9.999982E-01  1.753411E-03  0.000000E+00 -2.982120E-04  2.468756E-03  1.011954E-16 -9.176410E-05  0.000000E+00
  9.900000E-01  1.889318E-03  5.000000E-01  9.999982E-01  1.832916E-03  0.000000E+00  7.054805E-04  3.844041E-03  1.318959E-16 -1.166637E-01  0.000000E+00
  9.900000E-01  1.968038E-03  5.000000E-01  9.999982E-01  1.912431E-03  0.000000E+00  5.813316E-03 -2.425500E-03  1.713139E-16 -2.270969E-02  0.000000E+00
  9.900000E-01  1.968038E-03  5.000000E-01  9.999982E-01  1.912431E-03  0.000000E+00  5.813316E-03 -2.425500E-03  1.713139E-16 -2.270969E-02  0.000000E+00
  9.897900E-01  2.007669E-03  5.000000E-01  9.997861E-01  1.952463E-03  0.000000E+00  7.554357E-03 -1.757154E-03  1.239146E-16  1.190411E-01  0.000000E+00
  9.891580E-01  2.126624E-03  5.000000E-01  9.991477E-01  2.072619E-03  0.000000E+00  4.690258E-03 -8.232020E-04  4.186819E-17  7.716405E-02  0.000000E+00
  9.881040E-01  2.325209E-03  5.000000E-01  9.980830E-01  2.273209E-03  0.000000E+00  3.961462E-03 -7.448101E-04  3.719445E-18  6.817680E-02  0.000000E+00
  9.866260E-01  2.603884E-03  5.000000E-01  9.965901E-01  2.554699E-03  0.000000E+00  3.766759E-03 -7.162802E-04 -4.446478E-18  7.164326E-02  0.000000E+00
  9.847200E-01  2.963255E-03  5.000000E-01  9.946648E-01  2.917699E-03  0.000000E+00  3.643122E-03 -6.865161E-04 -2.967912E-18  6.842461E-02  0.000000E+00
  9.823820E-01  3.404084E-03  5.000000E-01  9.923032E-01  3.362981E-03  0.000000E+00  3.626672E-03 -6.832928E-04 -8.019794E-19  6.269296E-02  0.000000E+00
  9.796080E-01  3.927258E-03  5.000000E-01  9.895012E-01  3.891438E-03  0.000000E+00  3.704384E-03 -6.985551E-04 -2.709340E-19  5.649488E-02  0.000000E+00
  9.763910E-01  4.533721E-03  5.000000E-01  9.862517E-01  4.504026E-03  0.000000E+00  3.840188E-03 -7.240134E-04 -2.827150E-19  4.929555E-02  0.000000E+00
  9.727270E-01  5.224454E-03  5.000000E-01  9.825507E-01  5.201734E-03  0.000000E+00  4.009972E-03 -7.555765E-04 -3.405280E-19  4.092658E-02  0.000000E+00
  9.686070E-01  6.000435E-03  5.000000E-01  9.783891E-01  5.985552E-03  0.000000E+00  4.199573E-03 -7.904610E-04 -5.617156E-19  3.154793E-02  0.000000E+00
  9.640240E-01  6.862560E-03  5.000000E-01  9.737598E-01  6.856384E-03  0.000000E+00  4.401733E-03 -8.270947E-04 -8.262455E-19  2.122696E-02  0.000000E+00
  9.589680E-01  7.811585E-03  5.000000E-01  9.686528E-01  7.814993E-03  0.000000E+00  4.614435E-03 -8.649571E-04 -4.630064E-19  9.988508E-03  0.000000E+00
  9.534310E-01  8.848082E-03  5.000000E-01  9.630599E-01  8.861958E-03  0.000000E+00  4.838328E-03 -9.039885E-04 -2.525910E-19 -2.159438E-03  0.000000E+00
  9.474030E-01  9.972329E-03  5.000000E-01  9.569710E-01  9.997559E-03  0.000000E+00  5.074424E-03 -9.439414E-04 -9.400157E-19 -1.512785E-02  0.000000E+00
  9.408720E-01  1.118421E-02  5.000000E-01  9.503740E-01  1.122167E-02  0.000000E+00  5.322791E-03 -9.845591E-04 -1.490548E-18 -2.889082E-02  0.000000E+00
  9.338280E-01  1.248316E-02  5.000000E-01  9.432589E-01  1.253374E-02  0.000000E+00  5.582761E-03 -1.025471E-03 -6.115289E-19 -4.343391E-02  0.000000E+00
  9.262600E-01  1.386810E-02  5.000000E-01  9.356145E-01  1.393268E-02  0.000000E+00  5.852846E-03 -1.065831E-03  6.779420E-19 -5.866976E-02  0.000000E+00
  9.181550E-01  1.533705E-02  5.000000E-01  9.274276E-01  1.541646E-02  0.000000E+00  6.130440E-03 -1.104639E-03  1.025951E-18 -7.455871E-02  0.000000E+00
  9.095020E-01  1.688740E-02  5.000000E-01  9.186872E-01  1.698247E-02  0.000000E+00  6.411865E-03 -1.140616E-03  1.112580E-18 -9.090793E-02  0.000000E+00
  9.002880E-01  1.851528E-02  5.000000E-01  9.093802E-01  1.862679E-02  0.000000E+00  6.691499E-03 -1.172292E-03 -7.307475E-20 -1.072573E-01  0.000000E+00
  8.905020E-01  2.021594E-02  5.000000E-01  8.994953E-01  2.034463E-02  0.000000E+00  6.961839E-03 -1.199415E-03 -3.706065E-19 -1.233270E-01  0.000000E+00
  8.801320E-01  2.198757E-02  5.000000E-01  8.890206E-01  2.213414E-02  0.000000E+00  7.216736E-03 -1.223452E-03 -2.021293E-20 -1.392592E-01  0.000000E+00
  8.691700E-01  2.383199E-02  5.000000E-01  8.779479E-01  2.399719E-02  0.000000E+00  7.454956E-03 -1.246156E-03 -8.181639E-19 -1.552937E-01  0.000000E+00
  8.691700E-01  2.383199E-02  5.000000E-01  8.779479E-01  2.399719E-02  0.000000E+00  7.454956E-03 -1.246156E-03 -8.181639E-19 -1.552937E-01  0.000000E+00
  8.576080E-01  2.575240E-02  5.000000E-01  8.662691E-01  2.593699E-02  0.000000E+00  7.680754E-03 -1.268989E-03 -1.063781E-18 -1.715783E-01  0.000000E+00
  8.454380E-01  2.775281E-02  5.000000E-01  8.539762E-01  2.795761E-02  0.000000E+00  7.902827E-03 -1.294032E-03  2.874750E-20 -1.884016E-01  0.000000E+00
  8.326580E-01  2.983790E-02  5.000000E-01  8.410671E-01  3.006376E-02  0.000000E+00  8.134023E-03 -1.323652E-03  2.149830E-19 -2.063891E-01  0.000000E+00
  8.192630E-01  3.201215E-02  5.000000E-01  8.275369E-01  3.225996E-02  0.000000E+00  8.391030E-03 -1.359993E-03 -1.040500E-19 -2.268219E-01  0.000000E+00
  8.052550E-01  3.427837E-02  5.000000E-01  8.133874E-01  3.454907E-02  0.000000E+00  8.693562E-03 -1.403041E-03 -9.589085E-19 -2.509690E-01  0.000000E+00
  7.906370E-01  3.663136E-02  5.000000E-01  7.986218E-01  3.692583E-02  0.000000E+00  9.059029E-03 -1.446898E-03 -2.804256E-18 -2.782893E-01  0.000000E+00
  7.754120E-01  3.904536E-02  5.000000E-01  7.832430E-01  3.936420E-02  0.000000E+00  9.490293E-03 -1.482886E-03 -2.959617E-18 -3.069382E-01  0.000000E+00
  7.595880E-01  4.148333E-02  5.000000E-01  7.672592E-01  4.182680E-02  0.000000E+00  9.970308E-03 -1.507259E-03 -1.809643E-18 -3.361507E-01  0.000000E+00
  7.431760E-01  4.391876E-02  5.000000E-01  7.506815E-01  4.428682E-02  0.000000E+00  1.047302E-02 -1.518103E-03 -1.502485E-18 -3.655452E-01  0.000000E+00
  7.261880E-01  4.632531E-02  5.000000E-01  7.335219E-01  4.671768E-02  0.000000E+00  1.097181E-02 -1.511336E-03 -1.974548E-18 -3.938222E-01  0.000000E+00
  7.086430E-01  4.867656E-02  5.000000E-01  7.157997E-01  4.909267E-02  0.000000E+00  1.144028E-02 -1.484371E-03 -9.351008E-19 -4.192976E-01  0.000000E+00
  6.905640E-01  5.094896E-02  5.000000E-01  6.975381E-01  5.138802E-02  0.000000E+00  1.185484E-02 -1.439458E-03  1.250232E-20 -4.408675E-01  0.000000E+00
  6.719770E-01  5.312945E-02  5.000000E-01  6.787634E-01  5.359053E-02  0.000000E+00  1.219999E-02 -1.385763E-03 -1.685113E-19 -4.594484E-01  0.000000E+00
  6.529150E-01  5.522502E-02  5.000000E-01  6.595089E-01  5.570726E-02  0.000000E+00  1.247833E-02 -1.332777E-03  1.827902E-19 -4.770976E-01  0.000000E+00
  6.334180E-01  5.724744E-02  5.000000E-01  6.398150E-01  5.775011E-02  0.000000E+00  1.271188E-02 -1.282231E-03  1.476643E-18 -4.950686E-01  0.000000E+00
  6.135280E-01  5.919753E-02  5.000000E-01  6.197241E-01  5.971990E-02  0.000000E+00  1.292827E-02 -1.232564E-03  9.281826E-19 -5.142186E-01  0.000000E+00
  5.932910E-01  6.107243E-02  5.000000E-01  5.992827E-01  6.161373E-02  0.000000E+00  1.315052E-02 -1.182548E-03  4.554416E-20 -5.349842E-01  0.000000E+00
  5.727570E-01  6.286374E-02  5.000000E-01  5.785414E-01  6.342313E-02  0.000000E+00  1.339400E-02 -1.129414E-03 -5.132195E-20 -5.564585E-01  0.000000E+00
  5.519810E-01  6.455712E-02  5.000000E-01  5.575555E-01  6.513361E-02  0.000000E+00  1.366318E-02 -1.070451E-03  3.774548E-20 -5.773317E-01  0.000000E+00
  5.310180E-01  6.613546E-02  5.000000E-01  5.363808E-01  6.672789E-02  0.000000E+00  1.395217E-02 -1.008929E-03  7.442033E-19 -5.986807E-01  0.000000E+00
  5.099250E-01  6.759807E-02  5.000000E-01  5.150748E-01  6.820527E-02  0.000000E+00  1.425837E-02 -9.516563E-04  2.046318E-20 -6.240078E-01  0.000000E+00
  4.887640E-01  6.895494E-02  5.000000E-01  4.937001E-01  6.957584E-02  0.000000E+00  1.459786E-02 -8.919258E-04  2.454750E-19 -6.540660E-01  0.000000E+00
  4.675910E-01  7.018633E-02  5.000000E-01  4.723133E-01  7.081967E-02  0.000000E+00  1.498810E-02 -8.117931E-04  1.034712E-18 -6.854033E-01  0.000000E+00
  7.860720E-05 -4.629482E-04  5.000000E-01  7.940615E-05 -5.431059E-04  0.000000E+00 -1.098920E-02  3.643171E-02  1.164078E-16  7.631078E-01  0.000000E+00
  3.989240E-04 -1.092205E-03  5.000000E-01  4.029579E-04 -1.178718E-03  0.000000E+00 -1.070215E-02  1.711823E-02  8.468365E-17  1.064057E+00  0.000000E+00
  1.196920E-03 -1.857568E-03  5.000000E-01  1.209013E-03 -1.951811E-03  0.000000E+00 -3.842665E-03  3.802028E-03  5.758770E-17  1.090215E+00  0.000000E+00
  2.563580E-03 -2.665382E-03  5.000000E-01  2.589475E-03 -2.767782E-03  0.000000E+00  3.388358E-03 -1.487559E-03  2.575553E-17  9.641847E-01  0.000000E+00
  4.492740E-03 -3.474993E-03  5.000000E-01  4.538118E-03 -3.585570E-03  0.000000E+00  7.932391E-03 -2.908342E-03  4.128749E-18  8.461860E-01  0.000000E+00
  6.952190E-03 -4.284356E-03  5.000000E-01  7.022406E-03 -4.403107E-03  0.000000E+00  1.033576E-02 -3.136925E-03 -7.252124E-18  7.614326E-01  0.000000E+00
  9.910730E-03 -5.117176E-03  5.000000E-01  1.001083E-02 -5.244338E-03  0.000000E+00  1.162936E-02 -3.124397E-03 -1.063240E-17  6.934613E-01  0.000000E+00
  1.334950E-02 -6.001071E-03  5.000000E-01  1.348432E-02 -6.137159E-03  0.000000E+00  1.241223E-02 -3.027969E-03 -7.952250E-18  6.259954E-01  0.000000E+00
  1.728780E-02 -6.914619E-03  5.000000E-01  1.746240E-02 -7.059933E-03  0.000000E+00  1.290360E-02 -2.780042E-03 -4.134141E-18  5.521590E-01  0.000000E+00
  2.175590E-02 -7.805749E-03  5.000000E-01  2.197562E-02 -7.960063E-03  0.000000E+00  1.317261E-02 -2.401532E-03 -1.298765E-18  4.818778E-01  0.000000E+00
  2.676920E-02 -8.633560E-03  5.000000E-01  2.703955E-02 -8.796234E-03  0.000000E+00  1.329099E-02 -1.995666E-03  4.156270E-19  4.269279E-01  0.000000E+00
  3.232800E-02 -9.384211E-03  5.000000E-01  3.265449E-02 -9.554466E-03  0.000000E+00  1.333210E-02 -1.640614E-03  5.082522E-19  3.889141E-01  0.000000E+00
  3.842930E-02 -1.006207E-02  5.000000E-01  3.881741E-02 -1.023917E-02  0.000000E+00  1.333851E-02 -1.361347E-03  7.692319E-20  3.621187E-01  0.000000E+00
  4.507220E-02 -1.068019E-02  5.000000E-01  4.552740E-02 -1.086353E-02  0.000000E+00  1.334132E-02 -1.168311E-03  4.048175E-19  3.421354E-01  0.000000E+00
  5.225680E-02 -1.126942E-02  5.000000E-01  5.278455E-02 -1.145871E-02  0.000000E+00  1.337670E-02 -1.062309E-03 -1.241507E-19  3.264004E-01  0.000000E+00
  5.998640E-02 -1.186362E-02  5.000000E-01  6.059222E-02 -1.205891E-02  0.000000E+00  1.345260E-02 -1.004804E-03 -9.642307E-19  3.093355E-01  0.000000E+00
  6.827110E-02 -1.246560E-02  5.000000E-01  6.896059E-02 -1.266697E-02  0.000000E+00  1.354336E-02 -9.507423E-04 -5.913042E-19  2.877536E-01  0.000000E+00
  7.712280E-02 -1.306529E-02  5.000000E-01  7.790168E-02 -1.327272E-02  0.000000E+00  1.362517E-02 -8.879642E-04 -2.873251E-19  2.646219E-01  0.000000E+00
  8.655260E-02 -1.365502E-02  5.000000E-01  8.742671E-02 -1.386840E-02  0.000000E+00  1.368277E-02 -8.152281E-04 -3.744581E-19  2.426594E-01  0.000000E+00
  9.657140E-02 -1.422256E-02  5.000000E-01  9.754669E-02 -1.444167E-02  0.000000E+00  1.369652E-02 -7.218901E-04 -1.517295E-19  2.214911E-01  0.000000E+00
  1.071900E-01 -1.474081E-02  5.000000E-01  1.082725E-01 -1.496516E-02  0.000000E+00  1.365327E-02 -6.057552E-04  4.235291E-19  2.015881E-01  0.000000E+00
  1.184180E-01 -1.518839E-02  5.000000E-01  1.196139E-01 -1.541726E-02  0.000000E+00  1.356492E-02 -4.859053E-04  4.728603E-19  1.856084E-01  0.000000E+00
  1.302610E-01 -1.556378E-02  5.000000E-01  1.315765E-01 -1.579645E-02  0.000000E+00  1.345551E-02 -3.810838E-04 -2.399885E-19  1.741385E-01  0.000000E+00
  1.427230E-01 -1.587418E-02  5.000000E-01  1.441644E-01 -1.610997E-02  0.000000E+00  1.333955E-02 -2.971448E-04 -6.023201E-19  1.653682E-01  0.000000E+00
  1.427230E-01 -1.587418E-02  5.000000E-01  1.441644E-01 -1.610997E-02  0.000000E+00  1.333955E-02 -2.971448E-04 -6.023201E-19  1.653682E-01  0.000000E+00
  1.558070E-01 -1.613115E-02  5.000000E-01  1.573805E-01 -1.636955E-02  0.000000E+00  1.321272E-02 -2.264436E-04 -2.428260E-19  1.570835E-01  0.000000E+00
  1.695140E-01 -1.633204E-02  5.000000E-01  1.712260E-01 -1.657246E-02  0.000000E+00  1.305814E-02 -1.543632E-04 -1.485488E-19  1.481270E-01  0.000000E+00
  1.838420E-01 -1.646053E-02  5.000000E-01  1.856987E-01 -1.670225E-02  0.000000E+00  1.286669E-02 -7.426262E-05 -1.215459E-19  1.395900E-01  0.000000E+00
  1.987870E-01 -1.649810E-02  5.000000E-01  2.007946E-01 -1.674020E-02  0.000000E+00  1.265177E-02  7.712482E-06  8.469943E-20  1.333978E-01  0.000000E+00
  2.143420E-01 -1.643853E-02  5.000000E-01  2.165067E-01 -1.668003E-02  0.000000E+00  1.245098E-02  7.397839E-05  6.587682E-21  1.309125E-01  0.000000E+00
  2.304940E-01 -1.630716E-02  5.000000E-01  2.328218E-01 -1.654733E-02  0.000000E+00  1.230903E-02  1.080312E-04 -3.506765E-19  1.313556E-01  0.000000E+00
  2.472290E-01 -1.614914E-02  5.000000E-01  2.497258E-01 -1.638772E-02  0.000000E+00  1.225160E-02  1.092913E-04 -1.887596E-19  1.315361E-01  0.000000E+00
  2.645310E-01 -1.600460E-02  5.000000E-01  2.672025E-01 -1.624171E-02  0.000000E+00  1.226877E-02  9.878451E-05  9.239295E-20  1.274356E-01  0.000000E+00
  2.823750E-01 -1.586791E-02  5.000000E-01  2.852268E-01 -1.610365E-02  0.000000E+00  1.232217E-02  1.061579E-04 -9.190212E-20  1.172558E-01  0.000000E+00
  3.007320E-01 -1.569288E-02  5.000000E-01  3.037691E-01 -1.592685E-02  0.000000E+00  1.237156E-02  1.455896E-04 -1.329983E-19  1.037240E-01  0.000000E+00
  3.195690E-01 -1.542871E-02  5.000000E-01  3.227964E-01 -1.566001E-02  0.000000E+00  1.238807E-02  2.137207E-04 -1.741700E-19  9.101684E-02  0.000000E+00
  3.388440E-01 -1.503318E-02  5.000000E-01  3.422660E-01 -1.526049E-02  0.000000E+00  1.235141E-02  2.993673E-04 -2.631939E-19  8.165280E-02  0.000000E+00
  3.585140E-01 -1.448253E-02  5.000000E-01  3.621347E-01 -1.470427E-02  0.000000E+00  1.224167E-02  3.926171E-04 -2.500913E-20  7.605687E-02  0.000000E+00
  3.785290E-01 -1.375840E-02  5.000000E-01  3.823518E-01 -1.397283E-02  0.000000E+00  1.203575E-02  4.893530E-04 -1.176933E-19  7.356709E-02  0.000000E+00
  3.988350E-01 -1.284002E-02  5.000000E-01  4.028629E-01 -1.304518E-02  0.000000E+00  1.171855E-02  5.868755E-04 -6.782569E-19  7.455374E-02  0.000000E+00
  4.193750E-01 -1.170855E-02  5.000000E-01  4.236103E-01 -1.190228E-02  0.000000E+00  1.129584E-02  6.853901E-04 -3.985951E-19  7.969818E-02  0.000000E+00
  4.400850E-01 -1.033197E-02  5.000000E-01  4.445295E-01 -1.051179E-02  0.000000E+00  1.080693E-02  7.788243E-04  6.597109E-19  8.986523E-02  0.000000E+00
  4.609060E-01 -8.708230E-03  5.000000E-01  4.655608E-01 -8.871658E-03  0.000000E+00  1.033094E-02  8.388318E-04  1.719484E-18  1.074759E-01  0.000000E+00
  4.818030E-01 -6.937837E-03  5.000000E-01  4.866688E-01 -7.083386E-03  0.000000E+00  9.952432E-03  8.352778E-04  1.543780E-19  1.324703E-01  0.000000E+00
  5.027520E-01 -5.195647E-03  5.000000E-01  5.078294E-01 -5.323601E-03  0.000000E+00  9.695857E-03  7.791349E-04 -9.507705E-19  1.570974E-01  0.000000E+00
  5.237130E-01 -3.576196E-03  5.000000E-01  5.290021E-01 -3.687795E-03  0.000000E+00  9.500917E-03  7.236612E-04  1.155790E-18  1.711807E-01  0.000000E+00
  5.446170E-01 -2.013333E-03  5.000000E-01  5.501172E-01 -2.109148E-03  0.000000E+00  9.276938E-03  7.098900E-04  1.241775E-18  1.742908E-01  0.000000E+00
  5.653940E-01 -3.841901E-04  5.000000E-01  5.711040E-01 -4.635524E-04  0.000000E+00  8.979838E-03  7.247448E-04 -7.511126E-19  1.779029E-01  0.000000E+00
  4.675910E-01  7.018633E-02  5.000000E-01  4.723133E-01  7.081967E-02  0.000000E+00  1.498810E-02 -8.117931E-04  1.034712E-18 -6.854033E-01  0.000000E+00
  4.464640E-01  7.124936E-02  5.000000E-01  4.509729E-01  7.189344E-02  0.000000E+00  1.541802E-02 -7.057286E-04  3.076876E-19 -7.151357E-01  0.000000E+00
  4.254410E-01  7.211916E-02  5.000000E-01  4.297376E-01  7.277202E-02  0.000000E+00  1.585524E-02 -5.828020E-04 -2.793363E-19 -7.428940E-01  0.000000E+00
  4.045840E-01  7.279208E-02  5.000000E-01  4.086700E-01  7.345174E-02  0.000000E+00  1.627460E-02 -4.530451E-04 -1.757413E-19 -7.694658E-01  0.000000E+00
  3.839530E-01  7.327758E-02  5.000000E-01  3.878306E-01  7.394214E-02  0.000000E+00  1.667550E-02 -3.196186E-04 -1.210536E-19 -7.958131E-01  0.000000E+00
  3.636060E-01  7.358135E-02  5.000000E-01  3.672781E-01  7.424898E-02  0.000000E+00  1.708029E-02 -1.813609E-04 -1.896265E-19 -8.239080E-01  0.000000E+00
  3.435960E-01  7.370920E-02  5.000000E-01  3.470660E-01  7.437812E-02  0.000000E+00  1.752623E-02 -3.686818E-05 -6.832398E-20 -8.576494E-01  0.000000E+00
  3.239710E-01  7.366693E-02  5.000000E-01  3.272428E-01  7.433543E-02  0.000000E+00  1.806392E-02  1.238035E-04 -4.918255E-20 -9.000940E-01  0.000000E+00
  3.047740E-01  7.344686E-02  5.000000E-01  3.078520E-01  7.411313E-02  0.000000E+00  1.874637E-02  3.288410E-04  2.318166E-19 -9.493022E-01  0.000000E+00
  2.860450E-01  7.300914E-02  5.000000E-01  2.889338E-01  7.367099E-02  0.000000E+00  1.959048E-02  6.086252E-04  4.790219E-19 -9.995760E-01  0.000000E+00
  2.678190E-01  7.230943E-02  5.000000E-01  2.705238E-01  7.296421E-02  0.000000E+00  2.055085E-02  9.732215E-04  4.620105E-19 -1.045753E+00  0.000000E+00
  2.501300E-01  7.132077E-02  5.000000E-01  2.526561E-01  7.196557E-02  0.000000E+00  2.153942E-02  1.413919E-03  2.563975E-20 -1.084298E+00  0.000000E+00
  2.330040E-01  7.003689E-02  5.000000E-01  2.353571E-01  7.066872E-02  0.000000E+00  2.246306E-02  1.913249E-03 -5.808366E-19 -1.112447E+00  0.000000E+00
  2.164660E-01  6.846602E-02  5.000000E-01  2.186521E-01  6.908199E-02  0.000000E+00  2.325212E-02  2.450659E-03 -4.545888E-19 -1.127520E+00  0.000000E+00
  2.005340E-01  6.662688E-02  5.000000E-01  2.025592E-01  6.722427E-02  0.000000E+00  2.387032E-02  3.005436E-03 -3.707989E-19 -1.127597E+00  0.000000E+00
  1.852230E-01  6.454356E-02  5.000000E-01  1.870936E-01  6.511991E-02  0.000000E+00  2.430696E-02  3.550358E-03  4.267541E-19 -1.114954E+00  0.000000E+00
  1.705440E-01  6.225520E-02  5.000000E-01  1.722664E-01  6.280845E-02  0.000000E+00  2.457904E-02  4.056584E-03  8.073991E-19 -1.097989E+00  0.000000E+00
  1.565000E-01  5.980850E-02  5.000000E-01  1.580805E-01  6.033703E-02  0.000000E+00  2.474783E-02  4.518464E-03 -1.407167E-18 -1.087354E+00  0.000000E+00
  1.430940E-01  5.724664E-02  5.000000E-01  1.445391E-01  5.774930E-02  0.000000E+00  2.492049E-02  4.979900E-03 -3.603470E-18 -1.086891E+00  0.000000E+00
  1.303270E-01  5.458384E-02  5.000000E-01  1.316432E-01  5.505961E-02  0.000000E+00  2.520218E-02  5.533649E-03 -2.241110E-18 -1.086108E+00  0.000000E+00
  1.182110E-01  5.179345E-02  5.000000E-01  1.194048E-01  5.224104E-02  0.000000E+00  2.558669E-02  6.227310E-03 -7.690318E-19 -1.068659E+00  0.000000E+00
  1.067560E-01  4.886124E-02  5.000000E-01  1.078342E-01  4.927921E-02  0.000000E+00  2.592722E-02  7.007818E-03  1.604803E-19 -1.025339E+00  0.000000E+00
  9.596750E-02  4.579403E-02  5.000000E-01  9.693670E-02  4.618103E-02  0.000000E+00  2.602286E-02  7.714449E-03  8.031482E-19 -9.655687E-01  0.000000E+00
  8.582800E-02  4.266229E-02  5.000000E-01  8.669480E-02  4.301766E-02  0.000000E+00  2.579885E-02  8.208886E-03  4.380474E-20 -9.095098E-01  0.000000E+00
  8.582800E-02  4.266229E-02  5.000000E-01  8.669480E-02  4.301766E-02  0.000000E+00  2.579885E-02  8.208886E-03  4.380474E-20 -9.095098E-01  0.000000E+00
  7.631050E-02  3.954235E-02  5.000000E-01  7.708118E-02  3.986621E-02  0.000000E+00  2.539822E-02  8.574641E-03  2.715160E-19 -8.612336E-01  0.000000E+00
  6.740780E-02  3.644873E-02  5.000000E-01  6.808857E-02  3.674135E-02  0.000000E+00  2.499396E-02  8.961208E-03 -8.030532E-21 -8.131285E-01  0.000000E+00
  5.911740E-02  3.338398E-02  5.000000E-01  5.971444E-02  3.364564E-02  0.000000E+00  2.464096E-02  9.394326E-03  5.040717E-19 -7.621570E-01  0.000000E+00
  5.143150E-02  3.036391E-02  5.000000E-01  5.195092E-02  3.059508E-02  0.000000E+00  2.431658E-02  9.838014E-03  1.058947E-18 -7.090955E-01  0.000000E+00
  4.433770E-02  2.741041E-02  5.000000E-01  4.478548E-02  2.761175E-02  0.000000E+00  2.398226E-02  1.026536E-02 -8.849827E-19 -6.565798E-01  0.000000E+00
  3.782240E-02  2.454431E-02  5.000000E-01  3.820438E-02  2.471670E-02  0.000000E+00  2.361795E-02  1.067817E-02 -3.210858E-18 -6.084309E-01  0.000000E+00
  3.187460E-02  2.178045E-02  5.000000E-01  3.219651E-02  2.192493E-02  0.000000E+00  2.323557E-02  1.110321E-02 -3.940374E-18 -5.676642E-01  0.000000E+00
  2.648400E-02  1.913143E-02  5.000000E-01  2.675147E-02  1.924916E-02  0.000000E+00  2.286728E-02  1.160895E-02 -4.664311E-18 -5.282809E-01  0.000000E+00
  2.164990E-02  1.659884E-02  5.000000E-01  2.186855E-02  1.669099E-02  0.000000E+00  2.248509E-02  1.224892E-02 -7.112019E-18 -4.734219E-01  0.000000E+00
  1.737670E-02  1.418252E-02  5.000000E-01  1.755220E-02  1.425027E-02  0.000000E+00  2.194196E-02  1.287813E-02 -1.035109E-17 -3.975263E-01  0.000000E+00
  1.364080E-02  1.190756E-02  5.000000E-01  1.377857E-02  1.195233E-02  0.000000E+00  2.111144E-02  1.321843E-02 -1.429831E-17 -3.200086E-01  0.000000E+00
  1.039090E-02  9.812646E-03  5.000000E-01  1.049584E-02  9.836263E-03  0.000000E+00  2.006516E-02  1.322971E-02 -1.819774E-17 -2.651777E-01  0.000000E+00
  7.586340E-03  7.918906E-03  5.000000E-01  7.662961E-03  7.923398E-03  0.000000E+00  1.904337E-02  1.327713E-02 -2.103323E-17 -2.377051E-01  0.000000E+00
  5.226210E-03  6.219106E-03  5.000000E-01  5.278995E-03  6.206432E-03  0.000000E+00  1.831966E-02  1.389411E-02 -2.185430E-17 -2.285776E-01  0.000000E+00
  3.324300E-03  4.701092E-03  5.000000E-01  3.357878E-03  4.673087E-03  0.000000E+00  1.814237E-02  1.565025E-02 -2.571262E-17 -2.296602E-01  0.000000E+00
  1.883580E-03  3.365228E-03  5.000000E-01  1.902608E-03  3.323731E-03  0.000000E+00  1.852616E-02  1.934377E-02 -4.275027E-17 -2.180748E-01  0.000000E+00
  8.951490E-04  2.222657E-03  5.000000E-01  9.041943E-04  2.169621E-03  0.000000E+00  1.853850E-02  2.563393E-02 -7.533428E-17 -1.448431E-01  0.000000E+00
  3.201820E-04  1.297175E-03  5.000000E-01  3.234207E-04  1.234794E-03  0.000000E+00  1.601637E-02  3.332886E-02 -1.063890E-16  2.884173E-02  0.000000E+00
  6.852390E-05  6.188006E-04  5.000000E-01  6.922102E-05  5.495677E-04  0.000000E+00  1.011019E-02  3.844507E-02 -1.064198E-16  2.394236E-01  0.000000E+00
  4.217600E-06  2.102698E-04  5.000000E-01  4.265278E-06  1.369111E-04  0.000000E+00  3.813498E-03  4.001291E-02 -4.628081E-17  3.131778E-01  0.000000E+00
 -5.032520E-09  7.472758E-05  5.000000E-01  0.000000E+00  0.000000E+00  0.000000E+00 -6.293277E-04  4.586920E-02  6.202281E-17  2.699601E-01  0.000000E+00
  5.154440E-06 -6.122705E-05  5.000000E-01  5.211579E-06 -1.373277E-04  0.000000E+00 -5.570725E-03  4.896902E-02  1.301437E-16  3.970695E-01  0.000000E+00