 Title = "ADflow Slice Data"
Variables =  "CoordinateX"  "CoordinateY"  "CoordinateZ"  "XoC"  "YoC"  "ZoC" "VelocityX" "VelocityY" "VelocityZ" "CoefPressure" "Mach" 
Zone T= "Slice_0001 None Absolute Regular z = 0.50000000"
 Nodes =          192  Elements=          184  ZONETYPE=FELINESEG
 DATAPACKING=POINT
  5.653940E-01  1.624975E-03  5.000000E-01  5.711039E-01  1.632202E-03  0.000000E+00  7.918082E-03  5.954653E-04 -1.367503E-18  2.599598E-01  0.000000E+00
  5.859770E-01  3.105933E-03  5.000000E-01  5.918948E-01  3.128117E-03  0.000000E+00  7.936821E-03  5.574941E-04 -1.863157E-18  2.600317E-01  0.000000E+00
  6.063060E-01  4.499477E-03  5.000000E-01  6.124291E-01  4.535734E-03  0.000000E+00  7.923441E-03  5.348684E-04 -1.488049E-19  2.619276E-01  0.000000E+00
  6.263240E-01  5.830704E-03  5.000000E-01  6.326492E-01  5.880406E-03  0.000000E+00  7.873826E-03  5.128027E-04  5.850767E-19  2.666738E-01  0.000000E+00
  6.459860E-01  7.084617E-03  5.000000E-01  6.525098E-01  7.146982E-03  0.000000E+00  7.794312E-03  4.839610E-04  2.433071E-19  2.735859E-01  0.000000E+00
  6.652460E-01  8.247014E-03  5.000000E-01  6.719643E-01  8.321118E-03  0.000000E+00  7.689422E-03  4.507566E-04  1.557893E-19  2.807825E-01  0.000000E+00
  6.840650E-01  9.316259E-03  5.000000E-01  6.909734E-01  9.401161E-03  0.000000E+00  7.560983E-03  4.168914E-04  6.547643E-19  2.875341E-01  0.000000E+00
  7.024070E-01  1.029614E-02  5.000000E-01  7.095006E-01  1.039094E-02  0.000000E+00  7.412996E-03  3.820513E-04  1.589417E-19  2.945068E-01  0.000000E+00
  7.202400E-01  1.118141E-02  5.000000E-01  7.275137E-01  1.128515E-02  0.000000E+00  7.254414E-03  3.430633E-04 -7.300659E-19  3.024102E-01  0.000000E+00
  7.375350E-01  1.195793E-02  5.000000E-01  7.449834E-01  1.206951E-02  0.000000E+00  7.097839E-03  2.980706E-04 -8.962490E-19  3.109677E-01  0.000000E+00
  7.542690E-01  1.261098E-02  5.000000E-01  7.618864E-01  1.272916E-02  0.000000E+00  6.958375E-03  2.471779E-04 -4.228751E-19  3.194195E-01  0.000000E+00
  7.704220E-01  1.312678E-02  5.000000E-01  7.782025E-01  1.325016E-02  0.000000E+00  6.852803E-03  1.905842E-04  1.612475E-19  3.269939E-01  0.000000E+00
  7.859770E-01  1.349434E-02  5.000000E-01  7.939146E-01  1.362144E-02  0.000000E+00  6.799382E-03  1.246776E-04 -2.630140E-20  3.335077E-01  0.000000E+00
  8.009220E-01  1.368998E-02  5.000000E-01  8.090105E-01  1.381905E-02  0.000000E+00  6.814726E-03  4.434323E-05  3.988501E-20  3.389887E-01  0.000000E+00
  8.152480E-01  1.368940E-02  5.000000E-01  8.234812E-01  1.381847E-02  0.000000E+00  6.901800E-03 -4.561874E-05  1.444680E-19  3.415820E-01  0.000000E+00
  8.289490E-01  1.350899E-02  5.000000E-01  8.373206E-01  1.363624E-02  0.000000E+00  7.045820E-03 -1.342791E-04  7.390434E-20  3.397185E-01  0.000000E+00
  8.420260E-01  1.318431E-02  5.000000E-01  8.505296E-01  1.330827E-02  0.000000E+00  7.224825E-03 -2.160393E-04 -5.590265E-20  3.346334E-01  0.000000E+00
  8.544790E-01  1.275077E-02  5.000000E-01  8.631084E-01  1.287035E-02  0.000000E+00  7.417336E-03 -2.891883E-04 -5.219191E-19  3.280845E-01  0.000000E+00
  8.663160E-01  1.224128E-02  5.000000E-01  8.750649E-01  1.235572E-02  0.000000E+00  7.603866E-03 -3.526292E-04 -3.610456E-19  3.209754E-01  0.000000E+00
  8.775420E-01  1.168416E-02  5.000000E-01  8.864043E-01  1.179297E-02  0.000000E+00  7.768287E-03 -4.052378E-04  5.207462E-20  3.138134E-01  0.000000E+00
  8.881660E-01  1.110341E-02  5.000000E-01  8.971356E-01  1.120637E-02  0.000000E+00  7.900198E-03 -4.464285E-04  1.388000E-19  3.069742E-01  0.000000E+00
  8.981970E-01  1.051826E-02  5.000000E-01  9.072679E-01  1.061530E-02  0.000000E+00  7.998406E-03 -4.797031E-04 -3.517787E-20  3.010163E-01  0.000000E+00
  9.076460E-01  9.936576E-03  5.000000E-01  9.168123E-01  1.002774E-02  0.000000E+00  8.073670E-03 -5.140659E-04 -1.290595E-19  2.966867E-01  0.000000E+00
  9.165220E-01  9.353106E-03  5.000000E-01  9.257779E-01  9.438380E-03  0.000000E+00  8.143348E-03 -5.564113E-04  2.211837E-19  2.936268E-01  0.000000E+00
  9.165220E-01  9.353106E-03  5.000000E-01  9.257779E-01  9.438380E-03  0.000000E+00  8.143348E-03 -5.564113E-04  2.211837E-19  2.936268E-01  0.000000E+00
  9.248360E-01  8.763460E-03  5.000000E-01  9.341759E-01  8.842780E-03  0.000000E+00  8.222042E-03 -6.075101E-04  1.439415E-19  2.905334E-01  0.000000E+00
  9.325990E-01  8.166897E-03  5.000000E-01  9.420173E-01  8.240192E-03  0.000000E+00  8.319143E-03 -6.664879E-04 -1.972446E-19  2.867217E-01  0.000000E+00
  9.398210E-01  7.564983E-03  5.000000E-01  9.493122E-01  7.632199E-03  0.000000E+00  8.440733E-03 -7.327578E-04 -5.661603E-20  2.820903E-01  0.000000E+00
  9.465130E-01  6.961190E-03  5.000000E-01  9.560718E-01  7.022309E-03  0.000000E+00  8.590567E-03 -8.058095E-04  2.916846E-19  2.765811E-01  0.000000E+00
  9.526870E-01  6.360378E-03  5.000000E-01  9.623082E-01  6.415428E-03  0.000000E+00  8.770261E-03 -8.851656E-04  5.557709E-19  2.701108E-01  0.000000E+00
  9.583540E-01  5.768366E-03  5.000000E-01  9.680324E-01  5.817438E-03  0.000000E+00  8.979856E-03 -9.703277E-04  3.741328E-19  2.626377E-01  0.000000E+00
  9.635240E-01  5.191588E-03  5.000000E-01  9.732546E-01  5.234835E-03  0.000000E+00  9.218726E-03 -1.060620E-03 -2.598747E-19  2.541367E-01  0.000000E+00
  9.682080E-01  4.636775E-03  5.000000E-01  9.779859E-01  4.674419E-03  0.000000E+00  9.487514E-03 -1.155697E-03 -6.193795E-20  2.446574E-01  0.000000E+00
  9.724140E-01  4.110695E-03  5.000000E-01  9.822344E-01  4.143026E-03  0.000000E+00  9.790583E-03 -1.255605E-03 -1.768667E-19  2.342876E-01  0.000000E+00
  9.761510E-01  3.619965E-03  5.000000E-01  9.860091E-01  3.647341E-03  0.000000E+00  1.013602E-02 -1.360373E-03 -8.184066E-19  2.230694E-01  0.000000E+00
  9.794290E-01  3.170828E-03  5.000000E-01  9.893202E-01  3.193668E-03  0.000000E+00  1.052849E-02 -1.470224E-03 -3.653230E-19  2.110862E-01  0.000000E+00
  9.822540E-01  2.769092E-03  5.000000E-01  9.921738E-01  2.787874E-03  0.000000E+00  1.095096E-02 -1.583255E-03  2.201422E-19  1.986401E-01  0.000000E+00
  9.846330E-01  2.419950E-03  5.000000E-01  9.945768E-01  2.435206E-03  0.000000E+00  1.134614E-02 -1.688806E-03  6.013972E-19  1.870034E-01  0.000000E+00
  9.865710E-01  2.127925E-03  5.000000E-01  9.965344E-01  2.140232E-03  0.000000E+00  1.157966E-02 -1.754546E-03  1.411979E-18  1.751043E-01  0.000000E+00
  9.880740E-01  1.896793E-03  5.000000E-01  9.980526E-01  1.906766E-03  0.000000E+00  1.143573E-02 -1.775039E-03 -2.565098E-18  1.567639E-01  0.000000E+00
  9.891450E-01  1.729534E-03  5.000000E-01  9.991344E-01  1.737818E-03  0.000000E+00  1.157527E-02 -1.897060E-03 -2.531740E-17  1.583213E-01  0.000000E+00
  9.897860E-01  1.628312E-03  5.000000E-01  9.997818E-01  1.635574E-03  0.000000E+00  1.481519E-02 -1.876934E-03 -7.275917E-17  2.056812E-01  0.000000E+00
  9.900000E-01  1.594429E-03  5.000000E-01  9.999980E-01  1.601349E-03  0.000000E+00  1.031851E-02 -4.351072E-03 -7.700685E-17 -3.069264E-02  0.000000E+00
  9.900000E-01  1.673139E-03  5.000000E-01  9.999980E-01  1.680854E-03  0.000000E+00  1.028992E-03 -1.475047E-02  6.595093E-18 -1.635282E-01  0.000000E+00
  9.900000E-01  1.751859E-03  5.000000E-01  9.999980E-01  1.760369E-03  0.000000E+00 -5.170775E-04 -1.409676E-02  8.814412E-17  8.605459E-03  0.000000E+00
  9.900000E-01  1.830579E-03  5.000000E-01  9.999980E-01  1.839884E-03  0.000000E+00 -2.800291E-04  1.611714E-03  1.054315E-16  4.069791E-03  0.000000E+00
  9.900000E-01  1.909289E-03  5.000000E-01  9.999980E-01  1.919388E-03  0.000000E+00  6.727222E-04  3.225996E-03  1.305159E-16 -1.067197E-01  0.000000E+00
  9.900000E-01  1.988009E-03  5.000000E-01  9.999980E-01  1.998903E-03  0.000000E+00  5.455905E-03 -2.538084E-03  1.634209E-16 -1.672002E-02  0.000000E+00
  9.900000E-01  1.988009E-03  5.000000E-01  9.999980E-01  1.998903E-03  0.000000E+00  5.455905E-03 -2.538084E-03  1.634209E-16 -1.672002E-02  0.000000E+00
  9.897900E-01  2.031832E-03  5.000000E-01  9.997859E-01  2.043169E-03  0.000000E+00  7.012008E-03 -1.778126E-03  1.163974E-16  1.170531E-01  0.000000E+00
  9.891580E-01  2.163396E-03  5.000000E-01  9.991475E-01  2.176061E-03  0.000000E+00  4.211322E-03 -8.194534E-04  3.923782E-17  7.676739E-02  0.000000E+00
  9.881040E-01  2.382993E-03  5.000000E-01  9.980829E-01  2.397877E-03  0.000000E+00  3.444268E-03 -7.160160E-04  3.792457E-18  6.793936E-02  0.000000E+00
  9.866260E-01  2.691098E-03  5.000000E-01  9.965899E-01  2.709092E-03  0.000000E+00  3.208673E-03 -6.746116E-04 -3.928445E-18  7.100481E-02  0.000000E+00
  9.847200E-01  3.088350E-03  5.000000E-01  9.946647E-01  3.110356E-03  0.000000E+00  3.064467E-03 -6.383067E-04 -3.343853E-18  6.757470E-02  0.000000E+00
  9.823820E-01  3.575525E-03  5.000000E-01  9.923031E-01  3.602451E-03  0.000000E+00  3.041240E-03 -6.330853E-04 -1.659966E-18  6.148172E-02  0.000000E+00
  9.796080E-01  4.153486E-03  5.000000E-01  9.895011E-01  4.186250E-03  0.000000E+00  3.122341E-03 -6.502966E-04 -2.275875E-19  5.473786E-02  0.000000E+00
  9.763910E-01  4.823166E-03  5.000000E-01  9.862516E-01  4.862692E-03  0.000000E+00  3.269321E-03 -6.804123E-04 -5.052883E-20  4.684705E-02  0.000000E+00
  9.727270E-01  5.585414E-03  5.000000E-01  9.825506E-01  5.632639E-03  0.000000E+00  3.456519E-03 -7.184354E-04 -3.115833E-19  3.760673E-02  0.000000E+00
  9.686070E-01  6.441075E-03  5.000000E-01  9.783890E-01  6.496941E-03  0.000000E+00  3.669431E-03 -7.611893E-04 -4.020960E-19  2.713404E-02  0.000000E+00
  9.640240E-01  7.390752E-03  5.000000E-01  9.737597E-01  7.456208E-03  0.000000E+00  3.901207E-03 -8.069364E-04 -6.125732E-19  1.546978E-02  0.000000E+00
  9.589680E-01  8.434788E-03  5.000000E-01  9.686526E-01  8.510788E-03  0.000000E+00  4.150496E-03 -8.551141E-04 -5.795457E-19  2.620038E-03  0.000000E+00
  9.534310E-01  9.573095E-03  5.000000E-01  9.630597E-01  9.660591E-03  0.000000E+00  4.418720E-03 -9.056351E-04 -5.391253E-19 -1.142258E-02  0.000000E+00
  9.474030E-01  1.080503E-02  5.000000E-01  9.569708E-01  1.090497E-02  0.000000E+00  4.707702E-03 -9.581833E-04 -1.095380E-18 -2.658560E-02  0.000000E+00
  9.408720E-01  1.212921E-02  5.000000E-01  9.503739E-01  1.224252E-02  0.000000E+00  5.018281E-03 -1.012307E-03 -1.425792E-18 -4.284482E-02  0.000000E+00
  9.338280E-01  1.354331E-02  5.000000E-01  9.432587E-01  1.367091E-02  0.000000E+00  5.350346E-03 -1.067284E-03 -5.653133E-19 -6.017110E-02  0.000000E+00
  9.262600E-01  1.504394E-02  5.000000E-01  9.356143E-01  1.518668E-02  0.000000E+00  5.702601E-03 -1.121711E-03  3.313620E-19 -7.844665E-02  0.000000E+00
  9.181550E-01  1.662605E-02  5.000000E-01  9.274274E-01  1.678478E-02  0.000000E+00  6.072053E-03 -1.173774E-03  1.131096E-19 -9.757043E-02  0.000000E+00
  9.095020E-01  1.828316E-02  5.000000E-01  9.186871E-01  1.845862E-02  0.000000E+00  6.453726E-03 -1.221065E-03  1.077136E-19 -1.172332E-01  0.000000E+00
  9.002880E-01  2.000651E-02  5.000000E-01  9.093800E-01  2.019937E-02  0.000000E+00  6.839257E-03 -1.260645E-03  5.355275E-19 -1.367804E-01  0.000000E+00
  8.905020E-01  2.178537E-02  5.000000E-01  8.994952E-01  2.199620E-02  0.000000E+00  7.216377E-03 -1.290614E-03 -8.332475E-19 -1.556653E-01  0.000000E+00
  8.801320E-01  2.361111E-02  5.000000E-01  8.890204E-01  2.384038E-02  0.000000E+00  7.571733E-03 -1.310856E-03 -1.040541E-18 -1.737083E-01  0.000000E+00
  8.691700E-01  2.547807E-02  5.000000E-01  8.779477E-01  2.572619E-02  0.000000E+00  7.894220E-03 -1.321578E-03  1.351546E-19 -1.907770E-01  0.000000E+00
  8.691700E-01  2.547807E-02  5.000000E-01  8.779477E-01  2.572619E-02  0.000000E+00  7.894220E-03 -1.321578E-03  1.351546E-19 -1.907770E-01  0.000000E+00
  8.576080E-01  2.738138E-02  5.000000E-01  8.662690E-01  2.764872E-02  0.000000E+00  8.175512E-03 -1.322730E-03 -3.364704E-19 -2.066160E-01  0.000000E+00
  8.454380E-01  2.931701E-02  5.000000E-01  8.539761E-01  2.960390E-02  0.000000E+00  8.409329E-03 -1.315239E-03 -6.317887E-19 -2.209985E-01  0.000000E+00
  8.326580E-01  3.128295E-02  5.000000E-01  8.410670E-01  3.158969E-02  0.000000E+00  8.591985E-03 -1.301250E-03 -2.415634E-19 -2.336644E-01  0.000000E+00
  8.192630E-01  3.328064E-02  5.000000E-01  8.275367E-01  3.360756E-02  0.000000E+00  8.723359E-03 -1.284724E-03  1.401214E-19 -2.447030E-01  0.000000E+00
  8.052550E-01  3.531815E-02  5.000000E-01  8.133873E-01  3.566565E-02  0.000000E+00  8.809601E-03 -1.271209E-03 -3.385523E-19 -2.550237E-01  0.000000E+00
  7.906370E-01  3.741069E-02  5.000000E-01  7.986216E-01  3.777931E-02  0.000000E+00  8.866106E-03 -1.265544E-03 -9.630086E-19 -2.662135E-01  0.000000E+00
  7.754120E-01  3.957710E-02  5.000000E-01  7.832429E-01  3.996760E-02  0.000000E+00  8.916632E-03 -1.269709E-03 -4.734203E-19 -2.798081E-01  0.000000E+00
  7.595880E-01  4.183176E-02  5.000000E-01  7.672591E-01  4.224504E-02  0.000000E+00  8.987533E-03 -1.281053E-03  4.795618E-19 -2.961317E-01  0.000000E+00
  7.431760E-01  4.417199E-02  5.000000E-01  7.506813E-01  4.460890E-02  0.000000E+00  9.097978E-03 -1.296722E-03 -4.641840E-19 -3.150418E-01  0.000000E+00
  7.261880E-01  4.659195E-02  5.000000E-01  7.335218E-01  4.705330E-02  0.000000E+00  9.257717E-03 -1.316699E-03 -1.681560E-18 -3.366374E-01  0.000000E+00
  7.086430E-01  4.908357E-02  5.000000E-01  7.157996E-01  4.957008E-02  0.000000E+00  9.472247E-03 -1.340890E-03 -6.761561E-19 -3.606527E-01  0.000000E+00
  6.905640E-01  5.163547E-02  5.000000E-01  6.975380E-01  5.214775E-02  0.000000E+00  9.746088E-03 -1.369495E-03  1.106266E-19 -3.871530E-01  0.000000E+00
  6.719770E-01  5.423585E-02  5.000000E-01  6.787633E-01  5.477439E-02  0.000000E+00  1.008710E-02 -1.404778E-03  1.162244E-19 -4.175751E-01  0.000000E+00
  6.529150E-01  5.687810E-02  5.000000E-01  6.595088E-01  5.744333E-02  0.000000E+00  1.051176E-02 -1.446192E-03 -1.826406E-18 -4.535386E-01  0.000000E+00
  6.334180E-01  5.954086E-02  5.000000E-01  6.398149E-01  6.013298E-02  0.000000E+00  1.103963E-02 -1.485099E-03 -2.581220E-18 -4.954198E-01  0.000000E+00
  6.135280E-01  6.217686E-02  5.000000E-01  6.197240E-01  6.279560E-02  0.000000E+00  1.167656E-02 -1.509711E-03 -1.281977E-18 -5.431113E-01  0.000000E+00
  5.932910E-01  6.472942E-02  5.000000E-01  5.992826E-01  6.537394E-02  0.000000E+00  1.240571E-02 -1.506681E-03 -1.086155E-18 -5.944737E-01  0.000000E+00
  5.727570E-01  6.713203E-02  5.000000E-01  5.785413E-01  6.780081E-02  0.000000E+00  1.318306E-02 -1.458502E-03 -5.213579E-19 -6.426191E-01  0.000000E+00
  5.519810E-01  6.930917E-02  5.000000E-01  5.575555E-01  6.999994E-02  0.000000E+00  1.393098E-02 -1.353241E-03 -4.264690E-19 -6.789801E-01  0.000000E+00
  5.310180E-01  7.119598E-02  5.000000E-01  5.363807E-01  7.190580E-02  0.000000E+00  1.454705E-02 -1.214227E-03 -9.370214E-19 -7.033013E-01  0.000000E+00
  5.099250E-01  7.282256E-02  5.000000E-01  5.150747E-01  7.354881E-02  0.000000E+00  1.497148E-02 -1.084465E-03 -7.986151E-19 -7.228873E-01  0.000000E+00
  4.887640E-01  7.425771E-02  5.000000E-01  4.937000E-01  7.499845E-02  0.000000E+00  1.524415E-02 -9.776389E-04 -2.635104E-19 -7.426672E-01  0.000000E+00
  4.675910E-01  7.553950E-02  5.000000E-01  4.723132E-01  7.629319E-02  0.000000E+00  1.546713E-02 -8.853624E-04  1.314584E-19 -7.658333E-01  0.000000E+00
  7.860720E-05 -8.115038E-04  5.000000E-01  7.940614E-05 -8.288819E-04  0.000000E+00 -5.294079E-03  2.586059E-02  3.745119E-17  7.384164E-01  0.000000E+00
  3.989240E-04 -1.792742E-03  5.000000E-01  4.029578E-04 -1.820030E-03  0.000000E+00 -6.512574E-03  1.528364E-02  2.167030E-17  9.838569E-01  0.000000E+00
  1.196920E-03 -3.018284E-03  5.000000E-01  1.209013E-03 -3.057949E-03  0.000000E+00 -3.997634E-03  5.679438E-03  1.326412E-17  1.088695E+00  0.000000E+00
  2.563580E-03 -4.344025E-03  5.000000E-01  2.589475E-03 -4.397078E-03  0.000000E+00  5.767959E-04 -1.670151E-04  4.815574E-18  1.044334E+00  0.000000E+00
  4.492740E-03 -5.696082E-03  5.000000E-01  4.538117E-03 -5.762789E-03  0.000000E+00  4.767569E-03 -2.868015E-03  7.969512E-19  9.476768E-01  0.000000E+00
  6.952190E-03 -7.057674E-03  5.000000E-01  7.022405E-03 -7.138133E-03  0.000000E+00  7.787104E-03 -3.944964E-03 -4.816814E-19  8.536282E-01  0.000000E+00
  9.910730E-03 -8.451540E-03  5.000000E-01  1.001082E-02 -8.546075E-03  0.000000E+00  9.845218E-03 -4.383054E-03 -1.788199E-18  7.713653E-01  0.000000E+00
  1.334950E-02 -9.907244E-03  5.000000E-01  1.348432E-02 -1.001648E-02  0.000000E+00  1.131150E-02 -4.499495E-03 -2.486364E-18  6.884639E-01  0.000000E+00
  1.728780E-02 -1.138638E-02  5.000000E-01  1.746239E-02 -1.151055E-02  0.000000E+00  1.236477E-02 -4.279349E-03 -3.663116E-18  5.948191E-01  0.000000E+00
  2.175590E-02 -1.281065E-02  5.000000E-01  2.197562E-02 -1.294921E-02  0.000000E+00  1.304876E-02 -3.781010E-03 -4.443204E-18  5.022496E-01  0.000000E+00
  2.676920E-02 -1.412167E-02  5.000000E-01  2.703955E-02 -1.427347E-02  0.000000E+00  1.343541E-02 -3.181931E-03 -2.518052E-18  4.283589E-01  0.000000E+00
  3.232800E-02 -1.530188E-02  5.000000E-01  3.265449E-02 -1.546559E-02  0.000000E+00  1.363555E-02 -2.629037E-03 -2.939455E-19  3.778822E-01  0.000000E+00
  3.842930E-02 -1.636027E-02  5.000000E-01  3.881740E-02 -1.653468E-02  0.000000E+00  1.373594E-02 -2.180658E-03  4.026651E-19  3.440395E-01  0.000000E+00
  4.507220E-02 -1.731781E-02  5.000000E-01  4.552739E-02 -1.750189E-02  0.000000E+00  1.380033E-02 -1.859477E-03  5.974302E-20  3.204215E-01  0.000000E+00
  5.225680E-02 -1.821792E-02  5.000000E-01  5.278455E-02 -1.841109E-02  0.000000E+00  1.388740E-02 -1.666786E-03  2.413577E-19  3.028101E-01  0.000000E+00
  5.998640E-02 -1.910582E-02  5.000000E-01  6.059221E-02 -1.930795E-02  0.000000E+00  1.401399E-02 -1.547178E-03  9.644756E-20  2.833985E-01  0.000000E+00
  6.827110E-02 -1.998527E-02  5.000000E-01  6.896057E-02 -2.019628E-02  0.000000E+00  1.415244E-02 -1.437212E-03 -3.059359E-19  2.580148E-01  0.000000E+00
  7.712280E-02 -2.084374E-02  5.000000E-01  7.790167E-02 -2.106343E-02  0.000000E+00  1.427703E-02 -1.319729E-03 -2.812462E-19  2.306488E-01  0.000000E+00
  8.655260E-02 -2.167206E-02  5.000000E-01  8.742670E-02 -2.190011E-02  0.000000E+00  1.437201E-02 -1.192870E-03  6.485856E-20  2.047991E-01  0.000000E+00
  9.657140E-02 -2.245556E-02  5.000000E-01  9.754668E-02 -2.269152E-02  0.000000E+00  1.441514E-02 -1.042572E-03  1.543983E-19  1.799033E-01  0.000000E+00
  1.071900E-01 -2.316175E-02  5.000000E-01  1.082725E-01 -2.340484E-02  0.000000E+00  1.439216E-02 -8.660044E-04 -2.774295E-19  1.564672E-01  0.000000E+00
  1.184180E-01 -2.376541E-02  5.000000E-01  1.196139E-01 -2.401459E-02  0.000000E+00  1.431974E-02 -6.873719E-04 -8.551888E-20  1.377093E-01  0.000000E+00
  1.302610E-01 -2.426453E-02  5.000000E-01  1.315765E-01 -2.451876E-02  0.000000E+00  1.422789E-02 -5.291096E-04  1.232870E-19  1.242302E-01  0.000000E+00
  1.427230E-01 -2.466567E-02  5.000000E-01  1.441644E-01 -2.492395E-02  0.000000E+00  1.413189E-02 -3.962618E-04 -2.048959E-19  1.136934E-01  0.000000E+00
  1.427230E-01 -2.466567E-02  5.000000E-01  1.441644E-01 -2.492395E-02  0.000000E+00  1.413189E-02 -3.962618E-04 -2.048959E-19  1.136934E-01  0.000000E+00
  1.558070E-01 -2.497824E-02  5.000000E-01  1.573805E-01 -2.523968E-02  0.000000E+00  1.402070E-02 -2.769558E-04 -3.181665E-19  1.034147E-01  0.000000E+00
  1.695140E-01 -2.519256E-02  5.000000E-01  1.712259E-01 -2.545616E-02  0.000000E+00  1.386536E-02 -1.514758E-04 -2.084810E-19  9.220482E-02  0.000000E+00
  1.838420E-01 -2.528101E-02  5.000000E-01  1.856986E-01 -2.554551E-02  0.000000E+00  1.364541E-02 -1.127019E-05  1.056803E-19  8.175798E-02  0.000000E+00
  1.987870E-01 -2.521179E-02  5.000000E-01  2.007946E-01 -2.547558E-02  0.000000E+00  1.336862E-02  1.352120E-04  5.044990E-19  7.485661E-02  0.000000E+00
  2.143420E-01 -2.496649E-02  5.000000E-01  2.165066E-01 -2.522781E-02  0.000000E+00  1.307511E-02  2.645443E-04  9.630083E-20  7.365589E-02  0.000000E+00
  2.304940E-01 -2.456500E-02  5.000000E-01  2.328218E-01 -2.482226E-02  0.000000E+00  1.281740E-02  3.548498E-04 -3.232183E-19  7.764527E-02  0.000000E+00
  2.472290E-01 -2.405316E-02  5.000000E-01  2.497258E-01 -2.430525E-02  0.000000E+00  1.262841E-02  4.047003E-04 -3.623785E-19  8.311688E-02  0.000000E+00
  2.645310E-01 -2.347399E-02  5.000000E-01  2.672025E-01 -2.372024E-02  0.000000E+00  1.250272E-02  4.373805E-04 -3.157373E-19  8.530638E-02  0.000000E+00
  2.823750E-01 -2.282442E-02  5.000000E-01  2.852267E-01 -2.306411E-02  0.000000E+00  1.240695E-02  4.830714E-04 -4.234977E-19  8.213469E-02  0.000000E+00
  3.007320E-01 -2.206342E-02  5.000000E-01  3.037691E-01 -2.229542E-02  0.000000E+00  1.230977E-02  5.518114E-04 -3.762273E-19  7.660845E-02  0.000000E+00
  3.195690E-01 -2.115399E-02  5.000000E-01  3.227963E-01 -2.137681E-02  0.000000E+00  1.219214E-02  6.341740E-04 -8.994676E-19  7.316223E-02  0.000000E+00
  3.388440E-01 -2.007761E-02  5.000000E-01  3.422660E-01 -2.028955E-02  0.000000E+00  1.203358E-02  7.192744E-04 -7.835565E-19  7.345764E-02  0.000000E+00
  3.585140E-01 -1.882367E-02  5.000000E-01  3.621346E-01 -1.902295E-02  0.000000E+00  1.179847E-02  8.044048E-04  1.260715E-19  7.644552E-02  0.000000E+00
  3.785290E-01 -1.736921E-02  5.000000E-01  3.823518E-01 -1.755381E-02  0.000000E+00  1.144353E-02  8.881900E-04  1.251080E-18  8.167175E-02  0.000000E+00
  3.988350E-01 -1.568876E-02  5.000000E-01  4.028628E-01 -1.585638E-02  0.000000E+00  1.094145E-02  9.648242E-04  1.463973E-18  9.097708E-02  0.000000E+00
  4.193750E-01 -1.375992E-02  5.000000E-01  4.236103E-01 -1.390806E-02  0.000000E+00  1.029844E-02  1.031905E-03 -7.185111E-19  1.056998E-01  0.000000E+00
  4.400850E-01 -1.154634E-02  5.000000E-01  4.445294E-01 -1.167213E-02  0.000000E+00  9.571259E-03  1.080909E-03 -1.712805E-18  1.267260E-01  0.000000E+00
  4.609060E-01 -9.056622E-03  5.000000E-01  4.655607E-01 -9.157267E-03  0.000000E+00  8.876902E-03  1.080717E-03  4.652625E-19  1.572769E-01  0.000000E+00
  4.818030E-01 -6.458278E-03  5.000000E-01  4.866687E-01 -6.532683E-03  0.000000E+00  8.344201E-03  1.008124E-03  1.573571E-18  1.962486E-01  0.000000E+00
  5.027520E-01 -4.004529E-03  5.000000E-01  5.078293E-01 -4.054154E-03  0.000000E+00  8.032745E-03  8.838204E-04  8.269220E-19  2.324382E-01  0.000000E+00
  5.237130E-01 -1.857657E-03  5.000000E-01  5.290020E-01 -1.885600E-03  0.000000E+00  7.908724E-03  7.561429E-04  6.447339E-19  2.538840E-01  0.000000E+00
  5.446170E-01 -8.101249E-06  5.000000E-01  5.501171E-01 -1.736581E-05  0.000000E+00  7.893299E-03  6.590725E-04  1.710627E-19  2.600448E-01  0.000000E+00
  5.653940E-01  1.624975E-03  5.000000E-01  5.711039E-01  1.632202E-03  0.000000E+00  7.918082E-03  5.954653E-04 -1.367503E-18  2.599598E-01  0.000000E+00
  4.675910E-01  7.553950E-02  5.000000E-01  4.723132E-01  7.629319E-02  0.000000E+00  1.546713E-02 -8.853624E-04  1.314584E-19 -7.658333E-01  0.000000E+00
  4.464640E-01  7.667909E-02  5.000000E-01  4.509728E-01  7.744429E-02  0.000000E+00  1.574738E-02 -8.058026E-04 -1.951751E-19 -7.982860E-01  0.000000E+00
  4.254410E-01  7.769567E-02  5.000000E-01  4.297375E-01  7.847113E-02  0.000000E+00  1.618548E-02 -7.237510E-04 -4.796516E-19 -8.433186E-01  0.000000E+00
  4.045840E-01  7.855386E-02  5.000000E-01  4.086699E-01  7.933799E-02  0.000000E+00  1.684968E-02 -6.044693E-04 -1.263693E-19 -8.985427E-01  0.000000E+00
  3.839530E-01  7.918864E-02  5.000000E-01  3.878305E-01  7.997919E-02  0.000000E+00  1.773686E-02 -4.209814E-04  3.847412E-19 -9.588836E-01  0.000000E+00
  3.636060E-01  7.953512E-02  5.000000E-01  3.672781E-01  8.032916E-02  0.000000E+00  1.877629E-02 -1.545505E-04  1.884299E-19 -1.015089E+00  0.000000E+00
  3.435960E-01  7.953560E-02  5.000000E-01  3.470660E-01  8.032965E-02  0.000000E+00  1.984364E-02  2.058153E-04  2.126609E-19 -1.054876E+00  0.000000E+00
  3.239710E-01  7.914204E-02  5.000000E-01  3.272428E-01  7.993211E-02  0.000000E+00  2.076922E-02  6.326567E-04  8.801457E-19 -1.072328E+00  0.000000E+00
  3.047740E-01  7.836559E-02  5.000000E-01  3.078519E-01  7.914782E-02  0.000000E+00  2.139836E-02  1.048244E-03  1.147217E-18 -1.074013E+00  0.000000E+00
  2.860450E-01  7.729043E-02  5.000000E-01  2.889338E-01  7.806180E-02  0.000000E+00  2.170297E-02  1.402915E-03  2.100193E-19 -1.068676E+00  0.000000E+00
  2.678190E-01  7.598112E-02  5.000000E-01  2.705237E-01  7.673927E-02  0.000000E+00  2.177575E-02  1.701828E-03 -7.254217E-19 -1.061442E+00  0.000000E+00
  2.501300E-01  7.448631E-02  5.000000E-01  2.526561E-01  7.522936E-02  0.000000E+00  2.174001E-02  1.960983E-03 -9.337012E-19 -1.056824E+00  0.000000E+00
  2.330040E-01  7.284288E-02  5.000000E-01  2.353571E-01  7.356934E-02  0.000000E+00  2.170372E-02  2.200481E-03 -8.816162E-19 -1.057223E+00  0.000000E+00
  2.164660E-01  7.107564E-02  5.000000E-01  2.186521E-01  7.178425E-02  0.000000E+00  2.173873E-02  2.441407E-03  9.830057E-20 -1.062009E+00  0.000000E+00
  2.005340E-01  6.920034E-02  5.000000E-01  2.025592E-01  6.989001E-02  0.000000E+00  2.188008E-02  2.705278E-03  1.681562E-18 -1.067873E+00  0.000000E+00
  1.852230E-01  6.721880E-02  5.000000E-01  1.870936E-01  6.788846E-02  0.000000E+00  2.212554E-02  3.001753E-03  2.145926E-18 -1.073456E+00  0.000000E+00
  1.705440E-01  6.513760E-02  5.000000E-01  1.722663E-01  6.578624E-02  0.000000E+00  2.245260E-02  3.321563E-03  9.861215E-19 -1.084539E+00  0.000000E+00
  1.565000E-01  6.297321E-02  5.000000E-01  1.580805E-01  6.359999E-02  0.000000E+00  2.286805E-02  3.661829E-03  2.635486E-19 -1.111255E+00  0.000000E+00
  1.430940E-01  6.074384E-02  5.000000E-01  1.445391E-01  6.134811E-02  0.000000E+00  2.344348E-02  4.065384E-03 -9.071258E-19 -1.156436E+00  0.000000E+00
  1.303270E-01  5.844009E-02  5.000000E-01  1.316432E-01  5.902109E-02  0.000000E+00  2.426984E-02  4.632757E-03 -2.541561E-18 -1.204962E+00  0.000000E+00
  1.182110E-01  5.600750E-02  5.000000E-01  1.194048E-01  5.656393E-02  0.000000E+00  2.531208E-02  5.425670E-03 -2.946936E-18 -1.233332E+00  0.000000E+00
  1.067560E-01  5.340755E-02  5.000000E-01  1.078341E-01  5.393773E-02  0.000000E+00  2.634573E-02  6.393918E-03 -2.655981E-18 -1.227082E+00  0.000000E+00
  9.596750E-02  5.062791E-02  5.000000E-01  9.693668E-02  5.113002E-02  0.000000E+00  2.705672E-02  7.341105E-03 -2.350938E-18 -1.196846E+00  0.000000E+00
  8.582800E-02  4.773747E-02  5.000000E-01  8.669478E-02  4.821039E-02  0.000000E+00  2.730596E-02  8.077036E-03 -7.554925E-19 -1.168395E+00  0.000000E+00
  8.582800E-02  4.773747E-02  5.000000E-01  8.669478E-02  4.821039E-02  0.000000E+00  2.730596E-02  8.077036E-03 -7.554925E-19 -1.168395E+00  0.000000E+00
  7.631050E-02  4.481797E-02  5.000000E-01  7.708116E-02  4.526140E-02  0.000000E+00  2.728470E-02  8.693560E-03  1.582843E-18 -1.147175E+00  0.000000E+00
  6.740780E-02  4.187621E-02  5.000000E-01  6.808856E-02  4.228993E-02  0.000000E+00  2.724553E-02  9.386640E-03  1.569204E-18 -1.122386E+00  0.000000E+00
  5.911740E-02  3.890407E-02  5.000000E-01  5.971443E-02  3.928777E-02  0.000000E+00  2.726054E-02  1.019490E-02  7.534531E-19 -1.088774E+00  0.000000E+00
  5.143150E-02  3.591138E-02  5.000000E-01  5.195091E-02  3.626486E-02  0.000000E+00  2.727381E-02  1.106491E-02  1.965012E-18 -1.047343E+00  0.000000E+00
  4.433770E-02  3.291775E-02  5.000000E-01  4.478547E-02  3.324101E-02  0.000000E+00  2.720603E-02  1.194850E-02  1.783447E-18 -1.002595E+00  0.000000E+00
  3.782240E-02  2.994355E-02  5.000000E-01  3.820437E-02  3.023677E-02  0.000000E+00  2.701665E-02  1.283953E-02 -1.255161E-19 -9.598858E-01  0.000000E+00
  3.187460E-02  2.700298E-02  5.000000E-01  3.219651E-02  2.726650E-02  0.000000E+00  2.672018E-02  1.377121E-02 -6.079144E-19 -9.210443E-01  0.000000E+00
  2.648400E-02  2.410915E-02  5.000000E-01  2.675147E-02  2.434345E-02  0.000000E+00  2.635653E-02  1.484045E-02  9.721245E-20 -8.737567E-01  0.000000E+00
  2.164990E-02  2.126074E-02  5.000000E-01  2.186855E-02  2.146627E-02  0.000000E+00  2.586563E-02  1.611180E-02  1.346553E-18 -7.926394E-01  0.000000E+00
  1.737670E-02  1.845501E-02  5.000000E-01  1.755219E-02  1.863220E-02  0.000000E+00  2.502297E-02  1.731781E-02  8.172758E-19 -6.729072E-01  0.000000E+00
  1.364080E-02  1.573124E-02  5.000000E-01  1.377856E-02  1.588092E-02  0.000000E+00  2.368858E-02  1.798645E-02 -4.186311E-19 -5.468557E-01  0.000000E+00
  1.039090E-02  1.315615E-02  5.000000E-01  1.049584E-02  1.327983E-02  0.000000E+00  2.202798E-02  1.805389E-02 -1.347688E-18 -4.497835E-01  0.000000E+00
  7.586340E-03  1.077337E-02  5.000000E-01  7.662959E-03  1.087299E-02  0.000000E+00  2.035943E-02  1.807311E-02 -9.036419E-19 -3.833512E-01  0.000000E+00
  5.226210E-03  8.581589E-03  5.000000E-01  5.278995E-03  8.659071E-03  0.000000E+00  1.889293E-02  1.871774E-02  8.736166E-19 -3.259903E-01  0.000000E+00
  3.324300E-03  6.570806E-03  5.000000E-01  3.357877E-03  6.627982E-03  0.000000E+00  1.761815E-02  2.037879E-02 -2.733646E-18 -2.592939E-01  0.000000E+00
  1.883580E-03  4.751384E-03  5.000000E-01  1.902607E-03  4.790185E-03  0.000000E+00  1.621082E-02  2.323074E-02 -9.192950E-18 -1.622218E-01  0.000000E+00
  8.951490E-04  3.151525E-03  5.000000E-01  9.041942E-04  3.174169E-03  0.000000E+00  1.396109E-02  2.698730E-02 -9.410189E-18 -1.158105E-02  0.000000E+00
  3.201820E-04  1.821400E-03  5.000000E-01  3.234206E-04  1.830612E-03  0.000000E+00  1.025794E-02  3.034777E-02 -1.970162E-18  1.895923E-01  0.000000E+00
  6.852390E-05  8.242121E-04  5.000000E-01  6.922101E-05  8.233530E-04  0.000000E+00  5.691736E-03  3.146654E-02  9.484532E-18  3.775839E-01  0.000000E+00
  4.217600E-06  2.135426E-04  5.000000E-01  4.265277E-06  2.065165E-04  0.000000E+00  1.979951E-03  3.069273E-02  2.721861E-17  4.476922E-01  0.000000E+00
 -5.032520E-09  9.090936E-06  5.000000E-01  0.000000E+00  0.000000E+00  0.000000E+00 -2.245284E-04  3.188045E-02  5.027212E-17  4.319868E-01  0.000000E+00
  5.154440E-06 -1.969518E-04  5.000000E-01  5.211578E-06 -2.081236E-04  0.000000E+00 -2.388451E-03  3.218728E-02  5.597301E-17  5.099170E-01  0.000000E+00