 Title = "ADflow Slice Data"
Variables =  "CoordinateX"  "CoordinateY"  "CoordinateZ"  "XoC"  "YoC"  "ZoC" "VelocityX" "VelocityY" "VelocityZ" "CoefPressure" "Mach" 
Zone T= "Slice_0001 None Absolute Regular z = 0.50000000"
 Nodes =          192  Elements=          184  ZONETYPE=FELINESEG
 DATAPACKING=POINT
  5.653940E-01 -1.135681E-03  5.000000E-01  5.711039E-01 -1.176842E-03  0.000000E+00  9.934021E-03  9.101809E-05 -2.892051E-19  1.971424E-01  0.000000E+00
  5.859770E-01 -9.671487E-04  5.000000E-01  5.918948E-01 -1.006608E-03  0.000000E+00  1.027462E-02  1.050279E-04  2.082178E-19  1.744350E-01  0.000000E+00
  6.063060E-01 -7.189824E-04  5.000000E-01  6.124291E-01 -7.559351E-04  0.000000E+00  1.048230E-02  1.703748E-04  1.889734E-19  1.556154E-01  0.000000E+00
  6.263240E-01 -3.126471E-04  5.000000E-01  6.326493E-01 -3.454962E-04  0.000000E+00  1.052730E-02  2.646928E-04  1.136503E-19  1.438457E-01  0.000000E+00
  6.459860E-01  2.781696E-04  5.000000E-01  6.525098E-01  2.512872E-04  0.000000E+00  1.040081E-02  3.682248E-04  1.164994E-19  1.399791E-01  0.000000E+00
  6.652460E-01  1.064886E-03  5.000000E-01  6.719644E-01  1.045949E-03  0.000000E+00  1.010614E-02  4.701581E-04  1.953171E-19  1.428769E-01  0.000000E+00
  6.840650E-01  2.050880E-03  5.000000E-01  6.909734E-01  2.041900E-03  0.000000E+00  9.662423E-03  5.584827E-04  4.928655E-19  1.522650E-01  0.000000E+00
  7.024070E-01  3.216104E-03  5.000000E-01  7.095006E-01  3.218892E-03  0.000000E+00  9.107716E-03  6.182552E-04  4.503712E-19  1.685724E-01  0.000000E+00
  7.202400E-01  4.510337E-03  5.000000E-01  7.275137E-01  4.526195E-03  0.000000E+00  8.492762E-03  6.394039E-04  1.022015E-19  1.909965E-01  0.000000E+00
  7.375350E-01  5.863104E-03  5.000000E-01  7.449834E-01  5.892624E-03  0.000000E+00  7.870572E-03  6.225038E-04  9.263835E-20  2.170609E-01  0.000000E+00
  7.542690E-01  7.202186E-03  5.000000E-01  7.618864E-01  7.245229E-03  0.000000E+00  7.290279E-03  5.766398E-04 -2.323159E-19  2.439070E-01  0.000000E+00
  7.704220E-01  8.462614E-03  5.000000E-01  7.782025E-01  8.518387E-03  0.000000E+00  6.794296E-03  5.124166E-04 -4.629376E-19  2.690795E-01  0.000000E+00
  7.859770E-01  9.592015E-03  5.000000E-01  7.939146E-01  9.659193E-03  0.000000E+00  6.421321E-03  4.311203E-04 -5.135049E-19  2.920513E-01  0.000000E+00
  8.009220E-01  1.051186E-02  5.000000E-01  8.090105E-01  1.058833E-02  0.000000E+00  6.203452E-03  3.286292E-04 -4.993862E-20  3.128803E-01  0.000000E+00
  8.152480E-01  1.114474E-02  5.000000E-01  8.234812E-01  1.122760E-02  0.000000E+00  6.144765E-03  2.136861E-04  3.900841E-19  3.279501E-01  0.000000E+00
  8.289490E-01  1.148994E-02  5.000000E-01  8.373206E-01  1.157629E-02  0.000000E+00  6.216845E-03  1.008186E-04  2.890328E-19  3.344113E-01  0.000000E+00
  8.420260E-01  1.158653E-02  5.000000E-01  8.505297E-01  1.167385E-02  0.000000E+00  6.379997E-03 -4.078810E-06  4.741645E-19  3.343579E-01  0.000000E+00
  8.544790E-01  1.148241E-02  5.000000E-01  8.631084E-01  1.156868E-02  0.000000E+00  6.597574E-03 -1.000204E-04  3.660335E-19  3.307832E-01  0.000000E+00
  8.663160E-01  1.122565E-02  5.000000E-01  8.750650E-01  1.130933E-02  0.000000E+00  6.838160E-03 -1.864488E-04 -1.749046E-19  3.252449E-01  0.000000E+00
  8.775420E-01  1.085923E-02  5.000000E-01  8.864043E-01  1.093921E-02  0.000000E+00  7.075807E-03 -2.621545E-04 -5.762117E-20  3.185178E-01  0.000000E+00
  8.881660E-01  1.042019E-02  5.000000E-01  8.971356E-01  1.049574E-02  0.000000E+00  7.291822E-03 -3.258992E-04  1.967551E-20  3.112128E-01  0.000000E+00
  8.981970E-01  9.938938E-03  5.000000E-01  9.072679E-01  1.000962E-02  0.000000E+00  7.477686E-03 -3.796783E-04 -1.855061E-19  3.041028E-01  0.000000E+00
  9.076460E-01  9.433655E-03  5.000000E-01  9.168124E-01  9.499234E-03  0.000000E+00  7.637235E-03 -4.303481E-04  3.825595E-19  2.980874E-01  0.000000E+00
  9.165220E-01  8.908747E-03  5.000000E-01  9.257780E-01  8.969025E-03  0.000000E+00  7.782100E-03 -4.837562E-04  7.461214E-19  2.930911E-01  0.000000E+00
  9.165220E-01  8.908747E-03  5.000000E-01  9.257780E-01  8.969025E-03  0.000000E+00  7.782100E-03 -4.837562E-04  7.461214E-19  2.930911E-01  0.000000E+00
  9.248360E-01  8.367061E-03  5.000000E-01  9.341760E-01  8.421869E-03  0.000000E+00  7.923603E-03 -5.412403E-04  1.888377E-19  2.881731E-01  0.000000E+00
  9.325990E-01  7.812597E-03  5.000000E-01  9.420174E-01  7.861805E-03  0.000000E+00  8.070197E-03 -6.029106E-04 -1.453022E-19  2.828359E-01  0.000000E+00
  9.398210E-01  7.249758E-03  5.000000E-01  9.493123E-01  7.293282E-03  0.000000E+00  8.228554E-03 -6.691018E-04 -1.202863E-19  2.770099E-01  0.000000E+00
  9.465130E-01  6.683422E-03  5.000000E-01  9.560719E-01  6.721227E-03  0.000000E+00  8.403926E-03 -7.401296E-04 -6.177118E-20  2.706234E-01  0.000000E+00
  9.526870E-01  6.118880E-03  5.000000E-01  9.623082E-01  6.150983E-03  0.000000E+00  8.599956E-03 -8.162300E-04  5.483463E-19  2.635666E-01  0.000000E+00
  9.583540E-01  5.561793E-03  5.000000E-01  9.680325E-01  5.588270E-03  0.000000E+00  8.818891E-03 -8.975151E-04  5.137447E-19  2.557533E-01  0.000000E+00
  9.635240E-01  5.018137E-03  5.000000E-01  9.732547E-01  5.039123E-03  0.000000E+00  9.062207E-03 -9.838169E-04 -8.602401E-20  2.471072E-01  0.000000E+00
  9.682080E-01  4.494095E-03  5.000000E-01  9.779860E-01  4.509790E-03  0.000000E+00  9.332290E-03 -1.075155E-03 -2.837729E-19  2.376187E-01  0.000000E+00
  9.724140E-01  3.995940E-03  5.000000E-01  9.822345E-01  4.006603E-03  0.000000E+00  9.634800E-03 -1.171789E-03 -2.893232E-19  2.273216E-01  0.000000E+00
  9.761510E-01  3.529925E-03  5.000000E-01  9.860092E-01  3.535883E-03  0.000000E+00  9.978861E-03 -1.273855E-03 -5.066591E-19  2.162172E-01  0.000000E+00
  9.794290E-01  3.102101E-03  5.000000E-01  9.893203E-01  3.103738E-03  0.000000E+00  1.037045E-02 -1.381654E-03 -5.074944E-19  2.043439E-01  0.000000E+00
  9.822540E-01  2.718237E-03  5.000000E-01  9.921738E-01  2.715997E-03  0.000000E+00  1.079512E-02 -1.493639E-03  1.230903E-19  1.919660E-01  0.000000E+00
  9.846330E-01  2.383630E-03  5.000000E-01  9.945769E-01  2.378011E-03  0.000000E+00  1.120078E-02 -1.600106E-03  1.189765E-18  1.803349E-01  0.000000E+00
  9.865710E-01  2.102998E-03  5.000000E-01  9.965344E-01  2.094545E-03  0.000000E+00  1.146092E-02 -1.670351E-03  2.059124E-18  1.683534E-01  0.000000E+00
  9.880740E-01  1.880369E-03  5.000000E-01  9.980526E-01  1.869667E-03  0.000000E+00  1.136660E-02 -1.700826E-03 -2.372332E-18  1.497119E-01  0.000000E+00
  9.891450E-01  1.718967E-03  5.000000E-01  9.991344E-01  1.706636E-03  0.000000E+00  1.158427E-02 -1.837051E-03 -2.567700E-17  1.507346E-01  0.000000E+00
  9.897860E-01  1.621164E-03  5.000000E-01  9.997819E-01  1.607845E-03  0.000000E+00  1.495918E-02 -1.816141E-03 -7.357394E-17  1.983818E-01  0.000000E+00
  9.900000E-01  1.588407E-03  5.000000E-01  9.999981E-01  1.574757E-03  0.000000E+00  1.045230E-02 -4.216776E-03 -7.763798E-17 -4.101804E-02  0.000000E+00
  9.900000E-01  1.667117E-03  5.000000E-01  9.999981E-01  1.654262E-03  0.000000E+00  1.045799E-03 -1.460571E-02  6.399311E-18 -1.767328E-01  0.000000E+00
  9.900000E-01  1.745838E-03  5.000000E-01  9.999981E-01  1.733777E-03  0.000000E+00 -5.211441E-04 -1.375187E-02  8.798709E-17 -2.591389E-03  0.000000E+00
  9.900000E-01  1.824558E-03  5.000000E-01  9.999981E-01  1.813292E-03  0.000000E+00 -3.000141E-04  2.484615E-03  1.049703E-16 -6.966386E-03  0.000000E+00
  9.900000E-01  1.903268E-03  5.000000E-01  9.999981E-01  1.892798E-03  0.000000E+00  7.103286E-04  3.879633E-03  1.325881E-16 -1.245818E-01  0.000000E+00
  9.900000E-01  1.981988E-03  5.000000E-01  9.999981E-01  1.972313E-03  0.000000E+00  5.863451E-03 -2.520196E-03  1.698995E-16 -3.054715E-02  0.000000E+00
  9.900000E-01  1.981988E-03  5.000000E-01  9.999981E-01  1.972313E-03  0.000000E+00  5.863451E-03 -2.520196E-03  1.698995E-16 -3.054715E-02  0.000000E+00
  9.897900E-01  2.024495E-03  5.000000E-01  9.997859E-01  2.015249E-03  0.000000E+00  7.624564E-03 -1.874864E-03  1.219933E-16  1.114670E-01  0.000000E+00
  9.891580E-01  2.151992E-03  5.000000E-01  9.991476E-01  2.144034E-03  0.000000E+00  4.735426E-03 -8.944933E-04  4.067323E-17  6.899753E-02  0.000000E+00
  9.881040E-01  2.364444E-03  5.000000E-01  9.980829E-01  2.358631E-03  0.000000E+00  4.006986E-03 -8.052311E-04  3.213246E-18  5.925658E-02  0.000000E+00
  9.866260E-01  2.661768E-03  5.000000E-01  9.965900E-01  2.658958E-03  0.000000E+00  3.838892E-03 -7.769311E-04 -4.709092E-18  6.142512E-02  0.000000E+00
  9.847200E-01  3.043818E-03  5.000000E-01  9.946647E-01  3.044866E-03  0.000000E+00  3.763264E-03 -7.522152E-04 -3.513117E-18  5.663421E-02  0.000000E+00
  9.823820E-01  3.510365E-03  5.000000E-01  9.923031E-01  3.516125E-03  0.000000E+00  3.808912E-03 -7.574711E-04 -1.331026E-18  4.914250E-02  0.000000E+00
  9.796080E-01  4.061056E-03  5.000000E-01  9.895011E-01  4.072377E-03  0.000000E+00  3.957588E-03 -7.830091E-04 -1.042341E-19  4.095750E-02  0.000000E+00
  9.763910E-01  4.695382E-03  5.000000E-01  9.862516E-01  4.713109E-03  0.000000E+00  4.170394E-03 -8.192982E-04  3.419533E-20  3.155464E-02  0.000000E+00
  9.727270E-01  5.412579E-03  5.000000E-01  9.825506E-01  5.437549E-03  0.000000E+00  4.421779E-03 -8.614394E-04 -4.260981E-20  2.081156E-02  0.000000E+00
  9.686070E-01  6.211683E-03  5.000000E-01  9.783890E-01  6.244723E-03  0.000000E+00  4.696767E-03 -9.060955E-04  2.398589E-19  8.940795E-03  0.000000E+00
  9.640240E-01  7.091367E-03  5.000000E-01  9.737597E-01  7.133292E-03  0.000000E+00  4.987403E-03 -9.512651E-04  4.363467E-19 -3.932758E-03  0.000000E+00
  9.589680E-01  8.049952E-03  5.000000E-01  9.686527E-01  8.101557E-03  0.000000E+00  5.290734E-03 -9.960204E-04 -1.970172E-19 -1.771224E-02  0.000000E+00
  9.534310E-01  9.085321E-03  5.000000E-01  9.630597E-01  9.147382E-03  0.000000E+00  5.606032E-03 -1.039839E-03 -7.189979E-19 -3.230527E-02  0.000000E+00
  9.474030E-01  1.019488E-02  5.000000E-01  9.569709E-01  1.026815E-02  0.000000E+00  5.932530E-03 -1.081922E-03 -4.019965E-19 -4.752688E-02  0.000000E+00
  9.408720E-01  1.137547E-02  5.000000E-01  9.503739E-01  1.146066E-02  0.000000E+00  6.268154E-03 -1.121468E-03 -3.307696E-19 -6.324653E-02  0.000000E+00
  9.338280E-01  1.262335E-02  5.000000E-01  9.432588E-01  1.272114E-02  0.000000E+00  6.609894E-03 -1.157594E-03 -7.536921E-19 -7.934025E-02  0.000000E+00
  9.262600E-01  1.393419E-02  5.000000E-01  9.356143E-01  1.404522E-02  0.000000E+00  6.953800E-03 -1.188972E-03 -3.830991E-19 -9.559871E-02  0.000000E+00
  9.181550E-01  1.530274E-02  5.000000E-01  9.274275E-01  1.542759E-02  0.000000E+00  7.294588E-03 -1.214234E-03 -9.600901E-20 -1.118517E-01  0.000000E+00
  9.095020E-01  1.672317E-02  5.000000E-01  9.186871E-01  1.686237E-02  0.000000E+00  7.625712E-03 -1.231839E-03 -3.157790E-19 -1.277744E-01  0.000000E+00
  9.002880E-01  1.818850E-02  5.000000E-01  9.093800E-01  1.834250E-02  0.000000E+00  7.938503E-03 -1.240216E-03 -1.803388E-19 -1.427730E-01  0.000000E+00
  8.905020E-01  1.969104E-02  5.000000E-01  8.994952E-01  1.986021E-02  0.000000E+00  8.221985E-03 -1.239300E-03 -5.444459E-19 -1.564245E-01  0.000000E+00
  8.801320E-01  2.122592E-02  5.000000E-01  8.890205E-01  2.141059E-02  0.000000E+00  8.465825E-03 -1.230975E-03 -1.074561E-18 -1.687096E-01  0.000000E+00
  8.691700E-01  2.279196E-02  5.000000E-01  8.779478E-01  2.299244E-02  0.000000E+00  8.663771E-03 -1.217329E-03 -1.629234E-18 -1.797220E-01  0.000000E+00
  8.691700E-01  2.279196E-02  5.000000E-01  8.779478E-01  2.299244E-02  0.000000E+00  8.663771E-03 -1.217329E-03 -1.629234E-18 -1.797220E-01  0.000000E+00
  8.576080E-01  2.438985E-02  5.000000E-01  8.662690E-01  2.460647E-02  0.000000E+00  8.814317E-03 -1.200114E-03 -2.078795E-18 -1.894551E-01  0.000000E+00
  8.454380E-01  2.602236E-02  5.000000E-01  8.539761E-01  2.625547E-02  0.000000E+00  8.919877E-03 -1.181955E-03 -1.298295E-18 -1.979638E-01  0.000000E+00
  8.326580E-01  2.769538E-02  5.000000E-01  8.410671E-01  2.794538E-02  0.000000E+00  8.987081E-03 -1.166251E-03 -2.762808E-19 -2.055235E-01  0.000000E+00
  8.192630E-01  2.941873E-02  5.000000E-01  8.275368E-01  2.968614E-02  0.000000E+00  9.027587E-03 -1.157223E-03  3.600491E-19 -2.130949E-01  0.000000E+00
  8.052550E-01  3.120757E-02  5.000000E-01  8.133873E-01  3.149305E-02  0.000000E+00  9.059543E-03 -1.158515E-03  1.140447E-18 -2.223145E-01  0.000000E+00
  7.906370E-01  3.307891E-02  5.000000E-01  7.986217E-01  3.338329E-02  0.000000E+00  9.106561E-03 -1.169510E-03  1.068566E-18 -2.342933E-01  0.000000E+00
  7.754120E-01  3.504014E-02  5.000000E-01  7.832429E-01  3.536432E-02  0.000000E+00  9.189853E-03 -1.185580E-03  1.151203E-18 -2.490162E-01  0.000000E+00
  7.595880E-01  3.708455E-02  5.000000E-01  7.672591E-01  3.742938E-02  0.000000E+00  9.319529E-03 -1.202446E-03  1.433592E-18 -2.660930E-01  0.000000E+00
  7.431760E-01  3.919907E-02  5.000000E-01  7.506814E-01  3.956525E-02  0.000000E+00  9.493554E-03 -1.217949E-03  6.128120E-19 -2.851229E-01  0.000000E+00
  7.261880E-01  4.136917E-02  5.000000E-01  7.335218E-01  4.175727E-02  0.000000E+00  9.702297E-03 -1.230793E-03  1.286385E-19 -3.053143E-01  0.000000E+00
  7.086430E-01  4.358004E-02  5.000000E-01  7.157996E-01  4.399047E-02  0.000000E+00  9.933386E-03 -1.240344E-03 -1.845669E-19 -3.255738E-01  0.000000E+00
  6.905640E-01  4.581834E-02  5.000000E-01  6.975380E-01  4.625137E-02  0.000000E+00  1.017649E-02 -1.248623E-03  1.219775E-18 -3.457889E-01  0.000000E+00
  6.719770E-01  4.807875E-02  5.000000E-01  6.787633E-01  4.853460E-02  0.000000E+00  1.043034E-02 -1.261938E-03  1.489405E-18 -3.681983E-01  0.000000E+00
  6.529150E-01  5.037210E-02  5.000000E-01  6.595088E-01  5.085112E-02  0.000000E+00  1.071145E-02 -1.282540E-03  3.009114E-20 -3.951008E-01  0.000000E+00
  6.334180E-01  5.269535E-02  5.000000E-01  6.398149E-01  5.319783E-02  0.000000E+00  1.104731E-02 -1.301980E-03  1.737539E-19 -4.262302E-01  0.000000E+00
  6.135280E-01  5.501427E-02  5.000000E-01  6.197240E-01  5.554017E-02  0.000000E+00  1.145386E-02 -1.311980E-03 -3.659842E-19 -4.607631E-01  0.000000E+00
  5.932910E-01  5.729174E-02  5.000000E-01  5.992827E-01  5.784064E-02  0.000000E+00  1.192869E-02 -1.308634E-03 -7.754693E-21 -4.977858E-01  0.000000E+00
  5.727570E-01  5.948848E-02  5.000000E-01  5.785413E-01  6.005956E-02  0.000000E+00  1.245626E-02 -1.287102E-03  8.349624E-19 -5.348030E-01  0.000000E+00
  5.519810E-01  6.156408E-02  5.000000E-01  5.575555E-01  6.215613E-02  0.000000E+00  1.301030E-02 -1.243986E-03  1.119741E-19 -5.692119E-01  0.000000E+00
  5.310180E-01  6.348351E-02  5.000000E-01  5.363808E-01  6.409495E-02  0.000000E+00  1.356070E-02 -1.185758E-03 -4.395032E-19 -6.019164E-01  0.000000E+00
  5.099250E-01  6.524319E-02  5.000000E-01  5.150748E-01  6.587239E-02  0.000000E+00  1.409573E-02 -1.123773E-03 -1.302136E-18 -6.368375E-01  0.000000E+00
  4.887640E-01  6.685331E-02  5.000000E-01  4.937001E-01  6.749878E-02  0.000000E+00  1.463954E-02 -1.054500E-03 -9.770375E-19 -6.753020E-01  0.000000E+00
  4.675910E-01  6.829593E-02  5.000000E-01  4.723132E-01  6.895596E-02  0.000000E+00  1.522935E-02 -9.620767E-04 -7.890651E-20 -7.150833E-01  0.000000E+00
  7.860720E-05 -7.408701E-04  5.000000E-01  7.940614E-05 -7.780439E-04  0.000000E+00 -4.861707E-03  2.282159E-02  2.041240E-16  8.315609E-01  0.000000E+00
  3.989240E-04 -1.655700E-03  5.000000E-01  4.029578E-04 -1.702113E-03  0.000000E+00 -5.016536E-03  1.153484E-02  1.439339E-16  1.043584E+00  0.000000E+00
  1.196920E-03 -2.784571E-03  5.000000E-01  1.209013E-03 -2.842384E-03  0.000000E+00 -1.326202E-03  2.283378E-03  8.912738E-17  1.087082E+00  0.000000E+00
  2.563580E-03 -3.983772E-03  5.000000E-01  2.589475E-03 -4.053696E-03  0.000000E+00  3.793354E-03 -2.534001E-03  3.921691E-17  9.858544E-01  0.000000E+00
  4.492740E-03 -5.178036E-03  5.000000E-01  4.538117E-03 -5.260021E-03  0.000000E+00  7.894624E-03 -4.214361E-03  7.088726E-18  8.541134E-01  0.000000E+00
  6.952190E-03 -6.347395E-03  5.000000E-01  7.022406E-03 -6.441190E-03  0.000000E+00  1.057177E-02 -4.552215E-03 -7.985711E-18  7.431506E-01  0.000000E+00
  9.910730E-03 -7.509580E-03  5.000000E-01  1.001082E-02 -7.615112E-03  0.000000E+00  1.230458E-02 -4.507899E-03 -1.156527E-17  6.537849E-01  0.000000E+00
  1.334950E-02 -8.688606E-03  5.000000E-01  1.348432E-02 -8.806044E-03  0.000000E+00  1.351024E-02 -4.283259E-03 -8.959253E-18  5.676114E-01  0.000000E+00
  1.728780E-02 -9.845392E-03  5.000000E-01  1.746240E-02 -9.974512E-03  0.000000E+00  1.430102E-02 -3.789614E-03 -6.513021E-18  4.739406E-01  0.000000E+00
  2.175590E-02 -1.090648E-02  5.000000E-01  2.197562E-02 -1.104632E-02  0.000000E+00  1.467656E-02 -3.080964E-03 -4.563504E-18  3.874847E-01  0.000000E+00
  2.676920E-02 -1.182034E-02  5.000000E-01  2.703955E-02 -1.196941E-02  0.000000E+00  1.471879E-02 -2.344533E-03 -1.008053E-18  3.263374E-01  0.000000E+00
  3.232800E-02 -1.257542E-02  5.000000E-01  3.265449E-02 -1.273211E-02  0.000000E+00  1.456480E-02 -1.719131E-03  9.738809E-19  2.924888E-01  0.000000E+00
  3.842930E-02 -1.318536E-02  5.000000E-01  3.881740E-02 -1.334822E-02  0.000000E+00  1.432026E-02 -1.244785E-03  9.123572E-19  2.761575E-01  0.000000E+00
  4.507220E-02 -1.367491E-02  5.000000E-01  4.552739E-02 -1.384270E-02  0.000000E+00  1.406073E-02 -9.240752E-04  8.470775E-19  2.691894E-01  0.000000E+00
  5.225680E-02 -1.408833E-02  5.000000E-01  5.278455E-02 -1.426030E-02  0.000000E+00  1.384846E-02 -7.410213E-04  3.624174E-19  2.668312E-01  0.000000E+00
  5.998640E-02 -1.447094E-02  5.000000E-01  6.059221E-02 -1.464678E-02  0.000000E+00  1.369690E-02 -6.370653E-04 -9.163876E-20  2.621050E-01  0.000000E+00
  6.827110E-02 -1.483259E-02  5.000000E-01  6.896058E-02 -1.501208E-02  0.000000E+00  1.357596E-02 -5.557436E-04 -3.140563E-19  2.517720E-01  0.000000E+00
  7.712280E-02 -1.517055E-02  5.000000E-01  7.790167E-02 -1.535345E-02  0.000000E+00  1.346123E-02 -4.832786E-04 -4.849738E-19  2.396172E-01  0.000000E+00
  8.655260E-02 -1.548666E-02  5.000000E-01  8.742670E-02 -1.567275E-02  0.000000E+00  1.334216E-02 -4.189532E-04 -6.970836E-20  2.285930E-01  0.000000E+00
  9.657140E-02 -1.577995E-02  5.000000E-01  9.754668E-02 -1.596901E-02  0.000000E+00  1.320741E-02 -3.528510E-04  2.427975E-19  2.179526E-01  0.000000E+00
  1.071900E-01 -1.603666E-02  5.000000E-01  1.082725E-01 -1.622831E-02  0.000000E+00  1.305639E-02 -2.829871E-04  2.170599E-19  2.076811E-01  0.000000E+00
  1.184180E-01 -1.625108E-02  5.000000E-01  1.196139E-01 -1.644489E-02  0.000000E+00  1.291683E-02 -2.258751E-04  2.510175E-19  1.998137E-01  0.000000E+00
  1.302610E-01 -1.643832E-02  5.000000E-01  1.315765E-01 -1.663402E-02  0.000000E+00  1.282827E-02 -1.956367E-04  1.584115E-19  1.941616E-01  0.000000E+00
  1.427230E-01 -1.662128E-02  5.000000E-01  1.441644E-01 -1.681883E-02  0.000000E+00  1.281588E-02 -1.935301E-04 -1.532404E-19  1.881727E-01  0.000000E+00
  1.427230E-01 -1.662128E-02  5.000000E-01  1.441644E-01 -1.681883E-02  0.000000E+00  1.281588E-02 -1.935301E-04 -1.532404E-19  1.881727E-01  0.000000E+00
  1.558070E-01 -1.682465E-02  5.000000E-01  1.573805E-01 -1.702425E-02  0.000000E+00  1.287550E-02 -2.074084E-04 -1.338059E-19  1.790194E-01  0.000000E+00
  1.695140E-01 -1.705386E-02  5.000000E-01  1.712259E-01 -1.725578E-02  0.000000E+00  1.297356E-02 -2.151411E-04  2.654786E-19  1.651193E-01  0.000000E+00
  1.838420E-01 -1.728980E-02  5.000000E-01  1.856986E-01 -1.749410E-02  0.000000E+00  1.306383E-02 -1.945668E-04  4.226193E-19  1.474486E-01  0.000000E+00
  1.987870E-01 -1.748941E-02  5.000000E-01  2.007946E-01 -1.769573E-02  0.000000E+00  1.310490E-02 -1.279341E-04  1.911208E-19  1.280340E-01  0.000000E+00
  2.143420E-01 -1.758592E-02  5.000000E-01  2.165067E-01 -1.779321E-02  0.000000E+00  1.308175E-02 -2.031657E-05  5.071206E-20  1.102169E-01  0.000000E+00
  2.304940E-01 -1.753407E-02  5.000000E-01  2.328218E-01 -1.774084E-02  0.000000E+00  1.301882E-02  9.036450E-05 -5.546033E-19  9.892464E-02  0.000000E+00
  2.472290E-01 -1.735328E-02  5.000000E-01  2.497258E-01 -1.755823E-02  0.000000E+00  1.294337E-02  1.777595E-04 -9.145136E-19  9.414302E-02  0.000000E+00
  2.645310E-01 -1.706554E-02  5.000000E-01  2.672025E-01 -1.726757E-02  0.000000E+00  1.284267E-02  2.561652E-04 -3.729726E-19  9.016808E-02  0.000000E+00
  2.823750E-01 -1.665195E-02  5.000000E-01  2.852267E-01 -1.684981E-02  0.000000E+00  1.267437E-02  3.508399E-04 -2.342559E-19  8.407204E-02  0.000000E+00
  3.007320E-01 -1.606035E-02  5.000000E-01  3.037691E-01 -1.625224E-02  0.000000E+00  1.240284E-02  4.675924E-04 -6.956539E-19  7.893226E-02  0.000000E+00
  3.195690E-01 -1.524360E-02  5.000000E-01  3.227963E-01 -1.542724E-02  0.000000E+00  1.201870E-02  5.916179E-04 -7.890436E-19  7.940750E-02  0.000000E+00
  3.388440E-01 -1.417640E-02  5.000000E-01  3.422660E-01 -1.434926E-02  0.000000E+00  1.153983E-02  6.983282E-04 -7.346006E-19  8.806545E-02  0.000000E+00
  3.585140E-01 -1.287905E-02  5.000000E-01  3.621347E-01 -1.303880E-02  0.000000E+00  1.100063E-02  7.672085E-04 -4.471453E-19  1.044854E-01  0.000000E+00
  3.785290E-01 -1.140358E-02  5.000000E-01  3.823518E-01 -1.154843E-02  0.000000E+00  1.043571E-02  7.938320E-04 -3.851931E-19  1.254290E-01  0.000000E+00
  3.988350E-01 -9.809094E-03  5.000000E-01  4.028629E-01 -9.937848E-03  0.000000E+00  9.878853E-03  7.838275E-04 -9.212046E-20  1.479527E-01  0.000000E+00
  4.193750E-01 -8.161945E-03  5.000000E-01  4.236103E-01 -8.274064E-03  0.000000E+00  9.368174E-03  7.478478E-04 -1.431433E-19  1.702603E-01  0.000000E+00
  4.400850E-01 -6.517071E-03  5.000000E-01  4.445294E-01 -6.612579E-03  0.000000E+00  8.950520E-03  6.949058E-04 -7.727821E-19  1.912664E-01  0.000000E+00
  4.609060E-01 -4.939257E-03  5.000000E-01  4.655607E-01 -5.018831E-03  0.000000E+00  8.682533E-03  6.220006E-04  1.330001E-19  2.106445E-01  0.000000E+00
  4.818030E-01 -3.528583E-03  5.000000E-01  4.866688E-01 -3.593910E-03  0.000000E+00  8.618013E-03  5.151861E-04  1.288262E-18  2.279716E-01  0.000000E+00
  5.027520E-01 -2.435552E-03  5.000000E-01  5.078293E-01 -2.489840E-03  0.000000E+00  8.773628E-03  3.751288E-04  1.260292E-18  2.390759E-01  0.000000E+00
  5.237130E-01 -1.734449E-03  5.000000E-01  5.290020E-01 -1.781657E-03  0.000000E+00  9.102594E-03  2.356861E-04  2.203146E-19  2.367098E-01  0.000000E+00
  5.446170E-01 -1.348653E-03  5.000000E-01  5.501171E-01 -1.391965E-03  0.000000E+00  9.518275E-03  1.356296E-04 -6.069501E-19  2.201754E-01  0.000000E+00
  5.653940E-01 -1.135681E-03  5.000000E-01  5.711039E-01 -1.176842E-03  0.000000E+00  9.934021E-03  9.101809E-05 -2.892051E-19  1.971424E-01  0.000000E+00
  4.675910E-01  6.829593E-02  5.000000E-01  4.723132E-01  6.895596E-02  0.000000E+00  1.522935E-02 -9.620767E-04 -7.890651E-20 -7.150833E-01  0.000000E+00
  4.464640E-01  6.953042E-02  5.000000E-01  4.509729E-01  7.020292E-02  0.000000E+00  1.587989E-02 -8.395001E-04 -7.866339E-19 -7.547426E-01  0.000000E+00
  4.254410E-01  7.052954E-02  5.000000E-01  4.297376E-01  7.121213E-02  0.000000E+00  1.658279E-02 -6.874949E-04 -7.302501E-19 -7.944472E-01  0.000000E+00
  4.045840E-01  7.127251E-02  5.000000E-01  4.086699E-01  7.196260E-02  0.000000E+00  1.732104E-02 -5.036391E-04 -3.481508E-20 -8.342124E-01  0.000000E+00
  3.839530E-01  7.174220E-02  5.000000E-01  3.878306E-01  7.243704E-02  0.000000E+00  1.807435E-02 -2.814220E-04 -2.153067E-20 -8.725800E-01  0.000000E+00
  3.636060E-01  7.191811E-02  5.000000E-01  3.672781E-01  7.261472E-02  0.000000E+00  1.881703E-02 -1.425818E-05  2.574650E-21 -9.057418E-01  0.000000E+00
  3.435960E-01  7.178234E-02  5.000000E-01  3.470660E-01  7.247758E-02  0.000000E+00  1.951085E-02  2.987601E-04  3.310072E-19 -9.287018E-01  0.000000E+00
  3.239710E-01  7.132161E-02  5.000000E-01  3.272428E-01  7.201220E-02  0.000000E+00  2.009973E-02  6.398383E-04  3.558797E-19 -9.396853E-01  0.000000E+00
  3.047740E-01  7.055412E-02  5.000000E-01  3.078519E-01  7.123696E-02  0.000000E+00  2.053197E-02  9.710338E-04  5.470154E-19 -9.426740E-01  0.000000E+00
  2.860450E-01  6.953299E-02  5.000000E-01  2.889338E-01  7.020552E-02  0.000000E+00  2.080774E-02  1.273670E-03  2.416967E-19 -9.417579E-01  0.000000E+00
  2.678190E-01  6.829648E-02  5.000000E-01  2.705237E-01  6.895652E-02  0.000000E+00  2.097107E-02  1.553804E-03 -3.334691E-19 -9.388401E-01  0.000000E+00
  2.501300E-01  6.687551E-02  5.000000E-01  2.526561E-01  6.752120E-02  0.000000E+00  2.106967E-02  1.817260E-03  6.304333E-20 -9.355191E-01  0.000000E+00
  2.330040E-01  6.529700E-02  5.000000E-01  2.353571E-01  6.592675E-02  0.000000E+00  2.114127E-02  2.070363E-03 -1.681354E-19 -9.319320E-01  0.000000E+00
  2.164660E-01  6.358262E-02  5.000000E-01  2.186521E-01  6.419505E-02  0.000000E+00  2.120710E-02  2.318641E-03 -5.277904E-20 -9.268243E-01  0.000000E+00
  2.005340E-01  6.175126E-02  5.000000E-01  2.025592E-01  6.234520E-02  0.000000E+00  2.127281E-02  2.559527E-03  1.033912E-18 -9.196780E-01  0.000000E+00
  1.852230E-01  5.982779E-02  5.000000E-01  1.870936E-01  6.040230E-02  0.000000E+00  2.134347E-02  2.785570E-03  1.269672E-18 -9.126908E-01  0.000000E+00
  1.705440E-01  5.784101E-02  5.000000E-01  1.722663E-01  5.839545E-02  0.000000E+00  2.144191E-02  2.997353E-03 -2.977626E-20 -9.114692E-01  0.000000E+00
  1.565000E-01  5.581469E-02  5.000000E-01  1.580805E-01  5.634868E-02  0.000000E+00  2.161709E-02  3.208867E-03 -1.381868E-18 -9.240579E-01  0.000000E+00
  1.430940E-01  5.376675E-02  5.000000E-01  1.445391E-01  5.428005E-02  0.000000E+00  2.194858E-02  3.462393E-03 -1.889602E-18 -9.538658E-01  0.000000E+00
  1.303270E-01  5.168892E-02  5.000000E-01  1.316432E-01  5.218123E-02  0.000000E+00  2.251596E-02  3.837706E-03 -1.795779E-18 -9.909773E-01  0.000000E+00
  1.182110E-01  4.953444E-02  5.000000E-01  1.194048E-01  5.000500E-02  0.000000E+00  2.330228E-02  4.384571E-03 -6.123669E-19 -1.018108E+00  0.000000E+00
  1.067560E-01  4.726823E-02  5.000000E-01  1.078341E-01  4.771590E-02  0.000000E+00  2.415143E-02  5.074748E-03  3.428411E-19 -1.023075E+00  0.000000E+00
  9.596750E-02  4.487519E-02  5.000000E-01  9.693668E-02  4.529869E-02  0.000000E+00  2.483322E-02  5.777271E-03 -6.062516E-20 -1.012511E+00  0.000000E+00
  8.582800E-02  4.240640E-02  5.000000E-01  8.669479E-02  4.280497E-02  0.000000E+00  2.523303E-02  6.361178E-03 -6.783983E-19 -1.005870E+00  0.000000E+00
  8.582800E-02  4.240640E-02  5.000000E-01  8.669479E-02  4.280497E-02  0.000000E+00  2.523303E-02  6.361178E-03 -6.783983E-19 -1.005870E+00  0.000000E+00
  7.631050E-02  3.992404E-02  5.000000E-01  7.708117E-02  4.029754E-02  0.000000E+00  2.547944E-02  6.896043E-03  2.423807E-19 -1.007092E+00  0.000000E+00
  6.740780E-02  3.742837E-02  5.000000E-01  6.808856E-02  3.777667E-02  0.000000E+00  2.575404E-02  7.529218E-03  2.619982E-18 -1.006880E+00  0.000000E+00
  5.911740E-02  3.490688E-02  5.000000E-01  5.971443E-02  3.522971E-02  0.000000E+00  2.610561E-02  8.295102E-03  3.589568E-18 -9.999564E-01  0.000000E+00
  5.143150E-02  3.236205E-02  5.000000E-01  5.195091E-02  3.265918E-02  0.000000E+00  2.648074E-02  9.159306E-03  4.206366E-18 -9.860440E-01  0.000000E+00
  4.433770E-02  2.980512E-02  5.000000E-01  4.478547E-02  3.007643E-02  0.000000E+00  2.679977E-02  1.008887E-02  4.666520E-18 -9.682006E-01  0.000000E+00
  3.782240E-02  2.724882E-02  5.000000E-01  3.820438E-02  2.749432E-02  0.000000E+00  2.701131E-02  1.108158E-02  5.236802E-18 -9.506185E-01  0.000000E+00
  3.187460E-02  2.470148E-02  5.000000E-01  3.219651E-02  2.492125E-02  0.000000E+00  2.711450E-02  1.216716E-02  8.056857E-18 -9.340781E-01  0.000000E+00
  2.648400E-02  2.217154E-02  5.000000E-01  2.675147E-02  2.236576E-02  0.000000E+00  2.713605E-02  1.343481E-02  1.242518E-17 -9.053700E-01  0.000000E+00
  2.164990E-02  1.965566E-02  5.000000E-01  2.186855E-02  1.982448E-02  0.000000E+00  2.699798E-02  1.494585E-02  1.878353E-17 -8.381802E-01  0.000000E+00
  1.737670E-02  1.715019E-02  5.000000E-01  1.755219E-02  1.729370E-02  0.000000E+00  2.643298E-02  1.643450E-02  2.470210E-17 -7.262860E-01  0.000000E+00
  1.364080E-02  1.469104E-02  5.000000E-01  1.377856E-02  1.480971E-02  0.000000E+00  2.525098E-02  1.740519E-02  2.938930E-17 -6.013013E-01  0.000000E+00
  1.039090E-02  1.234154E-02  5.000000E-01  1.049584E-02  1.243649E-02  0.000000E+00  2.362117E-02  1.775226E-02  3.370251E-17 -4.994286E-01  0.000000E+00
  7.586340E-03  1.014595E-02  5.000000E-01  7.662960E-03  1.021872E-02  0.000000E+00  2.192595E-02  1.801763E-02  4.186099E-17 -4.233005E-01  0.000000E+00
  5.226210E-03  8.108202E-03  5.000000E-01  5.278995E-03  8.160396E-03  0.000000E+00  2.043420E-02  1.889885E-02  6.001078E-17 -3.513706E-01  0.000000E+00
  3.324300E-03  6.224599E-03  5.000000E-01  3.357877E-03  6.257770E-03  0.000000E+00  1.913903E-02  2.080467E-02  8.985869E-17 -2.651097E-01  0.000000E+00
  1.883580E-03  4.510587E-03  5.000000E-01  1.902607E-03  4.526448E-03  0.000000E+00  1.766291E-02  2.389144E-02  1.383702E-16 -1.442045E-01  0.000000E+00
  8.951490E-04  2.998345E-03  5.000000E-01  9.041942E-04  2.998934E-03  0.000000E+00  1.521020E-02  2.779870E-02  2.055036E-16  3.248627E-02  0.000000E+00
  3.201820E-04  1.739936E-03  5.000000E-01  3.234206E-04  1.727816E-03  0.000000E+00  1.112342E-02  3.107668E-02  2.696615E-16  2.582450E-01  0.000000E+00
  6.852390E-05  7.976397E-04  5.000000E-01  6.922101E-05  7.760034E-04  0.000000E+00  6.104370E-03  3.171777E-02  3.071323E-16  4.637091E-01  0.000000E+00
  4.217600E-06  2.218470E-04  5.000000E-01  4.265277E-06  1.943958E-04  0.000000E+00  2.080725E-03  3.018669E-02  3.133086E-16  5.381401E-01  0.000000E+00
 -5.032520E-09  2.939480E-05  5.000000E-01  0.000000E+00  0.000000E+00  0.000000E+00 -2.456659E-04  3.076830E-02  2.998517E-16  5.209904E-01  0.000000E+00
  5.154440E-06 -1.643558E-04  5.000000E-01  5.211578E-06 -1.957073E-04  0.000000E+00 -2.378916E-03  3.031332E-02  2.641856E-16  6.040376E-01  0.000000E+00