 Title = "ADflow Slice Data"
Variables =  "CoordinateX"  "CoordinateY"  "CoordinateZ"  "XoC"  "YoC"  "ZoC" "VelocityX" "VelocityY" "VelocityZ" "CoefPressure" "Mach" 
Zone T= "Slice_0001 None Absolute Regular z = 0.50000000"
 Nodes =          192  Elements=          184  ZONETYPE=FELINESEG
 DATAPACKING=POINT
  5.653940E-01 -2.210807E-03  5.000000E-01  5.711040E-01 -2.303630E-03  0.000000E+00  9.864727E-03  5.272695E-04  8.502906E-19  1.502576E-01  0.000000E+00
  5.859770E-01 -1.048114E-03  5.000000E-01  5.918948E-01 -1.129194E-03  0.000000E+00  9.674684E-03  5.792552E-04  4.279775E-19  1.514779E-01  0.000000E+00
  6.063060E-01  2.403483E-04  5.000000E-01  6.124291E-01  1.722803E-04  0.000000E+00  9.415270E-03  6.252935E-04  5.353051E-20  1.601760E-01  0.000000E+00
  6.263240E-01  1.632342E-03  5.000000E-01  6.326493E-01  1.578332E-03  0.000000E+00  9.117973E-03  6.492495E-04  1.536684E-19  1.740451E-01  0.000000E+00
  6.459860E-01  3.066595E-03  5.000000E-01  6.525099E-01  3.027069E-03  0.000000E+00  8.810118E-03  6.454987E-04  8.441186E-19  1.907284E-01  0.000000E+00
  6.652460E-01  4.483636E-03  5.000000E-01  6.719644E-01  4.458422E-03  0.000000E+00  8.496757E-03  6.246135E-04  3.647025E-19  2.071813E-01  0.000000E+00
  6.840650E-01  5.863736E-03  5.000000E-01  6.909734E-01  5.852459E-03  0.000000E+00  8.160584E-03  6.035419E-04 -7.031697E-19  2.212670E-01  0.000000E+00
  7.024070E-01  7.231356E-03  5.000000E-01  7.095007E-01  7.233891E-03  0.000000E+00  7.785447E-03  5.854786E-04 -9.788680E-19  2.347835E-01  0.000000E+00
  7.202400E-01  8.586106E-03  5.000000E-01  7.275138E-01  8.602323E-03  0.000000E+00  7.375178E-03  5.602122E-04 -2.717964E-19  2.510932E-01  0.000000E+00
  7.375350E-01  9.900784E-03  5.000000E-01  7.449834E-01  9.930277E-03  0.000000E+00  6.950276E-03  5.211812E-04 -3.417129E-20  2.704730E-01  0.000000E+00
  7.542690E-01  1.113748E-02  5.000000E-01  7.618864E-01  1.117946E-02  0.000000E+00  6.541138E-03  4.690374E-04 -9.211552E-19  2.911052E-01  0.000000E+00
  7.704220E-01  1.225682E-02  5.000000E-01  7.782026E-01  1.231010E-02  0.000000E+00  6.182761E-03  4.071760E-04 -6.311909E-19  3.108068E-01  0.000000E+00
  7.859770E-01  1.322453E-02  5.000000E-01  7.939147E-01  1.328759E-02  0.000000E+00  5.915281E-03  3.308956E-04  2.252913E-19  3.293261E-01  0.000000E+00
  8.009220E-01  1.396602E-02  5.000000E-01  8.090106E-01  1.403657E-02  0.000000E+00  5.777969E-03  2.315051E-04  1.898167E-19  3.468710E-01  0.000000E+00
  8.152480E-01  1.440118E-02  5.000000E-01  8.234813E-01  1.447613E-02  0.000000E+00  5.783734E-03  1.157795E-04 -1.839905E-19  3.593597E-01  0.000000E+00
  8.289490E-01  1.453223E-02  5.000000E-01  8.373206E-01  1.460849E-02  0.000000E+00  5.911289E-03 -1.592504E-06 -3.131946E-19  3.634274E-01  0.000000E+00
  8.420260E-01  1.440341E-02  5.000000E-01  8.505297E-01  1.447838E-02  0.000000E+00  6.125595E-03 -1.137992E-04 -3.516370E-19  3.610258E-01  0.000000E+00
  8.544790E-01  1.406845E-02  5.000000E-01  8.631085E-01  1.414003E-02  0.000000E+00  6.392897E-03 -2.188882E-04  9.651454E-20  3.551326E-01  0.000000E+00
  8.663160E-01  1.358042E-02  5.000000E-01  8.750650E-01  1.364707E-02  0.000000E+00  6.683336E-03 -3.154456E-04  1.734102E-19  3.472834E-01  0.000000E+00
  8.775420E-01  1.298648E-02  5.000000E-01  8.864044E-01  1.304713E-02  0.000000E+00  6.971349E-03 -4.014535E-04 -1.764345E-19  3.382242E-01  0.000000E+00
  8.881660E-01  1.232686E-02  5.000000E-01  8.971357E-01  1.238085E-02  0.000000E+00  7.237662E-03 -4.749057E-04  1.406387E-19  3.285759E-01  0.000000E+00
  8.981970E-01  1.163442E-02  5.000000E-01  9.072680E-01  1.168142E-02  0.000000E+00  7.472228E-03 -5.369478E-04  5.360054E-20  3.191183E-01  0.000000E+00
  9.076460E-01  1.092975E-02  5.000000E-01  9.168124E-01  1.096963E-02  0.000000E+00  7.676496E-03 -5.936383E-04 -1.129975E-19  3.107499E-01  0.000000E+00
  9.165220E-01  1.021974E-02  5.000000E-01  9.257780E-01  1.025245E-02  0.000000E+00  7.859791E-03 -6.506801E-04  2.540387E-19  3.034976E-01  0.000000E+00
  9.165220E-01  1.021974E-02  5.000000E-01  9.257780E-01  1.025245E-02  0.000000E+00  7.859791E-03 -6.506801E-04  2.540387E-19  3.034976E-01  0.000000E+00
  9.248360E-01  9.508608E-03  5.000000E-01  9.341760E-01  9.534141E-03  0.000000E+00  8.032255E-03 -7.099334E-04  4.024369E-19  2.965768E-01  0.000000E+00
  9.325990E-01  8.800679E-03  5.000000E-01  9.420174E-01  8.819062E-03  0.000000E+00  8.202315E-03 -7.721531E-04  1.260044E-19  2.895492E-01  0.000000E+00
  9.398210E-01  8.099965E-03  5.000000E-01  9.493123E-01  8.111272E-03  0.000000E+00  8.377317E-03 -8.382471E-04 -2.395783E-19  2.823248E-01  0.000000E+00
  9.465130E-01  7.410456E-03  5.000000E-01  9.560719E-01  7.414800E-03  0.000000E+00  8.563584E-03 -9.090199E-04 -1.918343E-19  2.747948E-01  0.000000E+00
  9.526870E-01  6.736270E-03  5.000000E-01  9.623083E-01  6.733805E-03  0.000000E+00  8.766070E-03 -9.851064E-04  6.256610E-19  2.668134E-01  0.000000E+00
  9.583540E-01  6.081823E-03  5.000000E-01  9.680325E-01  6.072749E-03  0.000000E+00  8.988405E-03 -1.066944E-03  1.889341E-18  2.582520E-01  0.000000E+00
  9.635240E-01  5.451891E-03  5.000000E-01  9.732547E-01  5.436455E-03  0.000000E+00  9.233421E-03 -1.154628E-03  4.047547E-18  2.489902E-01  0.000000E+00
  9.682080E-01  4.851541E-03  5.000000E-01  9.779860E-01  4.830042E-03  0.000000E+00  9.504794E-03 -1.248412E-03  4.364529E-18  2.389754E-01  0.000000E+00
  9.724140E-01  4.286133E-03  5.000000E-01  9.822345E-01  4.258924E-03  0.000000E+00  9.809456E-03 -1.348814E-03 -4.004835E-18  2.282028E-01  0.000000E+00
  9.761510E-01  3.761160E-03  5.000000E-01  9.860092E-01  3.728649E-03  0.000000E+00  1.015782E-02 -1.456267E-03 -2.936923E-17  2.166415E-01  0.000000E+00
  9.794290E-01  3.282056E-03  5.000000E-01  9.893203E-01  3.244707E-03  0.000000E+00  1.055687E-02 -1.571266E-03 -6.317655E-17  2.043025E-01  0.000000E+00
  9.822540E-01  2.854197E-03  5.000000E-01  9.921739E-01  2.812526E-03  0.000000E+00  1.099207E-02 -1.691959E-03 -4.130742E-17  1.914366E-01  0.000000E+00
  9.846330E-01  2.482592E-03  5.000000E-01  9.945769E-01  2.437169E-03  0.000000E+00  1.140852E-02 -1.807229E-03  1.198610E-16  1.792920E-01  0.000000E+00
  9.865710E-01  2.171799E-03  5.000000E-01  9.965345E-01  2.123237E-03  0.000000E+00  1.167259E-02 -1.883066E-03  3.373736E-16  1.667320E-01  0.000000E+00
  9.880740E-01  1.925734E-03  5.000000E-01  9.980527E-01  1.874687E-03  0.000000E+00  1.156667E-02 -1.911633E-03  2.800679E-16  1.475262E-01  0.000000E+00
  9.891450E-01  1.747596E-03  5.000000E-01  9.991345E-01  1.694750E-03  0.000000E+00  1.176545E-02 -2.048923E-03 -2.559561E-16  1.485352E-01  0.000000E+00
  9.897860E-01  1.639757E-03  5.000000E-01  9.997819E-01  1.585822E-03  0.000000E+00  1.514322E-02 -2.074204E-03 -9.073326E-16  1.959874E-01  0.000000E+00
  9.900000E-01  1.603647E-03  5.000000E-01  9.999981E-01  1.549347E-03  0.000000E+00  1.056757E-02 -4.459762E-03 -9.666922E-16 -4.727472E-02  0.000000E+00
  9.900000E-01  1.682357E-03  5.000000E-01  9.999981E-01  1.628852E-03  0.000000E+00  1.058329E-03 -1.484063E-02 -9.570911E-16 -1.849067E-01  0.000000E+00
  9.900000E-01  1.761077E-03  5.000000E-01  9.999981E-01  1.708367E-03  0.000000E+00 -5.264791E-04 -1.394681E-02 -5.116810E-16 -9.297739E-03  0.000000E+00
  9.900000E-01  1.839798E-03  5.000000E-01  9.999981E-01  1.787883E-03  0.000000E+00 -2.986663E-04  2.409382E-03  1.006225E-15 -1.399530E-02  0.000000E+00
  9.900000E-01  1.918508E-03  5.000000E-01  9.999981E-01  1.867388E-03  0.000000E+00  7.092424E-04  3.828856E-03  2.312133E-15 -1.315666E-01  0.000000E+00
  9.900000E-01  1.997228E-03  5.000000E-01  9.999981E-01  1.946903E-03  0.000000E+00  5.867337E-03 -2.622987E-03  2.035012E-15 -3.811355E-02  0.000000E+00
  9.900000E-01  1.997228E-03  5.000000E-01  9.999981E-01  1.946903E-03  0.000000E+00  5.867337E-03 -2.622987E-03  2.035012E-15 -3.811355E-02  0.000000E+00
  9.897900E-01  2.042915E-03  5.000000E-01  9.997860E-01  1.993051E-03  0.000000E+00  7.637048E-03 -1.990547E-03  6.662331E-16  1.031435E-01  0.000000E+00
  9.891580E-01  2.179936E-03  5.000000E-01  9.991476E-01  2.131456E-03  0.000000E+00  4.729898E-03 -9.644337E-04 -1.789141E-16  6.108229E-02  0.000000E+00
  9.881040E-01  2.408124E-03  5.000000E-01  9.980830E-01  2.361949E-03  0.000000E+00  3.968778E-03 -8.565854E-04 -2.633763E-16  5.146349E-02  0.000000E+00
  9.866260E-01  2.727202E-03  5.000000E-01  9.965900E-01  2.684249E-03  0.000000E+00  3.780410E-03 -8.202485E-04 -6.941499E-17  5.326708E-02  0.000000E+00
  9.847200E-01  3.136773E-03  5.000000E-01  9.946648E-01  3.097956E-03  0.000000E+00  3.702185E-03 -7.927892E-04  3.429400E-17  4.801568E-02  0.000000E+00
  9.823820E-01  3.636264E-03  5.000000E-01  9.923032E-01  3.602492E-03  0.000000E+00  3.757642E-03 -7.994263E-04  2.506791E-17  3.999947E-02  0.000000E+00
  9.796080E-01  4.224892E-03  5.000000E-01  9.895012E-01  4.197065E-03  0.000000E+00  3.923900E-03 -8.290405E-04 -1.795924E-18  3.118962E-02  0.000000E+00
  9.763910E-01  4.901678E-03  5.000000E-01  9.862517E-01  4.880685E-03  0.000000E+00  4.158896E-03 -8.707653E-04 -7.535798E-18  2.107449E-02  0.000000E+00
  9.727270E-01  5.665259E-03  5.000000E-01  9.825507E-01  5.651978E-03  0.000000E+00  4.434908E-03 -9.187742E-04 -2.977936E-18  9.557188E-03  0.000000E+00
  9.686070E-01  6.514082E-03  5.000000E-01  9.783891E-01  6.509373E-03  0.000000E+00  4.735566E-03 -9.691553E-04  7.466246E-20 -3.124061E-03  0.000000E+00
  9.640240E-01  7.446145E-03  5.000000E-01  9.737598E-01  7.450849E-03  0.000000E+00  5.051974E-03 -1.019553E-03  6.558497E-19 -1.681500E-02  0.000000E+00
  9.589680E-01  8.459110E-03  5.000000E-01  9.686527E-01  8.474044E-03  0.000000E+00  5.380316E-03 -1.068806E-03  6.450694E-19 -3.138077E-02  0.000000E+00
  9.534310E-01  9.550171E-03  5.000000E-01  9.630598E-01  9.576124E-03  0.000000E+00  5.718859E-03 -1.116204E-03 -2.048133E-19 -4.668553E-02  0.000000E+00
  9.474030E-01  1.071612E-02  5.000000E-01  9.569709E-01  1.075384E-02  0.000000E+00  6.065658E-03 -1.160787E-03 -6.648829E-19 -6.250409E-02  0.000000E+00
  9.408720E-01  1.195331E-02  5.000000E-01  9.503740E-01  1.200353E-02  0.000000E+00  6.417370E-03 -1.201638E-03  2.996199E-19 -7.866541E-02  0.000000E+00
  9.338280E-01  1.325767E-02  5.000000E-01  9.432588E-01  1.332106E-02  0.000000E+00  6.769727E-03 -1.237837E-03  5.879281E-19 -9.501061E-02  0.000000E+00
  9.262600E-01  1.462478E-02  5.000000E-01  9.356144E-01  1.470198E-02  0.000000E+00  7.117667E-03 -1.268164E-03  3.410112E-19 -1.113034E-01  0.000000E+00
  9.181550E-01  1.604970E-02  5.000000E-01  9.274275E-01  1.614130E-02  0.000000E+00  7.455089E-03 -1.291507E-03 -1.589182E-19 -1.273586E-01  0.000000E+00
  9.095020E-01  1.752735E-02  5.000000E-01  9.186871E-01  1.763387E-02  0.000000E+00  7.775131E-03 -1.306767E-03 -7.289231E-20 -1.428755E-01  0.000000E+00
  9.002880E-01  1.905211E-02  5.000000E-01  9.093801E-01  1.917403E-02  0.000000E+00  8.069594E-03 -1.312990E-03  4.167906E-19 -1.573380E-01  0.000000E+00
  8.905020E-01  2.061827E-02  5.000000E-01  8.994953E-01  2.075600E-02  0.000000E+00  8.328965E-03 -1.310728E-03 -5.173083E-19 -1.704266E-01  0.000000E+00
  8.801320E-01  2.222331E-02  5.000000E-01  8.890205E-01  2.237725E-02  0.000000E+00  8.545322E-03 -1.302370E-03 -2.832757E-19 -1.822266E-01  0.000000E+00
  8.691700E-01  2.386854E-02  5.000000E-01  8.779478E-01  2.403910E-02  0.000000E+00  8.715652E-03 -1.290491E-03  7.353409E-19 -1.929679E-01  0.000000E+00
  8.691700E-01  2.386854E-02  5.000000E-01  8.779478E-01  2.403910E-02  0.000000E+00  8.715652E-03 -1.290491E-03  7.353409E-19 -1.929679E-01  0.000000E+00
  8.576080E-01  2.555753E-02  5.000000E-01  8.662691E-01  2.574514E-02  0.000000E+00  8.842585E-03 -1.277403E-03  1.913931E-19 -2.027968E-01  0.000000E+00
  8.454380E-01  2.729623E-02  5.000000E-01  8.539762E-01  2.750140E-02  0.000000E+00  8.933584E-03 -1.266248E-03  1.863690E-19 -2.119309E-01  0.000000E+00
  8.326580E-01  2.909369E-02  5.000000E-01  8.410671E-01  2.931701E-02  0.000000E+00  9.001171E-03 -1.260791E-03  7.261096E-19 -2.209295E-01  0.000000E+00
  8.192630E-01  3.096249E-02  5.000000E-01  8.275368E-01  3.120468E-02  0.000000E+00  9.063825E-03 -1.265321E-03  1.043500E-18 -2.311701E-01  0.000000E+00
  8.052550E-01  3.291876E-02  5.000000E-01  8.133873E-01  3.318071E-02  0.000000E+00  9.147043E-03 -1.282910E-03  8.079286E-19 -2.446299E-01  0.000000E+00
  7.906370E-01  3.497692E-02  5.000000E-01  7.986217E-01  3.525966E-02  0.000000E+00  9.280698E-03 -1.311219E-03 -4.989381E-20 -2.622820E-01  0.000000E+00
  7.754120E-01  3.713519E-02  5.000000E-01  7.832430E-01  3.743972E-02  0.000000E+00  9.488120E-03 -1.343212E-03 -4.844325E-19 -2.835305E-01  0.000000E+00
  7.595880E-01  3.937241E-02  5.000000E-01  7.672592E-01  3.969954E-02  0.000000E+00  9.775250E-03 -1.373339E-03  9.900688E-20 -3.077067E-01  0.000000E+00
  7.431760E-01  4.166360E-02  5.000000E-01  7.506814E-01  4.201387E-02  0.000000E+00  1.013191E-02 -1.397898E-03  8.779639E-19 -3.342502E-01  0.000000E+00
  7.261880E-01  4.398034E-02  5.000000E-01  7.335218E-01  4.435401E-02  0.000000E+00  1.053776E-02 -1.412126E-03  1.033459E-18 -3.618102E-01  0.000000E+00
  7.086430E-01  4.629173E-02  5.000000E-01  7.157997E-01  4.668874E-02  0.000000E+00  1.096583E-02 -1.411659E-03  1.182634E-18 -3.883984E-01  0.000000E+00
  6.905640E-01  4.856773E-02  5.000000E-01  6.975381E-01  4.898773E-02  0.000000E+00  1.138728E-02 -1.396136E-03 -1.692643E-19 -4.126177E-01  0.000000E+00
  6.719770E-01  5.078808E-02  5.000000E-01  6.787634E-01  5.123050E-02  0.000000E+00  1.177964E-02 -1.372403E-03 -1.703665E-18 -4.353912E-01  0.000000E+00
  6.529150E-01  5.295382E-02  5.000000E-01  6.595089E-01  5.341811E-02  0.000000E+00  1.213989E-02 -1.347542E-03 -1.317482E-18 -4.587612E-01  0.000000E+00
  6.334180E-01  5.506818E-02  5.000000E-01  6.398150E-01  5.555383E-02  0.000000E+00  1.248595E-02 -1.319895E-03  3.612707E-19 -4.834847E-01  0.000000E+00
  6.135280E-01  5.711762E-02  5.000000E-01  6.197241E-01  5.762396E-02  0.000000E+00  1.283950E-02 -1.285278E-03  8.769699E-19 -5.098073E-01  0.000000E+00
  5.932910E-01  5.908495E-02  5.000000E-01  5.992827E-01  5.961116E-02  0.000000E+00  1.321472E-02 -1.241373E-03 -6.526091E-19 -5.376140E-01  0.000000E+00
  5.727570E-01  6.094831E-02  5.000000E-01  5.785413E-01  6.149334E-02  0.000000E+00  1.361632E-02 -1.184569E-03 -1.828743E-18 -5.652533E-01  0.000000E+00
  5.519810E-01  6.268123E-02  5.000000E-01  5.575555E-01  6.324376E-02  0.000000E+00  1.403679E-02 -1.111894E-03 -1.662858E-18 -5.906648E-01  0.000000E+00
  5.310180E-01  6.425739E-02  5.000000E-01  5.363808E-01  6.483584E-02  0.000000E+00  1.445819E-02 -1.028693E-03 -5.697617E-19 -6.146248E-01  0.000000E+00
  5.099250E-01  6.567426E-02  5.000000E-01  5.150748E-01  6.626702E-02  0.000000E+00  1.487010E-02 -9.450860E-04  2.382006E-19 -6.406160E-01  0.000000E+00
  4.887640E-01  6.694324E-02  5.000000E-01  4.937001E-01  6.754881E-02  0.000000E+00  1.528843E-02 -8.565355E-04  4.879003E-19 -6.694399E-01  0.000000E+00
  4.675910E-01  6.804860E-02  5.000000E-01  4.723132E-01  6.866534E-02  0.000000E+00  1.573664E-02 -7.468874E-04  7.603142E-19 -6.982116E-01  0.000000E+00
  7.860720E-05 -4.961248E-04  5.000000E-01  7.940614E-05 -5.716305E-04  0.000000E+00 -8.558814E-03  3.023792E-02 -8.870015E-17  8.376350E-01  0.000000E+00
  3.989240E-04 -1.159247E-03  5.000000E-01  4.029579E-04 -1.241449E-03  0.000000E+00 -7.627096E-03  1.325455E-02 -1.585763E-16  1.082856E+00  0.000000E+00
  1.196920E-03 -1.965062E-03  5.000000E-01  1.209013E-03 -2.055403E-03  0.000000E+00 -1.202311E-03  1.772025E-03 -1.183413E-16  1.074255E+00  0.000000E+00
  2.563580E-03 -2.810971E-03  5.000000E-01  2.589475E-03 -2.909854E-03  0.000000E+00  5.316344E-03 -2.586180E-03 -6.498613E-17  9.302160E-01  0.000000E+00
  4.492740E-03 -3.649480E-03  5.000000E-01  4.538118E-03 -3.756832E-03  0.000000E+00  9.328201E-03 -3.533565E-03 -2.474929E-17  8.007336E-01  0.000000E+00
  6.952190E-03 -4.474222E-03  5.000000E-01  7.022406E-03 -4.589903E-03  0.000000E+00  1.142035E-02 -3.502804E-03 -2.682166E-18  7.094055E-01  0.000000E+00
  9.910730E-03 -5.306259E-03  5.000000E-01  1.001082E-02 -5.430343E-03  0.000000E+00  1.256858E-02 -3.339463E-03  3.815714E-18  6.383382E-01  0.000000E+00
  1.334950E-02 -6.170877E-03  5.000000E-01  1.348432E-02 -6.303692E-03  0.000000E+00  1.329521E-02 -3.136276E-03  3.055257E-18  5.688804E-01  0.000000E+00
  1.728780E-02 -7.043318E-03  5.000000E-01  1.746240E-02 -7.184945E-03  0.000000E+00  1.374360E-02 -2.789424E-03  1.382975E-18  4.935647E-01  0.000000E+00
  2.175590E-02 -7.869243E-03  5.000000E-01  2.197562E-02 -8.019210E-03  0.000000E+00  1.393980E-02 -2.317073E-03  1.388459E-18  4.239218E-01  0.000000E+00
  2.676920E-02 -8.608112E-03  5.000000E-01  2.703955E-02 -8.765541E-03  0.000000E+00  1.394982E-02 -1.833633E-03  2.067007E-18  3.727380E-01  0.000000E+00
  3.232800E-02 -9.248569E-03  5.000000E-01  3.265449E-02 -9.412466E-03  0.000000E+00  1.385922E-02 -1.423494E-03  1.629991E-18  3.408943E-01  0.000000E+00
  3.842930E-02 -9.798374E-03  5.000000E-01  3.881741E-02 -9.967824E-03  0.000000E+00  1.372484E-02 -1.110310E-03  1.093780E-18  3.213132E-01  0.000000E+00
  4.507220E-02 -1.027418E-02  5.000000E-01  4.552739E-02 -1.044844E-02  0.000000E+00  1.358927E-02 -8.995110E-04  8.588808E-19  3.086293E-01  0.000000E+00
  5.225680E-02 -1.070985E-02  5.000000E-01  5.278455E-02 -1.088850E-02  0.000000E+00  1.349517E-02 -7.858176E-04  4.574434E-19  2.998219E-01  0.000000E+00
  5.998640E-02 -1.114163E-02  5.000000E-01  6.059221E-02 -1.132464E-02  0.000000E+00  1.345144E-02 -7.272888E-04  4.479218E-20  2.893085E-01  0.000000E+00
  6.827110E-02 -1.157579E-02  5.000000E-01  6.896058E-02 -1.176319E-02  0.000000E+00  1.343172E-02 -6.791698E-04 -2.427342E-19  2.741330E-01  0.000000E+00
  7.712280E-02 -1.200698E-02  5.000000E-01  7.790168E-02 -1.219874E-02  0.000000E+00  1.341300E-02 -6.301368E-04 -1.781462E-19  2.573136E-01  0.000000E+00
  8.655260E-02 -1.243298E-02  5.000000E-01  8.742671E-02 -1.262903E-02  0.000000E+00  1.338306E-02 -5.795191E-04  8.052669E-20  2.414266E-01  0.000000E+00
  9.657140E-02 -1.284814E-02  5.000000E-01  9.754669E-02 -1.304839E-02  0.000000E+00  1.332815E-02 -5.180415E-04  3.315798E-19  2.259554E-01  0.000000E+00
  1.071900E-01 -1.323388E-02  5.000000E-01  1.082725E-01 -1.343802E-02  0.000000E+00  1.324320E-02 -4.437958E-04  2.105990E-19  2.110975E-01  0.000000E+00
  1.184180E-01 -1.357783E-02  5.000000E-01  1.196139E-01 -1.378545E-02  0.000000E+00  1.314831E-02 -3.731637E-04 -1.239852E-19  1.990006E-01  0.000000E+00
  1.302610E-01 -1.388652E-02  5.000000E-01  1.315765E-01 -1.409726E-02  0.000000E+00  1.307467E-02 -3.213337E-04 -7.789556E-20  1.898223E-01  0.000000E+00
  1.427230E-01 -1.417407E-02  5.000000E-01  1.441644E-01 -1.438771E-02  0.000000E+00  1.304119E-02 -2.913680E-04 -5.793659E-20  1.814966E-01  0.000000E+00
  1.427230E-01 -1.417407E-02  5.000000E-01  1.441644E-01 -1.438771E-02  0.000000E+00  1.304119E-02 -2.913680E-04 -5.793659E-20  1.814966E-01  0.000000E+00
  1.558070E-01 -1.445709E-02  5.000000E-01  1.573805E-01 -1.467359E-02  0.000000E+00  1.304144E-02 -2.731634E-04 -4.888324E-20  1.716231E-01  0.000000E+00
  1.695140E-01 -1.473546E-02  5.000000E-01  1.712259E-01 -1.495477E-02  0.000000E+00  1.304524E-02 -2.478016E-04 -3.552153E-19  1.589126E-01  0.000000E+00
  1.838420E-01 -1.498911E-02  5.000000E-01  1.856986E-01 -1.521099E-02  0.000000E+00  1.301632E-02 -1.993618E-04 -5.078595E-19  1.444478E-01  0.000000E+00
  1.987870E-01 -1.518242E-02  5.000000E-01  2.007946E-01 -1.540625E-02  0.000000E+00  1.292989E-02 -1.201996E-04 -3.761076E-19  1.303041E-01  0.000000E+00
  2.143420E-01 -1.527000E-02  5.000000E-01  2.165067E-01 -1.549471E-02  0.000000E+00  1.278889E-02 -2.220304E-05 -7.829673E-20  1.192252E-01  0.000000E+00
  2.304940E-01 -1.523305E-02  5.000000E-01  2.328218E-01 -1.545738E-02  0.000000E+00  1.262844E-02  6.240042E-05  3.785802E-19  1.141368E-01  0.000000E+00
  2.472290E-01 -1.510405E-02  5.000000E-01  2.497258E-01 -1.532708E-02  0.000000E+00  1.248537E-02  1.147875E-04  1.424482E-19  1.138176E-01  0.000000E+00
  2.645310E-01 -1.491978E-02  5.000000E-01  2.672025E-01 -1.514095E-02  0.000000E+00  1.236643E-02  1.488673E-04  1.384617E-19  1.130178E-01  0.000000E+00
  2.823750E-01 -1.468175E-02  5.000000E-01  2.852267E-01 -1.490052E-02  0.000000E+00  1.225505E-02  1.881879E-04  4.095368E-19  1.087784E-01  0.000000E+00
  3.007320E-01 -1.436304E-02  5.000000E-01  3.037691E-01 -1.457859E-02  0.000000E+00  1.213685E-02  2.403179E-04  3.022892E-19  1.030953E-01  0.000000E+00
  3.195690E-01 -1.394279E-02  5.000000E-01  3.227964E-01 -1.415410E-02  0.000000E+00  1.200864E-02  2.973028E-04 -1.014910E-19  9.932003E-02  0.000000E+00
  3.388440E-01 -1.341704E-02  5.000000E-01  3.422660E-01 -1.362304E-02  0.000000E+00  1.186794E-02  3.508556E-04 -5.771598E-19  9.840486E-02  0.000000E+00
  3.585140E-01 -1.279015E-02  5.000000E-01  3.621347E-01 -1.298981E-02  0.000000E+00  1.170216E-02  4.006545E-04 -3.792364E-19  9.901922E-02  0.000000E+00
  3.785290E-01 -1.205752E-02  5.000000E-01  3.823518E-01 -1.224979E-02  0.000000E+00  1.149181E-02  4.494542E-04  1.749596E-19  1.001966E-01  0.000000E+00
  3.988350E-01 -1.121136E-02  5.000000E-01  4.028629E-01 -1.139508E-02  0.000000E+00  1.122436E-02  4.975765E-04  1.182548E-18  1.027813E-01  0.000000E+00
  4.193750E-01 -1.024469E-02  5.000000E-01  4.236103E-01 -1.041865E-02  0.000000E+00  1.090360E-02  5.480897E-04  9.531774E-19  1.074848E-01  0.000000E+00
  4.400850E-01 -9.135787E-03  5.000000E-01  4.445295E-01 -9.298546E-03  0.000000E+00  1.055968E-02  5.995325E-04 -4.836488E-20  1.148260E-01  0.000000E+00
  4.609060E-01 -7.883577E-03  5.000000E-01  4.655607E-01 -8.033689E-03  0.000000E+00  1.025476E-02  6.307095E-04  2.099333E-19  1.265753E-01  0.000000E+00
  4.818030E-01 -6.566129E-03  5.000000E-01  4.866688E-01 -6.702937E-03  0.000000E+00  1.005804E-02  6.130213E-04  3.873549E-19  1.431306E-01  0.000000E+00
  5.027520E-01 -5.332291E-03  5.000000E-01  5.078293E-01 -5.456638E-03  0.000000E+00  9.989464E-03  5.511896E-04  3.884955E-19  1.584791E-01  0.000000E+00
  5.237130E-01 -4.257851E-03  5.000000E-01  5.290020E-01 -4.371347E-03  0.000000E+00  9.990315E-03  4.949925E-04  1.188763E-18  1.633718E-01  0.000000E+00
  5.446170E-01 -3.263377E-03  5.000000E-01  5.501171E-01 -3.366829E-03  0.000000E+00  9.967536E-03  4.892689E-04  1.531244E-18  1.570339E-01  0.000000E+00
  5.653940E-01 -2.210807E-03  5.000000E-01  5.711040E-01 -2.303630E-03  0.000000E+00  9.864727E-03  5.272695E-04  8.502906E-19  1.502576E-01  0.000000E+00
  4.675910E-01  6.804860E-02  5.000000E-01  4.723132E-01  6.866534E-02  0.000000E+00  1.573664E-02 -7.468874E-04  7.603142E-19 -6.982116E-01  0.000000E+00
  4.464640E-01  6.895467E-02  5.000000E-01  4.509729E-01  6.958056E-02  0.000000E+00  1.621403E-02 -6.123964E-04  8.460935E-19 -7.251399E-01  0.000000E+00
  4.254410E-01  6.964433E-02  5.000000E-01  4.297376E-01  7.027717E-02  0.000000E+00  1.670141E-02 -4.602223E-04  1.806865E-19 -7.505304E-01  0.000000E+00
  4.045840E-01  7.011242E-02  5.000000E-01  4.086699E-01  7.074999E-02  0.000000E+00  1.718173E-02 -2.948289E-04 -5.162923E-19 -7.750023E-01  0.000000E+00
  3.839530E-01  7.036001E-02  5.000000E-01  3.878306E-01  7.100009E-02  0.000000E+00  1.764813E-02 -1.152156E-04 -6.003059E-19 -7.985161E-01  0.000000E+00
  3.636060E-01  7.038426E-02  5.000000E-01  3.672781E-01  7.102458E-02  0.000000E+00  1.810081E-02  8.171099E-05 -1.920437E-19 -8.201426E-01  0.000000E+00
  3.435960E-01  7.018289E-02  5.000000E-01  3.470660E-01  7.082117E-02  0.000000E+00  1.853885E-02  2.967572E-04  3.310660E-19 -8.389225E-01  0.000000E+00
  3.239710E-01  6.975506E-02  5.000000E-01  3.272428E-01  7.038902E-02  0.000000E+00  1.895617E-02  5.248008E-04  4.499930E-19 -8.553131E-01  0.000000E+00
  3.047740E-01  6.911246E-02  5.000000E-01  3.078519E-01  6.973994E-02  0.000000E+00  1.934936E-02  7.580149E-04  4.573882E-19 -8.710174E-01  0.000000E+00
  2.860450E-01  6.827372E-02  5.000000E-01  2.889338E-01  6.889273E-02  0.000000E+00  1.973026E-02  1.000266E-03  8.175597E-19 -8.861733E-01  0.000000E+00
  2.678190E-01  6.724423E-02  5.000000E-01  2.705237E-01  6.785284E-02  0.000000E+00  2.011304E-02  1.259820E-03  4.566279E-19 -9.000146E-01  0.000000E+00
  2.501300E-01  6.602951E-02  5.000000E-01  2.526561E-01  6.662585E-02  0.000000E+00  2.050032E-02  1.536975E-03 -4.581429E-19 -9.129505E-01  0.000000E+00
  2.330040E-01  6.463928E-02  5.000000E-01  2.353571E-01  6.522158E-02  0.000000E+00  2.089018E-02  1.830274E-03 -5.016899E-19 -9.257629E-01  0.000000E+00
  2.164660E-01  6.308512E-02  5.000000E-01  2.186521E-01  6.365173E-02  0.000000E+00  2.128395E-02  2.140735E-03 -1.990035E-19 -9.382012E-01  0.000000E+00
  2.005340E-01  6.137951E-02  5.000000E-01  2.025592E-01  6.192889E-02  0.000000E+00  2.168989E-02  2.478248E-03  2.629527E-19 -9.473829E-01  0.000000E+00
  1.852230E-01  5.952316E-02  5.000000E-01  1.870936E-01  6.005380E-02  0.000000E+00  2.210574E-02  2.847425E-03  7.437263E-19 -9.510553E-01  0.000000E+00
  1.705440E-01  5.752415E-02  5.000000E-01  1.722663E-01  5.803460E-02  0.000000E+00  2.251220E-02  3.232393E-03 -2.306889E-19 -9.527732E-01  0.000000E+00
  1.565000E-01  5.540452E-02  5.000000E-01  1.580805E-01  5.589356E-02  0.000000E+00  2.290702E-02  3.619763E-03 -1.369549E-18 -9.601320E-01  0.000000E+00
  1.430940E-01  5.319023E-02  5.000000E-01  1.445391E-01  5.365691E-02  0.000000E+00  2.333402E-02  4.033748E-03 -1.521622E-18 -9.763208E-01  0.000000E+00
  1.303270E-01  5.088580E-02  5.000000E-01  1.316432E-01  5.132920E-02  0.000000E+00  2.385536E-02  4.543860E-03 -1.133212E-18 -9.922751E-01  0.000000E+00
  1.182110E-01  4.846110E-02  5.000000E-01  1.194048E-01  4.888001E-02  0.000000E+00  2.445649E-02  5.189246E-03 -1.019861E-18 -9.930575E-01  0.000000E+00
  1.067560E-01  4.589874E-02  5.000000E-01  1.078341E-01  4.629178E-02  0.000000E+00  2.500776E-02  5.928419E-03 -3.884071E-19 -9.693854E-01  0.000000E+00
  9.596750E-02  4.320125E-02  5.000000E-01  9.693669E-02  4.356705E-02  0.000000E+00  2.532637E-02  6.623963E-03  4.633801E-20 -9.291271E-01  0.000000E+00
  8.582800E-02  4.043114E-02  5.000000E-01  8.669479E-02  4.076896E-02  0.000000E+00  2.533895E-02  7.150759E-03 -8.158677E-19 -8.908966E-01  0.000000E+00
  8.582800E-02  4.043114E-02  5.000000E-01  8.669479E-02  4.076896E-02  0.000000E+00  2.533895E-02  7.150759E-03 -8.158677E-19 -8.908966E-01  0.000000E+00
  7.631050E-02  3.765760E-02  5.000000E-01  7.708117E-02  3.796741E-02  0.000000E+00  2.517674E-02  7.578703E-03  3.863802E-20 -8.587593E-01  0.000000E+00
  6.740780E-02  3.489215E-02  5.000000E-01  6.808856E-02  3.517403E-02  0.000000E+00  2.500421E-02  8.041770E-03  1.868129E-18 -8.255792E-01  0.000000E+00
  5.911740E-02  3.213474E-02  5.000000E-01  5.971444E-02  3.238877E-02  0.000000E+00  2.487355E-02  8.564905E-03  2.648355E-18 -7.882389E-01  0.000000E+00
  5.143150E-02  2.939791E-02  5.000000E-01  5.195092E-02  2.962430E-02  0.000000E+00  2.475987E-02  9.115642E-03  1.816116E-18 -7.472998E-01  0.000000E+00
  4.433770E-02  2.670036E-02  5.000000E-01  4.478548E-02  2.689952E-02  0.000000E+00  2.462066E-02  9.668313E-03 -7.413707E-19 -7.053609E-01  0.000000E+00
  3.782240E-02  2.406032E-02  5.000000E-01  3.820438E-02  2.423282E-02  0.000000E+00  2.443162E-02  1.022404E-02 -2.186147E-18 -6.662957E-01  0.000000E+00
  3.187460E-02  2.149075E-02  5.000000E-01  3.219651E-02  2.163729E-02  0.000000E+00  2.420249E-02  1.080879E-02 -2.363778E-18 -6.328883E-01  0.000000E+00
  2.648400E-02  1.900300E-02  5.000000E-01  2.675147E-02  1.912442E-02  0.000000E+00  2.396559E-02  1.149285E-02 -3.906499E-18 -5.981610E-01  0.000000E+00
  2.164990E-02  1.659798E-02  5.000000E-01  2.186855E-02  1.669511E-02  0.000000E+00  2.368673E-02  1.233244E-02 -4.391636E-18 -5.436675E-01  0.000000E+00
  1.737670E-02  1.427531E-02  5.000000E-01  1.755219E-02  1.434898E-02  0.000000E+00  2.319678E-02  1.316957E-02  3.115962E-18 -4.631756E-01  0.000000E+00
  1.364080E-02  1.206177E-02  5.000000E-01  1.377856E-02  1.211309E-02  0.000000E+00  2.235189E-02  1.369456E-02  1.836818E-17 -3.774949E-01  0.000000E+00
  1.039090E-02  1.000031E-02  5.000000E-01  1.049584E-02  1.003081E-02  0.000000E+00  2.124265E-02  1.385446E-02  2.527630E-17 -3.127778E-01  0.000000E+00
  7.586340E-03  8.117111E-03  5.000000E-01  7.662960E-03  8.128591E-03  0.000000E+00  2.015490E-02  1.404816E-02  1.053405E-17 -2.732924E-01  0.000000E+00
  5.226210E-03  6.408960E-03  5.000000E-01  5.278995E-03  6.403189E-03  0.000000E+00  1.938367E-02  1.485533E-02 -1.228691E-17 -2.470773E-01  0.000000E+00
  3.324300E-03  4.867423E-03  5.000000E-01  3.357877E-03  4.846084E-03  0.000000E+00  1.911628E-02  1.683361E-02 -1.684203E-17 -2.224847E-01  0.000000E+00
  1.883580E-03  3.497435E-03  5.000000E-01  1.902608E-03  3.462260E-03  0.000000E+00  1.920452E-02  2.063863E-02  1.118100E-17 -1.755632E-01  0.000000E+00
  8.951490E-04  2.315459E-03  5.000000E-01  9.041943E-04  2.268347E-03  0.000000E+00  1.859491E-02  2.660303E-02  9.434119E-17 -6.336233E-02  0.000000E+00
  3.201820E-04  1.351356E-03  5.000000E-01  3.234206E-04  1.294509E-03  0.000000E+00  1.539811E-02  3.324879E-02  2.699552E-16  1.390341E-01  0.000000E+00
  6.852390E-05  6.411893E-04  5.000000E-01  6.922101E-05  5.771695E-04  0.000000E+00  9.330296E-03  3.688263E-02  4.891869E-16  3.603394E-01  0.000000E+00
  4.217600E-06  2.122754E-04  5.000000E-01  4.265277E-06  1.439239E-04  0.000000E+00  3.391125E-03  3.698110E-02  5.802556E-16  4.382413E-01  0.000000E+00
 -5.032520E-09  6.979046E-05  5.000000E-01  0.000000E+00  0.000000E+00  0.000000E+00 -5.144168E-04  4.062635E-02  4.372796E-16  4.022738E-01  0.000000E+00
  5.154440E-06 -7.320816E-05  5.000000E-01  5.211579E-06 -1.444428E-04  0.000000E+00 -4.496795E-03  4.194030E-02  1.498158E-16  5.185310E-01  0.000000E+00