 Title = "ADflow Slice Data"
Variables =  "CoordinateX"  "CoordinateY"  "CoordinateZ"  "XoC"  "YoC"  "ZoC" "VelocityX" "VelocityY" "VelocityZ" "CoefPressure" "Mach" 
Zone T= "Slice_0001 None Absolute Regular z = 0.50000000"
 Nodes =          192  Elements=          184  ZONETYPE=FELINESEG
 DATAPACKING=POINT
  5.653940E-01  5.083024E-03  5.000000E-01  5.711039E-01  5.059700E-03  0.000000E+00  3.753308E-03  1.011193E-03  1.178362E-18  2.252469E-01  0.000000E+00
  5.859770E-01  1.084920E-02  5.000000E-01  5.918947E-01  1.088411E-02  0.000000E+00  2.480908E-03  6.968149E-04  2.452440E-18  3.012550E-01  0.000000E+00
  6.063060E-01  1.657345E-02  5.000000E-01  6.124290E-01  1.666616E-02  0.000000E+00  1.561613E-03  4.316769E-04  7.099932E-19  3.722035E-01  0.000000E+00
  6.263240E-01  2.189870E-02  5.000000E-01  6.326492E-01  2.204519E-02  0.000000E+00  1.003926E-03  2.536586E-04 -2.279121E-20  4.273329E-01  0.000000E+00
  6.459860E-01  2.646478E-02  5.000000E-01  6.525097E-01  2.665739E-02  0.000000E+00  7.683694E-04  1.595834E-04 -2.494213E-19  4.670962E-01  0.000000E+00
  6.652460E-01  2.995580E-02  5.000000E-01  6.719642E-01  3.018367E-02  0.000000E+00  8.019860E-04  1.197624E-04 -7.127838E-19  4.946715E-01  0.000000E+00
  6.840650E-01  3.226164E-02  5.000000E-01  6.909733E-01  3.251279E-02  0.000000E+00  1.041585E-03  9.792921E-05  1.790721E-19  5.097326E-01  0.000000E+00
  7.024070E-01  3.359315E-02  5.000000E-01  7.095005E-01  3.385775E-02  0.000000E+00  1.416013E-03  7.082378E-05 -9.629991E-20  5.138252E-01  0.000000E+00
  7.202400E-01  3.419202E-02  5.000000E-01  7.275136E-01  3.446267E-02  0.000000E+00  1.860918E-03  3.181381E-05 -1.938687E-19  5.118206E-01  0.000000E+00
  7.375350E-01  3.426886E-02  5.000000E-01  7.449833E-01  3.454028E-02  0.000000E+00  2.325420E-03 -1.641010E-05  7.404661E-19  5.066506E-01  0.000000E+00
  7.542690E-01  3.399382E-02  5.000000E-01  7.618863E-01  3.426247E-02  0.000000E+00  2.770891E-03 -6.706026E-05  1.039898E-18  4.996706E-01  0.000000E+00
  7.704220E-01  3.349390E-02  5.000000E-01  7.782024E-01  3.375749E-02  0.000000E+00  3.172772E-03 -1.149921E-04  2.359883E-19  4.917513E-01  0.000000E+00
  7.859770E-01  3.285684E-02  5.000000E-01  7.939145E-01  3.311400E-02  0.000000E+00  3.527206E-03 -1.657939E-04 -4.314283E-19  4.849268E-01  0.000000E+00
  8.009220E-01  3.207662E-02  5.000000E-01  8.090104E-01  3.232590E-02  0.000000E+00  3.853624E-03 -2.344118E-04 -2.060555E-19  4.813629E-01  0.000000E+00
  8.152480E-01  3.109243E-02  5.000000E-01  8.234811E-01  3.133177E-02  0.000000E+00  4.177342E-03 -3.255077E-04  9.133148E-19  4.784538E-01  0.000000E+00
  8.289490E-01  2.990488E-02  5.000000E-01  8.373205E-01  3.013222E-02  0.000000E+00  4.510535E-03 -4.306098E-04  1.635428E-18  4.723226E-01  0.000000E+00
  8.420260E-01  2.854886E-02  5.000000E-01  8.505295E-01  2.876251E-02  0.000000E+00  4.853622E-03 -5.416843E-04  1.515895E-18  4.630324E-01  0.000000E+00
  8.544790E-01  2.706775E-02  5.000000E-01  8.631083E-01  2.726645E-02  0.000000E+00  5.202122E-03 -6.539768E-04  1.392432E-18  4.520002E-01  0.000000E+00
  8.663160E-01  2.550486E-02  5.000000E-01  8.750648E-01  2.568777E-02  0.000000E+00  5.548319E-03 -7.638986E-04  9.914782E-19  4.399985E-01  0.000000E+00
  8.775420E-01  2.389968E-02  5.000000E-01  8.864042E-01  2.406638E-02  0.000000E+00  5.882474E-03 -8.679156E-04 -2.803860E-20  4.274322E-01  0.000000E+00
  8.881660E-01  2.228629E-02  5.000000E-01  8.971355E-01  2.243670E-02  0.000000E+00  6.195546E-03 -9.630211E-04 -5.207831E-19  4.146231E-01  0.000000E+00
  8.981970E-01  2.069282E-02  5.000000E-01  9.072678E-01  2.082714E-02  0.000000E+00  6.482816E-03 -1.049673E-03 -3.539623E-19  4.020798E-01  0.000000E+00
  9.076460E-01  1.913543E-02  5.000000E-01  9.168122E-01  1.925402E-02  0.000000E+00  6.747301E-03 -1.133736E-03 -1.410922E-18  3.905349E-01  0.000000E+00
  9.165220E-01  1.761685E-02  5.000000E-01  9.257779E-01  1.772011E-02  0.000000E+00  6.998192E-03 -1.221279E-03 -1.558271E-18  3.799501E-01  0.000000E+00
  9.165220E-01  1.761685E-02  5.000000E-01  9.257779E-01  1.772011E-02  0.000000E+00  6.998192E-03 -1.221279E-03 -1.558271E-18  3.799501E-01  0.000000E+00
  9.248360E-01  1.613831E-02  5.000000E-01  9.341758E-01  1.622663E-02  0.000000E+00  7.245240E-03 -1.314591E-03 -5.348344E-19  3.695197E-01  0.000000E+00
  9.325990E-01  1.470260E-02  5.000000E-01  9.420172E-01  1.477643E-02  0.000000E+00  7.496289E-03 -1.414608E-03 -1.672553E-19  3.587849E-01  0.000000E+00
  9.398210E-01  1.331346E-02  5.000000E-01  9.493121E-01  1.337325E-02  0.000000E+00  7.757872E-03 -1.522268E-03  3.297839E-19  3.476389E-01  0.000000E+00
  9.465130E-01  1.197529E-02  5.000000E-01  9.560717E-01  1.202157E-02  0.000000E+00  8.035331E-03 -1.638338E-03  6.283147E-19  3.359670E-01  0.000000E+00
  9.526870E-01  1.069305E-02  5.000000E-01  9.623081E-01  1.072638E-02  0.000000E+00  8.332596E-03 -1.763349E-03  4.956700E-19  3.236364E-01  0.000000E+00
  9.583540E-01  9.472279E-03  5.000000E-01  9.680323E-01  9.493281E-03  0.000000E+00  8.652502E-03 -1.897625E-03  3.360244E-19  3.105448E-01  0.000000E+00
  9.635240E-01  8.318994E-03  5.000000E-01  9.732545E-01  8.328349E-03  0.000000E+00  8.997717E-03 -2.041291E-03  3.734130E-19  2.965925E-01  0.000000E+00
  9.682080E-01  7.239244E-03  5.000000E-01  9.779858E-01  7.237695E-03  0.000000E+00  9.373017E-03 -2.195076E-03  4.611013E-19  2.817550E-01  0.000000E+00
  9.724140E-01  6.239419E-03  5.000000E-01  9.822343E-01  6.227773E-03  0.000000E+00  9.788257E-03 -2.360835E-03  5.475609E-19  2.660478E-01  0.000000E+00
  9.761510E-01  5.325645E-03  5.000000E-01  9.860090E-01  5.304771E-03  0.000000E+00  1.025815E-02 -2.541165E-03  4.826918E-19  2.494351E-01  0.000000E+00
  9.794290E-01  4.503574E-03  5.000000E-01  9.893201E-01  4.474398E-03  0.000000E+00  1.079260E-02 -2.738171E-03  4.414209E-19  2.319321E-01  0.000000E+00
  9.822540E-01  3.778902E-03  5.000000E-01  9.921737E-01  3.742408E-03  0.000000E+00  1.137239E-02 -2.947372E-03  5.358757E-19  2.138410E-01  0.000000E+00
  9.846330E-01  3.156598E-03  5.000000E-01  9.945767E-01  3.113819E-03  0.000000E+00  1.192048E-02 -3.145537E-03  8.969717E-19  1.964164E-01  0.000000E+00
  9.865710E-01  2.641164E-03  5.000000E-01  9.965343E-01  2.593180E-03  0.000000E+00  1.225505E-02 -3.272025E-03  1.724064E-18  1.783066E-01  0.000000E+00
  9.880740E-01  2.236185E-03  5.000000E-01  9.980524E-01  2.184111E-03  0.000000E+00  1.210652E-02 -3.284619E-03 -2.542587E-18  1.544456E-01  0.000000E+00
  9.891450E-01  1.944721E-03  5.000000E-01  9.991343E-01  1.889704E-03  0.000000E+00  1.213016E-02 -3.388486E-03 -2.404774E-17  1.541124E-01  0.000000E+00
  9.897860E-01  1.769028E-03  5.000000E-01  9.997817E-01  1.712236E-03  0.000000E+00  1.502716E-02 -3.635667E-03 -6.799633E-17  1.934122E-01  0.000000E+00
  9.900000E-01  1.710259E-03  5.000000E-01  9.999979E-01  1.652874E-03  0.000000E+00  1.031256E-02 -6.081197E-03 -7.227818E-17 -5.380528E-02  0.000000E+00
  9.900000E-01  1.788970E-03  5.000000E-01  9.999979E-01  1.732379E-03  0.000000E+00  1.031270E-03 -1.604096E-02  6.611562E-18 -1.870359E-01  0.000000E+00
  9.900000E-01  1.867690E-03  5.000000E-01  9.999979E-01  1.811894E-03  0.000000E+00 -5.236063E-04 -1.563540E-02  8.456217E-17 -1.735260E-02  0.000000E+00
  9.900000E-01  1.946410E-03  5.000000E-01  9.999979E-01  1.891409E-03  0.000000E+00 -2.163042E-04 -1.046525E-03  1.026416E-16 -2.379608E-02  0.000000E+00
  9.900000E-01  2.025120E-03  5.000000E-01  9.999979E-01  1.970914E-03  0.000000E+00  5.646272E-04  1.136410E-03  1.229618E-16 -1.145092E-01  0.000000E+00
  9.900000E-01  2.103840E-03  5.000000E-01  9.999979E-01  2.050430E-03  0.000000E+00  4.376274E-03 -3.105420E-03  1.451285E-16 -3.806494E-02  0.000000E+00
  9.900000E-01  2.103840E-03  5.000000E-01  9.999979E-01  2.050430E-03  0.000000E+00  4.376274E-03 -3.105420E-03  1.451285E-16 -3.806494E-02  0.000000E+00
  9.897900E-01  2.171933E-03  5.000000E-01  9.997858E-01  2.119211E-03  0.000000E+00  5.451464E-03 -2.023816E-03  1.005313E-16  6.942171E-02  0.000000E+00
  9.891580E-01  2.376428E-03  5.000000E-01  9.991474E-01  2.325770E-03  0.000000E+00  2.874067E-03 -8.809615E-04  3.381088E-17  3.591825E-02  0.000000E+00
  9.881040E-01  2.717275E-03  5.000000E-01  9.980828E-01  2.670059E-03  0.000000E+00  1.948639E-03 -6.283014E-04  3.088232E-18  2.784033E-02  0.000000E+00
  9.866260E-01  3.194607E-03  5.000000E-01  9.965898E-01  3.152212E-03  0.000000E+00  1.539453E-03 -5.013267E-04 -3.046353E-18  2.940913E-02  0.000000E+00
  9.847200E-01  3.808714E-03  5.000000E-01  9.946646E-01  3.772520E-03  0.000000E+00  1.285285E-03 -4.134824E-04 -2.126446E-18  2.552283E-02  0.000000E+00
  9.823820E-01  4.559770E-03  5.000000E-01  9.923030E-01  4.531162E-03  0.000000E+00  1.194125E-03 -3.824321E-04 -1.622944E-18  1.860291E-02  0.000000E+00
  9.796080E-01  5.447778E-03  5.000000E-01  9.895010E-01  5.428137E-03  0.000000E+00  1.242907E-03 -3.969102E-04 -1.075210E-18  1.040457E-02  0.000000E+00
  9.763910E-01  6.472874E-03  5.000000E-01  9.862515E-01  6.463586E-03  0.000000E+00  1.388896E-03 -4.414121E-04 -6.686292E-19  5.942123E-04  0.000000E+00
  9.727270E-01  7.634486E-03  5.000000E-01  9.825505E-01  7.636928E-03  0.000000E+00  1.600617E-03 -5.056799E-04 -1.087665E-18 -1.112579E-02  0.000000E+00
  9.686070E-01  8.932301E-03  5.000000E-01  9.783889E-01  8.947850E-03  0.000000E+00  1.859604E-03 -5.834321E-04 -8.143824E-19 -2.480915E-02  0.000000E+00
  9.640240E-01  1.036523E-02  5.000000E-01  9.737596E-01  1.039525E-02  0.000000E+00  2.157339E-03 -6.712774E-04 -7.268045E-19 -4.054415E-02  0.000000E+00
  9.589680E-01  1.193194E-02  5.000000E-01  9.686525E-01  1.197778E-02  0.000000E+00  2.492034E-03 -7.679738E-04 -1.216295E-18 -5.838734E-02  0.000000E+00
  9.534310E-01  1.363012E-02  5.000000E-01  9.630596E-01  1.369311E-02  0.000000E+00  2.865046E-03 -8.730919E-04  6.217368E-19 -7.837020E-02  0.000000E+00
  9.474030E-01  1.545683E-02  5.000000E-01  9.569707E-01  1.553827E-02  0.000000E+00  3.278143E-03 -9.859982E-04  1.690633E-18 -1.004676E-01  0.000000E+00
  9.408720E-01  1.740830E-02  5.000000E-01  9.503738E-01  1.750945E-02  0.000000E+00  3.731862E-03 -1.105601E-03  6.057485E-19 -1.246470E-01  0.000000E+00
  9.338280E-01  1.947935E-02  5.000000E-01  9.432586E-01  1.960141E-02  0.000000E+00  4.225040E-03 -1.230128E-03 -1.417020E-18 -1.508330E-01  0.000000E+00
  9.262600E-01  2.166358E-02  5.000000E-01  9.356142E-01  2.180771E-02  0.000000E+00  4.754480E-03 -1.356821E-03 -3.156604E-18 -1.788504E-01  0.000000E+00
  9.181550E-01  2.395306E-02  5.000000E-01  9.274273E-01  2.412030E-02  0.000000E+00  5.314499E-03 -1.482100E-03 -2.016658E-18 -2.084956E-01  0.000000E+00
  9.095020E-01  2.633804E-02  5.000000E-01  9.186870E-01  2.652937E-02  0.000000E+00  5.896565E-03 -1.601440E-03 -7.935733E-19 -2.393424E-01  0.000000E+00
  9.002880E-01  2.880681E-02  5.000000E-01  9.093799E-01  2.902307E-02  0.000000E+00  6.487780E-03 -1.709409E-03 -1.657961E-18 -2.706021E-01  0.000000E+00
  8.905020E-01  3.134557E-02  5.000000E-01  8.994951E-01  3.158747E-02  0.000000E+00  7.069919E-03 -1.800976E-03 -1.919556E-19 -3.015294E-01  0.000000E+00
  8.801320E-01  3.394238E-02  5.000000E-01  8.890204E-01  3.421051E-02  0.000000E+00  7.621556E-03 -1.872652E-03  1.841331E-18 -3.316961E-01  0.000000E+00
  8.691700E-01  3.658754E-02  5.000000E-01  8.779477E-01  3.688238E-02  0.000000E+00  8.121257E-03 -1.921764E-03  2.225733E-18 -3.608031E-01  0.000000E+00
  8.691700E-01  3.658754E-02  5.000000E-01  8.779477E-01  3.688238E-02  0.000000E+00  8.121257E-03 -1.921764E-03  2.225733E-18 -3.608031E-01  0.000000E+00
  8.576080E-01  3.927240E-02  5.000000E-01  8.662689E-01  3.959435E-02  0.000000E+00  8.548840E-03 -1.946354E-03  9.953541E-19 -3.884589E-01  0.000000E+00
  8.454380E-01  4.199017E-02  5.000000E-01  8.539760E-01  4.233956E-02  0.000000E+00  8.886220E-03 -1.946830E-03 -2.667785E-18 -4.140620E-01  0.000000E+00
  8.326580E-01  4.473790E-02  5.000000E-01  8.410669E-01  4.511505E-02  0.000000E+00  9.121194E-03 -1.927370E-03 -2.574486E-18 -4.366410E-01  0.000000E+00
  8.192630E-01  4.752120E-02  5.000000E-01  8.275366E-01  4.792645E-02  0.000000E+00  9.254991E-03 -1.898581E-03 -5.660430E-19 -4.558973E-01  0.000000E+00
  8.052550E-01  5.036026E-02  5.000000E-01  8.133872E-01  5.079419E-02  0.000000E+00  9.316889E-03 -1.879851E-03  6.743268E-19 -4.747757E-01  0.000000E+00
  7.906370E-01  5.329690E-02  5.000000E-01  7.986216E-01  5.376048E-02  0.000000E+00  9.385005E-03 -1.898800E-03  1.430133E-18 -5.010538E-01  0.000000E+00
  7.754120E-01  5.639703E-02  5.000000E-01  7.832428E-01  5.689192E-02  0.000000E+00  9.600845E-03 -1.979701E-03 -6.676360E-19 -5.433932E-01  0.000000E+00
  7.595880E-01  5.970105E-02  5.000000E-01  7.672590E-01  6.022931E-02  0.000000E+00  1.014948E-02 -2.125350E-03 -2.618875E-18 -6.068360E-01  0.000000E+00
  7.431760E-01  6.314849E-02  5.000000E-01  7.506813E-01  6.371156E-02  0.000000E+00  1.120413E-02 -2.324205E-03 -1.659368E-18 -7.004250E-01  0.000000E+00
  7.261880E-01  6.662554E-02  5.000000E-01  7.335217E-01  6.722373E-02  0.000000E+00  1.291085E-02 -2.546115E-03 -2.349046E-20 -8.373119E-01  0.000000E+00
  7.086430E-01  6.995992E-02  5.000000E-01  7.157995E-01  7.059178E-02  0.000000E+00  1.538288E-02 -2.703503E-03  1.235790E-18 -1.013855E+00  0.000000E+00
  6.905640E-01  7.291315E-02  5.000000E-01  6.975379E-01  7.357483E-02  0.000000E+00  1.858130E-02 -2.615585E-03  3.936331E-19 -1.190430E+00  0.000000E+00
  6.719770E-01  7.518892E-02  5.000000E-01  6.787632E-01  7.587359E-02  0.000000E+00  2.213259E-02 -2.038159E-03 -3.475536E-19 -1.299984E+00  0.000000E+00
  6.529150E-01  7.646838E-02  5.000000E-01  6.595087E-01  7.716596E-02  0.000000E+00  2.518484E-02 -9.078158E-04  5.919791E-19 -1.298495E+00  0.000000E+00
  6.334180E-01  7.662996E-02  5.000000E-01  6.398148E-01  7.732918E-02  0.000000E+00  2.675151E-02  4.282570E-04 -8.809997E-20 -1.201347E+00  0.000000E+00
  6.135280E-01  7.583790E-02  5.000000E-01  6.197240E-01  7.652912E-02  0.000000E+00  2.649257E-02  1.517647E-03 -1.253569E-18 -1.049884E+00  0.000000E+00
  5.932910E-01  7.430859E-02  5.000000E-01  5.992826E-01  7.498437E-02  0.000000E+00  2.483630E-02  2.147531E-03 -2.111066E-18 -8.793299E-01  0.000000E+00
  5.727570E-01  7.228650E-02  5.000000E-01  5.785412E-01  7.294185E-02  0.000000E+00  2.246655E-02  2.312998E-03 -8.513035E-19 -7.192786E-01  0.000000E+00
  5.519810E-01  7.003877E-02  5.000000E-01  5.575554E-01  7.067143E-02  0.000000E+00  1.996566E-02  2.137003E-03  4.378118E-19 -5.888608E-01  0.000000E+00
  5.310180E-01  6.781996E-02  5.000000E-01  5.363807E-01  6.843021E-02  0.000000E+00  1.771566E-02  1.810652E-03 -5.413343E-19 -4.894216E-01  0.000000E+00
  5.099250E-01  6.575108E-02  5.000000E-01  5.150747E-01  6.634043E-02  0.000000E+00  1.588549E-02  1.472098E-03  5.003049E-20 -4.142890E-01  0.000000E+00
  4.887640E-01  6.391727E-02  5.000000E-01  4.937000E-01  6.448811E-02  0.000000E+00  1.448124E-02  1.159247E-03  6.730537E-19 -3.593937E-01  0.000000E+00
  4.675910E-01  6.237601E-02  5.000000E-01  4.723132E-01  6.293128E-02  0.000000E+00  1.344729E-02  8.782911E-04 -5.687696E-19 -3.219292E-01  0.000000E+00
  7.860720E-05 -3.557973E-04  5.000000E-01  7.940613E-05 -4.340474E-04  0.000000E+00 -2.017778E-03  8.845857E-03  3.284435E-14  1.076218E+00  0.000000E+00
  3.989240E-04 -8.562504E-04  5.000000E-01  4.029578E-04 -9.395545E-04  0.000000E+00  4.243914E-03 -3.017497E-03  2.457934E-14  1.051957E+00  0.000000E+00
  1.196920E-03 -1.461984E-03  5.000000E-01  1.209013E-03 -1.551405E-03  0.000000E+00  1.093132E-02 -6.395066E-03  1.395690E-14  8.414440E-01  0.000000E+00
  2.563580E-03 -2.099897E-03  5.000000E-01  2.589474E-03 -2.195761E-03  0.000000E+00  1.378700E-02 -5.501156E-03  4.841894E-15  6.619254E-01  0.000000E+00
  4.492740E-03 -2.740647E-03  5.000000E-01  4.538117E-03 -2.842982E-03  0.000000E+00  1.428332E-02 -4.245930E-03 -3.117672E-16  5.665228E-01  0.000000E+00
  6.952190E-03 -3.385766E-03  5.000000E-01  7.022404E-03 -3.494615E-03  0.000000E+00  1.425861E-02 -3.486189E-03 -1.808747E-15  5.111948E-01  0.000000E+00
  9.910730E-03 -4.057221E-03  5.000000E-01  1.001082E-02 -4.172852E-03  0.000000E+00  1.436720E-02 -3.137592E-03 -1.420304E-15  4.661603E-01  0.000000E+00
  1.334950E-02 -4.779983E-03  5.000000E-01  1.348432E-02 -4.902912E-03  0.000000E+00  1.464742E-02 -2.945682E-03 -6.506816E-16  4.168522E-01  0.000000E+00
  1.728780E-02 -5.538560E-03  5.000000E-01  1.746239E-02 -5.669150E-03  0.000000E+00  1.492118E-02 -2.692637E-03 -1.459495E-16  3.596044E-01  0.000000E+00
  2.175590E-02 -6.291312E-03  5.000000E-01  2.197562E-02 -6.429504E-03  0.000000E+00  1.504414E-02 -2.339224E-03  4.423227E-17  3.060138E-01  0.000000E+00
  2.676920E-02 -7.004536E-03  5.000000E-01  2.703954E-02 -7.149931E-03  0.000000E+00  1.500153E-02 -1.961694E-03  6.437751E-17  2.674262E-01  0.000000E+00
  3.232800E-02 -7.666027E-03  5.000000E-01  3.265448E-02 -7.818102E-03  0.000000E+00  1.485007E-02 -1.629517E-03  3.612027E-17  2.444492E-01  0.000000E+00
  3.842930E-02 -8.278389E-03  5.000000E-01  3.881740E-02 -8.436649E-03  0.000000E+00  1.464857E-02 -1.367572E-03  1.159626E-17  2.309709E-01  0.000000E+00
  4.507220E-02 -8.851577E-03  5.000000E-01  4.552738E-02 -9.015625E-03  0.000000E+00  1.445085E-02 -1.186853E-03  2.542324E-19  2.226029E-01  0.000000E+00
  5.225680E-02 -9.410958E-03  5.000000E-01  5.278454E-02 -9.580656E-03  0.000000E+00  1.430551E-02 -1.088003E-03 -1.744313E-18  2.169948E-01  0.000000E+00
  5.998640E-02 -9.985119E-03  5.000000E-01  6.059220E-02 -1.016061E-02  0.000000E+00  1.422060E-02 -1.034998E-03 -5.175160E-19  2.092713E-01  0.000000E+00
  6.827110E-02 -1.057663E-02  5.000000E-01  6.896057E-02 -1.075810E-02  0.000000E+00  1.416477E-02 -9.862960E-04  2.056712E-19  1.968454E-01  0.000000E+00
  7.712280E-02 -1.117724E-02  5.000000E-01  7.790166E-02 -1.136478E-02  0.000000E+00  1.410698E-02 -9.308037E-04  2.323472E-19  1.827617E-01  0.000000E+00
  8.655260E-02 -1.178114E-02  5.000000E-01  8.742669E-02 -1.197477E-02  0.000000E+00  1.402493E-02 -8.677247E-04  5.413615E-19  1.698382E-01  0.000000E+00
  9.657140E-02 -1.237923E-02  5.000000E-01  9.754667E-02 -1.257890E-02  0.000000E+00  1.389329E-02 -7.884025E-04  5.654927E-19  1.580272E-01  0.000000E+00
  1.071900E-01 -1.295054E-02  5.000000E-01  1.082725E-01 -1.315598E-02  0.000000E+00  1.369379E-02 -6.923108E-04 -4.455459E-19  1.479471E-01  0.000000E+00
  1.184180E-01 -1.348067E-02  5.000000E-01  1.196139E-01 -1.369147E-02  0.000000E+00  1.343306E-02 -5.983165E-04 -7.984673E-19  1.420845E-01  0.000000E+00
  1.302610E-01 -1.397524E-02  5.000000E-01  1.315765E-01 -1.419103E-02  0.000000E+00  1.313359E-02 -5.255585E-04 -1.014390E-18  1.409703E-01  0.000000E+00
  1.427230E-01 -1.445153E-02  5.000000E-01  1.441643E-01 -1.467213E-02  0.000000E+00  1.281883E-02 -4.826787E-04 -9.257487E-19  1.428510E-01  0.000000E+00
  1.427230E-01 -1.445153E-02  5.000000E-01  1.441643E-01 -1.467213E-02  0.000000E+00  1.281883E-02 -4.826787E-04 -9.257487E-19  1.428510E-01  0.000000E+00
  1.558070E-01 -1.493678E-02  5.000000E-01  1.573805E-01 -1.516228E-02  0.000000E+00  1.251068E-02 -4.680756E-04  2.729612E-19  1.454475E-01  0.000000E+00
  1.695140E-01 -1.545461E-02  5.000000E-01  1.712259E-01 -1.568534E-02  0.000000E+00  1.223821E-02 -4.763271E-04  9.232451E-19  1.470628E-01  0.000000E+00
  1.838420E-01 -1.602904E-02  5.000000E-01  1.856986E-01 -1.626558E-02  0.000000E+00  1.205208E-02 -5.113579E-04  8.963111E-19  1.473168E-01  0.000000E+00
  1.987870E-01 -1.669785E-02  5.000000E-01  2.007945E-01 -1.694114E-02  0.000000E+00  1.202745E-02 -5.895770E-04  7.233244E-19  1.459381E-01  0.000000E+00
  2.143420E-01 -1.752514E-02  5.000000E-01  2.165066E-01 -1.777678E-02  0.000000E+00  1.224560E-02 -7.287982E-04 -5.870595E-19  1.407165E-01  0.000000E+00
  2.304940E-01 -1.858591E-02  5.000000E-01  2.328217E-01 -1.884826E-02  0.000000E+00  1.275757E-02 -9.269476E-04 -1.283934E-18  1.258613E-01  0.000000E+00
  2.472290E-01 -1.991362E-02  5.000000E-01  2.497257E-01 -2.018938E-02  0.000000E+00  1.356100E-02 -1.162599E-03 -7.720401E-19  9.623700E-02  0.000000E+00
  2.645310E-01 -2.150077E-02  5.000000E-01  2.672025E-01 -2.179257E-02  0.000000E+00  1.458309E-02 -1.385874E-03 -1.420943E-18  4.936383E-02  0.000000E+00
  2.823750E-01 -2.325277E-02  5.000000E-01  2.852267E-01 -2.356225E-02  0.000000E+00  1.566836E-02 -1.504649E-03 -2.430872E-18 -1.506604E-02  0.000000E+00
  3.007320E-01 -2.498001E-02  5.000000E-01  3.037691E-01 -2.530694E-02  0.000000E+00  1.660455E-02 -1.415310E-03 -1.690104E-18 -9.173688E-02  0.000000E+00
  3.195690E-01 -2.642872E-02  5.000000E-01  3.227963E-01 -2.677028E-02  0.000000E+00  1.717620E-02 -1.052339E-03 -2.092253E-19 -1.705577E-01  0.000000E+00
  3.388440E-01 -2.731420E-02  5.000000E-01  3.422660E-01 -2.766470E-02  0.000000E+00  1.726703E-02 -4.748593E-04 -2.167887E-19 -2.342139E-01  0.000000E+00
  3.585140E-01 -2.748398E-02  5.000000E-01  3.621346E-01 -2.783619E-02  0.000000E+00  1.691141E-02  1.526738E-04 -5.315163E-19 -2.652155E-01  0.000000E+00
  3.785290E-01 -2.693468E-02  5.000000E-01  3.823517E-01 -2.728135E-02  0.000000E+00  1.619944E-02  7.161180E-04  4.545912E-19 -2.640399E-01  0.000000E+00
  3.988350E-01 -2.567909E-02  5.000000E-01  4.028628E-01 -2.601308E-02  0.000000E+00  1.521146E-02  1.179420E-03  1.174142E-18 -2.420968E-01  0.000000E+00
  4.193750E-01 -2.374142E-02  5.000000E-01  4.236102E-01 -2.405584E-02  0.000000E+00  1.402409E-02  1.533199E-03  6.323392E-19 -2.068697E-01  0.000000E+00
  4.400850E-01 -2.113838E-02  5.000000E-01  4.445294E-01 -2.142651E-02  0.000000E+00  1.270812E-02  1.776395E-03 -8.564969E-19 -1.609372E-01  0.000000E+00
  4.609060E-01 -1.790118E-02  5.000000E-01  4.655606E-01 -1.815662E-02  0.000000E+00  1.132122E-02  1.898877E-03 -2.485907E-18 -1.045560E-01  0.000000E+00
  4.818030E-01 -1.410401E-02  5.000000E-01  4.866687E-01 -1.432110E-02  0.000000E+00  9.896966E-03  1.886948E-03 -3.875984E-18 -3.827427E-02  0.000000E+00
  5.027520E-01 -9.891106E-03  5.000000E-01  5.078292E-01 -1.006565E-02  0.000000E+00  8.427750E-03  1.757156E-03 -2.914886E-18  3.245944E-02  0.000000E+00
  5.237130E-01 -5.340853E-03  5.000000E-01  5.290019E-01 -5.469446E-03  0.000000E+00  6.880933E-03  1.556450E-03  6.296641E-19  9.848151E-02  0.000000E+00
  5.446170E-01 -3.824556E-04  5.000000E-01  5.501170E-01 -4.609749E-04  0.000000E+00  5.278211E-03  1.308780E-03  1.010407E-18  1.587400E-01  0.000000E+00
  5.653940E-01  5.083024E-03  5.000000E-01  5.711039E-01  5.059700E-03  0.000000E+00  3.753308E-03  1.011193E-03  1.178362E-18  2.252469E-01  0.000000E+00
  4.675910E-01  6.237601E-02  5.000000E-01  4.723132E-01  6.293128E-02  0.000000E+00  1.344729E-02  8.782911E-04 -5.687696E-19 -3.219292E-01  0.000000E+00
  4.464640E-01  6.116409E-02  5.000000E-01  4.509728E-01  6.170712E-02  0.000000E+00  1.272102E-02  6.199016E-04 -7.355835E-19 -3.035602E-01  0.000000E+00
  4.254410E-01  6.032771E-02  5.000000E-01  4.297375E-01  6.086230E-02  0.000000E+00  1.227300E-02  3.883607E-04 -1.902878E-20 -3.046669E-01  0.000000E+00
  4.045840E-01  5.984199E-02  5.000000E-01  4.086699E-01  6.037167E-02  0.000000E+00  1.210205E-02  2.021900E-04  1.344550E-20 -3.211728E-01  0.000000E+00
  3.839530E-01  5.963379E-02  5.000000E-01  3.878305E-01  6.016137E-02  0.000000E+00  1.220039E-02  6.484592E-05 -3.883248E-19 -3.495798E-01  0.000000E+00
  3.636060E-01  5.962128E-02  5.000000E-01  3.672780E-01  6.014873E-02  0.000000E+00  1.254685E-02 -2.858466E-05 -5.331932E-19 -3.874227E-01  0.000000E+00
  3.435960E-01  5.972302E-02  5.000000E-01  3.470659E-01  6.025150E-02  0.000000E+00  1.311136E-02 -8.020004E-05 -2.059452E-19 -4.330500E-01  0.000000E+00
  3.239710E-01  5.986183E-02  5.000000E-01  3.272427E-01  6.039171E-02  0.000000E+00  1.386128E-02 -8.799495E-05  2.351058E-19 -4.859365E-01  0.000000E+00
  3.047740E-01  5.996950E-02  5.000000E-01  3.078519E-01  6.050047E-02  0.000000E+00  1.476935E-02 -4.231294E-05  4.771740E-20 -5.445527E-01  0.000000E+00
  2.860450E-01  5.997486E-02  5.000000E-01  2.889337E-01  6.050589E-02  0.000000E+00  1.580829E-02  7.460855E-05  5.374126E-20 -6.045504E-01  0.000000E+00
  2.678190E-01  5.980426E-02  5.000000E-01  2.705237E-01  6.033356E-02  0.000000E+00  1.693255E-02  2.745977E-04  7.929986E-19 -6.611805E-01  0.000000E+00
  2.501300E-01  5.940446E-02  5.000000E-01  2.526560E-01  5.992972E-02  0.000000E+00  1.807658E-02  5.550839E-04  4.161586E-19 -7.117572E-01  0.000000E+00
  2.330040E-01  5.874810E-02  5.000000E-01  2.353571E-01  5.926673E-02  0.000000E+00  1.917381E-02  9.052709E-04 -4.039819E-19 -7.552690E-01  0.000000E+00
  2.164660E-01  5.782746E-02  5.000000E-01  2.186521E-01  5.833680E-02  0.000000E+00  2.017626E-02  1.312760E-03 -3.185683E-19 -7.907002E-01  0.000000E+00
  2.005340E-01  5.664815E-02  5.000000E-01  2.025592E-01  5.714558E-02  0.000000E+00  2.106434E-02  1.774170E-03 -5.714768E-19 -8.145416E-01  0.000000E+00
  1.852230E-01  5.520972E-02  5.000000E-01  1.870936E-01  5.569262E-02  0.000000E+00  2.182412E-02  2.279890E-03 -8.056694E-19 -8.241175E-01  0.000000E+00
  1.705440E-01  5.352750E-02  5.000000E-01  1.722663E-01  5.399342E-02  0.000000E+00  2.243438E-02  2.796785E-03  7.896402E-20 -8.232026E-01  0.000000E+00
  1.565000E-01  5.163789E-02  5.000000E-01  1.580805E-01  5.208472E-02  0.000000E+00  2.289830E-02  3.295855E-03  7.108863E-19 -8.199873E-01  0.000000E+00
  1.430940E-01  4.958261E-02  5.000000E-01  1.445391E-01  5.000868E-02  0.000000E+00  2.326803E-02  3.790033E-03 -3.225185E-19 -8.190632E-01  0.000000E+00
  1.303270E-01  4.738171E-02  5.000000E-01  1.316432E-01  4.778555E-02  0.000000E+00  2.361796E-02  4.339877E-03 -1.655873E-18 -8.142282E-01  0.000000E+00
  1.182110E-01  4.502059E-02  5.000000E-01  1.194048E-01  4.540059E-02  0.000000E+00  2.395935E-02  4.979573E-03 -1.540067E-18 -7.940241E-01  0.000000E+00
  1.067560E-01  4.249581E-02  5.000000E-01  1.078341E-01  4.285031E-02  0.000000E+00  2.420754E-02  5.670188E-03 -1.787068E-18 -7.514283E-01  0.000000E+00
  9.596750E-02  3.982207E-02  5.000000E-01  9.693667E-02  4.014957E-02  0.000000E+00  2.423324E-02  6.290023E-03 -1.431367E-18 -6.938252E-01  0.000000E+00
  8.582800E-02  3.706882E-02  5.000000E-01  8.669477E-02  3.736851E-02  0.000000E+00  2.399134E-02  6.732181E-03 -6.658499E-20 -6.376108E-01  0.000000E+00
  8.582800E-02  3.706882E-02  5.000000E-01  8.669477E-02  3.736851E-02  0.000000E+00  2.399134E-02  6.732181E-03 -6.658499E-20 -6.376108E-01  0.000000E+00
  7.631050E-02  3.430925E-02  5.000000E-01  7.708116E-02  3.458108E-02  0.000000E+00  2.359252E-02  7.059250E-03 -3.553741E-19 -5.861853E-01  0.000000E+00
  6.740780E-02  3.156201E-02  5.000000E-01  6.808855E-02  3.180610E-02  0.000000E+00  2.316606E-02  7.383005E-03 -1.738184E-19 -5.337896E-01  0.000000E+00
  5.911740E-02  2.883492E-02  5.000000E-01  5.971442E-02  2.905146E-02  0.000000E+00  2.275475E-02  7.720057E-03 -1.124894E-18 -4.786382E-01  0.000000E+00
  5.143150E-02  2.614672E-02  5.000000E-01  5.195091E-02  2.633612E-02  0.000000E+00  2.234719E-02  8.042594E-03 -2.238004E-18 -4.215270E-01  0.000000E+00
  4.433770E-02  2.352067E-02  5.000000E-01  4.478547E-02  2.368354E-02  0.000000E+00  2.191905E-02  8.331552E-03 -2.666988E-18 -3.641326E-01  0.000000E+00
  3.782240E-02  2.097834E-02  5.000000E-01  3.820437E-02  2.111554E-02  0.000000E+00  2.145464E-02  8.588105E-03 -1.345603E-19 -3.089894E-01  0.000000E+00
  3.187460E-02  1.853556E-02  5.000000E-01  3.219650E-02  1.864809E-02  0.000000E+00  2.095761E-02  8.828911E-03  1.146904E-17 -2.587610E-01  0.000000E+00
  2.648400E-02  1.620551E-02  5.000000E-01  2.675146E-02  1.629451E-02  0.000000E+00  2.044727E-02  9.099956E-03  2.698983E-17 -2.099151E-01  0.000000E+00
  2.164990E-02  1.399162E-02  5.000000E-01  2.186854E-02  1.405827E-02  0.000000E+00  1.990677E-02  9.440355E-03  2.107945E-17 -1.502271E-01  0.000000E+00
  1.737670E-02  1.189543E-02  5.000000E-01  1.755219E-02  1.194090E-02  0.000000E+00  1.924888E-02  9.758779E-03 -7.023875E-17 -7.515212E-02  0.000000E+00
  1.364080E-02  9.937825E-03  5.000000E-01  1.377856E-02  9.963529E-03  0.000000E+00  1.842542E-02  9.888817E-03 -3.635832E-16  1.829880E-03  0.000000E+00
  1.039090E-02  8.149049E-03  5.000000E-01  1.049584E-02  8.156688E-03  0.000000E+00  1.756064E-02  9.851264E-03 -9.598750E-16  6.448281E-02  0.000000E+00
  7.586340E-03  6.544008E-03  5.000000E-01  7.662959E-03  6.535438E-03  0.000000E+00  1.691603E-02  9.959794E-03 -1.719994E-15  1.120733E-01  0.000000E+00
  5.226210E-03  5.114755E-03  5.000000E-01  5.278994E-03  5.091751E-03  0.000000E+00  1.674502E-02  1.064038E-02 -1.906913E-15  1.538349E-01  0.000000E+00
  3.324300E-03  3.849419E-03  5.000000E-01  3.357877E-03  3.813637E-03  0.000000E+00  1.718973E-02  1.231863E-02 -1.524090E-17  1.971478E-01  0.000000E+00
  1.883580E-03  2.745843E-03  5.000000E-01  1.902607E-03  2.698916E-03  0.000000E+00  1.805355E-02  1.551502E-02  5.625842E-15  2.602608E-01  0.000000E+00
  8.951490E-04  1.810176E-03  5.000000E-01  9.041941E-04  1.753800E-03  0.000000E+00  1.816328E-02  2.045763E-02  1.529762E-14  3.807275E-01  0.000000E+00
  3.201820E-04  1.058300E-03  5.000000E-01  3.234206E-04  9.943302E-04  0.000000E+00  1.526538E-02  2.551560E-02  2.664567E-14  5.805497E-01  0.000000E+00
  6.852390E-05  5.107709E-04  5.000000E-01  6.922100E-05  4.412722E-04  0.000000E+00  8.936424E-03  2.646890E-02  3.569934E-14  7.840101E-01  0.000000E+00
  4.217600E-06  1.825498E-04  5.000000E-01  4.265276E-06  1.097364E-04  0.000000E+00  2.890785E-03  2.303247E-02  3.952223E-14  8.323333E-01  0.000000E+00
 -5.032520E-09  7.391055E-05  5.000000E-01  0.000000E+00  0.000000E+00  0.000000E+00 -5.827026E-04  2.366024E-02  3.904373E-14  7.835170E-01  0.000000E+00
  5.154440E-06 -3.492921E-05  5.000000E-01  5.211577E-06 -1.099389E-04  0.000000E+00 -2.871778E-03  2.184703E-02  3.704459E-14  8.881851E-01  0.000000E+00