 Title = "ADflow Slice Data"
Variables =  "CoordinateX"  "CoordinateY"  "CoordinateZ"  "XoC"  "YoC"  "ZoC" "VelocityX" "VelocityY" "VelocityZ" "CoefPressure" "Mach" 
Zone T= "Slice_0001 None Absolute Regular z = 0.50000000"
 Nodes =          192  Elements=          184  ZONETYPE=FELINESEG
 DATAPACKING=POINT
  5.653940E-01 -1.647480E-02  5.000000E-01  5.711037E-01 -1.671099E-02  0.000000E+00  1.391128E-02  1.699645E-04 -1.303592E-18 -1.765855E-01  0.000000E+00
  5.859770E-01 -1.564355E-02  5.000000E-01  5.918946E-01 -1.587134E-02  0.000000E+00  1.244052E-02  7.056162E-04 -1.137661E-18 -1.414990E-01  0.000000E+00
  6.063060E-01 -1.411008E-02  5.000000E-01  6.124289E-01 -1.432239E-02  0.000000E+00  1.111302E-02  9.286010E-04 -1.602854E-19 -6.354489E-02  0.000000E+00
  6.263240E-01 -1.226737E-02  5.000000E-01  6.326490E-01 -1.246107E-02  0.000000E+00  1.027281E-02  9.351459E-04  8.269762E-19  1.398094E-02  0.000000E+00
  6.459860E-01 -1.050475E-02  5.000000E-01  6.525096E-01 -1.068065E-02  0.000000E+00  1.005032E-02  8.011748E-04  1.610205E-18  7.009032E-02  0.000000E+00
  6.652460E-01 -9.158574E-03  5.000000E-01  6.719641E-01 -9.320876E-03  0.000000E+00  1.033522E-02  6.101752E-04  1.691822E-18  9.661043E-02  0.000000E+00
  6.840650E-01 -8.252833E-03  5.000000E-01  6.909731E-01 -8.405989E-03  0.000000E+00  1.075693E-02  5.256742E-04  6.859167E-19  8.431725E-02  0.000000E+00
  7.024070E-01 -7.351853E-03  5.000000E-01  7.095004E-01 -7.495910E-03  0.000000E+00  1.085035E-02  6.477780E-04 -1.490852E-19  4.809100E-02  0.000000E+00
  7.202400E-01 -6.089171E-03  5.000000E-01  7.275135E-01 -6.220476E-03  0.000000E+00  1.028051E-02  9.006039E-04 -4.464816E-19  2.446863E-02  0.000000E+00
  7.375350E-01 -4.246300E-03  5.000000E-01  7.449831E-01 -4.358995E-03  0.000000E+00  8.956158E-03  1.129757E-03 -2.707910E-19  3.489052E-02  0.000000E+00
  7.542690E-01 -1.732896E-03  5.000000E-01  7.618861E-01 -1.820209E-03  0.000000E+00  7.064834E-03  1.201374E-03  1.851342E-19  8.071826E-02  0.000000E+00
  7.704220E-01  1.444582E-03  5.000000E-01  7.782022E-01  1.389357E-03  0.000000E+00  4.973777E-03  1.067318E-03 -4.479701E-19  1.505552E-01  0.000000E+00
  7.859770E-01  5.209989E-03  5.000000E-01  7.939143E-01  5.192790E-03  0.000000E+00  3.079726E-03  7.707964E-04  1.163189E-18  2.352563E-01  0.000000E+00
  8.009220E-01  9.188261E-03  5.000000E-01  8.090102E-01  9.211236E-03  0.000000E+00  1.660694E-03  4.371287E-04  3.208702E-18  3.239408E-01  0.000000E+00
  8.152480E-01  1.282958E-02  5.000000E-01  8.234809E-01  1.288933E-02  0.000000E+00  7.733959E-04  1.917508E-04  1.187740E-18  3.929786E-01  0.000000E+00
  8.289490E-01  1.584953E-02  5.000000E-01  8.373203E-01  1.593978E-02  0.000000E+00  3.061135E-04  6.405053E-05 -4.131784E-19  4.315013E-01  0.000000E+00
  8.420260E-01  1.816038E-02  5.000000E-01  8.505293E-01  1.827397E-02  0.000000E+00  1.153597E-04  1.758983E-05 -6.708578E-19  4.512976E-01  0.000000E+00
  8.544790E-01  1.977834E-02  5.000000E-01  8.631081E-01  1.990826E-02  0.000000E+00  1.028437E-04  9.841552E-06 -1.087829E-18  4.645674E-01  0.000000E+00
  8.663160E-01  2.077280E-02  5.000000E-01  8.750646E-01  2.091276E-02  0.000000E+00  2.120727E-04  1.148427E-05 -1.028229E-18  4.751692E-01  0.000000E+00
  8.775420E-01  2.123235E-02  5.000000E-01  8.864040E-01  2.137696E-02  0.000000E+00  4.063780E-04  6.458024E-06 -8.748169E-19  4.832443E-01  0.000000E+00
  8.881660E-01  2.124961E-02  5.000000E-01  8.971353E-01  2.139439E-02  0.000000E+00  6.603643E-04 -1.299941E-05 -4.296191E-19  4.885241E-01  0.000000E+00
  8.981970E-01  2.091165E-02  5.000000E-01  9.072676E-01  2.105301E-02  0.000000E+00  9.586301E-04 -5.031869E-05  3.528419E-19  4.911657E-01  0.000000E+00
  9.076460E-01  2.028948E-02  5.000000E-01  9.168120E-01  2.042456E-02  0.000000E+00  1.295178E-03 -1.077592E-04  1.247569E-18  4.916465E-01  0.000000E+00
  9.165220E-01  1.943455E-02  5.000000E-01  9.257776E-01  1.956100E-02  0.000000E+00  1.670001E-03 -1.878702E-04  4.875709E-19  4.899834E-01  0.000000E+00
  9.165220E-01  1.943455E-02  5.000000E-01  9.257776E-01  1.956100E-02  0.000000E+00  1.670001E-03 -1.878702E-04  4.875709E-19  4.899834E-01  0.000000E+00
  9.248360E-01  1.839269E-02  5.000000E-01  9.341756E-01  1.850862E-02  0.000000E+00  2.084112E-03 -2.926699E-04 -4.077901E-19  4.858296E-01  0.000000E+00
  9.325990E-01  1.720705E-02  5.000000E-01  9.420170E-01  1.731100E-02  0.000000E+00  2.537577E-03 -4.234057E-04 -1.958126E-19  4.790946E-01  0.000000E+00
  9.398210E-01  1.591737E-02  5.000000E-01  9.493119E-01  1.600831E-02  0.000000E+00  3.030110E-03 -5.809383E-04  3.856599E-19  4.698677E-01  0.000000E+00
  9.465130E-01  1.456002E-02  5.000000E-01  9.560715E-01  1.463724E-02  0.000000E+00  3.561342E-03 -7.657850E-04 -4.757960E-19  4.581752E-01  0.000000E+00
  9.526870E-01  1.316788E-02  5.000000E-01  9.623079E-01  1.323104E-02  0.000000E+00  4.130941E-03 -9.780349E-04 -9.170116E-19  4.440482E-01  0.000000E+00
  9.583540E-01  1.177073E-02  5.000000E-01  9.680321E-01  1.181979E-02  0.000000E+00  4.739203E-03 -1.217554E-03 -4.485651E-19  4.275336E-01  0.000000E+00
  9.635240E-01  1.039546E-02  5.000000E-01  9.732543E-01  1.043063E-02  0.000000E+00  5.388073E-03 -1.484323E-03 -8.470069E-19  4.086392E-01  0.000000E+00
  9.682080E-01  9.065870E-03  5.000000E-01  9.779856E-01  9.087610E-03  0.000000E+00  6.083551E-03 -1.779331E-03 -3.579530E-20  3.874539E-01  0.000000E+00
  9.724140E-01  7.803453E-03  5.000000E-01  9.822341E-01  7.812444E-03  0.000000E+00  6.838412E-03 -2.105571E-03  6.921980E-19  3.640816E-01  0.000000E+00
  9.761510E-01  6.626939E-03  5.000000E-01  9.860088E-01  6.624049E-03  0.000000E+00  7.671112E-03 -2.467735E-03 -1.364405E-19  3.385373E-01  0.000000E+00
  9.794290E-01  5.552279E-03  5.000000E-01  9.893199E-01  5.538536E-03  0.000000E+00  8.595439E-03 -2.869667E-03 -7.149467E-19  3.108783E-01  0.000000E+00
  9.822540E-01  4.593798E-03  5.000000E-01  9.921735E-01  4.570376E-03  0.000000E+00  9.596793E-03 -3.306208E-03 -5.335512E-19  2.814730E-01  0.000000E+00
  9.846330E-01  3.763315E-03  5.000000E-01  9.945765E-01  3.731506E-03  0.000000E+00  1.060333E-02 -3.747486E-03  2.482617E-19  2.515807E-01  0.000000E+00
  9.865710E-01  3.070840E-03  5.000000E-01  9.965340E-01  3.032038E-03  0.000000E+00  1.143464E-02 -4.114662E-03  1.244528E-18  2.196635E-01  0.000000E+00
  9.880740E-01  2.524044E-03  5.000000E-01  9.980522E-01  2.479720E-03  0.000000E+00  1.181176E-02 -4.335462E-03 -2.653972E-18  1.816109E-01  0.000000E+00
  9.891450E-01  2.129155E-03  5.000000E-01  9.991340E-01  2.080843E-03  0.000000E+00  1.231882E-02 -4.633785E-03 -2.231597E-17  1.687271E-01  0.000000E+00
  9.897860E-01  1.890629E-03  5.000000E-01  9.997815E-01  1.839908E-03  0.000000E+00  1.529476E-02 -5.198734E-03 -6.278302E-17  1.886356E-01  0.000000E+00
  9.900000E-01  1.810729E-03  5.000000E-01  9.999977E-01  1.759202E-03  0.000000E+00  1.039463E-02 -7.594168E-03 -6.725438E-17 -7.545165E-02  0.000000E+00
  9.900000E-01  1.889439E-03  5.000000E-01  9.999977E-01  1.838707E-03  0.000000E+00  1.036887E-03 -1.739181E-02  5.999312E-18 -2.116390E-01  0.000000E+00
  9.900000E-01  1.968159E-03  5.000000E-01  9.999977E-01  1.918222E-03  0.000000E+00 -5.231653E-04 -1.782428E-02  8.392033E-17 -4.542162E-02  0.000000E+00
  9.900000E-01  2.046879E-03  5.000000E-01  9.999977E-01  1.997737E-03  0.000000E+00 -1.479792E-04 -4.698662E-03  1.086803E-16 -5.092404E-02  0.000000E+00
  9.900000E-01  2.125589E-03  5.000000E-01  9.999977E-01  2.077241E-03  0.000000E+00  4.502800E-04 -1.592872E-03  1.216196E-16 -1.180091E-01  0.000000E+00
  9.900000E-01  2.204309E-03  5.000000E-01  9.999977E-01  2.156756E-03  0.000000E+00  3.163064E-03 -3.501694E-03  1.267746E-16 -5.313241E-02  0.000000E+00
  9.900000E-01  2.204309E-03  5.000000E-01  9.999977E-01  2.156756E-03  0.000000E+00  3.163064E-03 -3.501694E-03  1.267746E-16 -5.313241E-02  0.000000E+00
  9.897900E-01  2.293311E-03  5.000000E-01  9.997856E-01  2.246657E-03  0.000000E+00  3.593205E-03 -1.721689E-03  8.329812E-17  2.820117E-02  0.000000E+00
  9.891580E-01  2.560336E-03  5.000000E-01  9.991472E-01  2.516379E-03  0.000000E+00  1.254976E-03 -4.913795E-04  2.833979E-17 -1.243906E-03  0.000000E+00
  9.881040E-01  3.004141E-03  5.000000E-01  9.980825E-01  2.964665E-03  0.000000E+00  3.447022E-04 -1.425751E-04  3.064519E-18 -1.252605E-02  0.000000E+00
  9.866260E-01  3.623038E-03  5.000000E-01  9.965896E-01  3.589813E-03  0.000000E+00 -3.260335E-05  1.016098E-05 -2.594628E-18 -1.451276E-02  0.000000E+00
  9.847200E-01  4.414821E-03  5.000000E-01  9.946644E-01  4.389592E-03  0.000000E+00 -2.281543E-04  9.386268E-05 -1.991627E-18 -1.976686E-02  0.000000E+00
  9.823820E-01  5.376221E-03  5.000000E-01  9.923027E-01  5.360700E-03  0.000000E+00 -2.656036E-04  1.089797E-04 -1.254517E-18 -2.858293E-02  0.000000E+00
  9.796080E-01  6.502776E-03  5.000000E-01  9.895007E-01  6.498632E-03  0.000000E+00 -1.572444E-04  6.375929E-05 -3.562246E-19 -4.018681E-02  0.000000E+00
  9.763910E-01  7.789270E-03  5.000000E-01  9.862512E-01  7.798118E-03  0.000000E+00  7.752707E-05 -3.018309E-05  4.609193E-19 -5.527689E-02  0.000000E+00
  9.727270E-01  9.228258E-03  5.000000E-01  9.825502E-01  9.251638E-03  0.000000E+00  4.320808E-04 -1.669691E-04 -3.661485E-19 -7.484528E-02  0.000000E+00
  9.686070E-01  1.081147E-02  5.000000E-01  9.783886E-01  1.085084E-02  0.000000E+00  9.139327E-04 -3.454299E-04 -6.360717E-20 -9.975601E-02  0.000000E+00
  9.640240E-01  1.252801E-02  5.000000E-01  9.737594E-01  1.258471E-02  0.000000E+00  1.539334E-03 -5.659608E-04  1.218158E-18 -1.307614E-01  0.000000E+00
  9.589680E-01  1.436496E-02  5.000000E-01  9.686523E-01  1.444021E-02  0.000000E+00  2.326796E-03 -8.277807E-04  1.451505E-18 -1.683797E-01  0.000000E+00
  9.534310E-01  1.630601E-02  5.000000E-01  9.630594E-01  1.640086E-02  0.000000E+00  3.291425E-03 -1.126143E-03  1.072834E-18 -2.128551E-01  0.000000E+00
  9.474030E-01  1.833164E-02  5.000000E-01  9.569705E-01  1.844695E-02  0.000000E+00  4.441197E-03 -1.450629E-03  5.528927E-19 -2.640836E-01  0.000000E+00
  9.408720E-01  2.041836E-02  5.000000E-01  9.503735E-01  2.055475E-02  0.000000E+00  5.775517E-03 -1.784874E-03  1.403672E-18 -3.216574E-01  0.000000E+00
  9.338280E-01  2.253750E-02  5.000000E-01  9.432584E-01  2.269529E-02  0.000000E+00  7.285758E-03 -2.106883E-03  2.020590E-18 -3.847941E-01  0.000000E+00
  9.262600E-01  2.465490E-02  5.000000E-01  9.356140E-01  2.483407E-02  0.000000E+00  8.955249E-03 -2.388879E-03  5.385022E-19 -4.521926E-01  0.000000E+00
  9.181550E-01  2.672970E-02  5.000000E-01  9.274271E-01  2.692982E-02  0.000000E+00  1.075635E-02 -2.597775E-03 -9.163474E-19 -5.219222E-01  0.000000E+00
  9.095020E-01  2.871355E-02  5.000000E-01  9.186868E-01  2.893370E-02  0.000000E+00  1.264386E-02 -2.694989E-03 -6.268617E-19 -5.907773E-01  0.000000E+00
  9.002880E-01  3.054940E-02  5.000000E-01  9.093797E-01  3.078809E-02  0.000000E+00  1.454435E-02 -2.638632E-03 -3.923585E-19 -6.537079E-01  0.000000E+00
  8.905020E-01  3.217126E-02  5.000000E-01  8.994949E-01  3.242633E-02  0.000000E+00  1.634422E-02 -2.392454E-03 -2.752369E-19 -7.042565E-01  0.000000E+00
  8.801320E-01  3.350837E-02  5.000000E-01  8.890202E-01  3.377694E-02  0.000000E+00  1.788532E-02 -1.938094E-03  2.597781E-19 -7.352132E-01  0.000000E+00
  8.691700E-01  3.448737E-02  5.000000E-01  8.779475E-01  3.476584E-02  0.000000E+00  1.897510E-02 -1.286118E-03  6.756359E-19 -7.390038E-01  0.000000E+00
  8.691700E-01  3.448737E-02  5.000000E-01  8.779475E-01  3.476584E-02  0.000000E+00  1.897510E-02 -1.286118E-03  6.756359E-19 -7.390038E-01  0.000000E+00
  8.576080E-01  3.503310E-02  5.000000E-01  8.662687E-01  3.531707E-02  0.000000E+00  1.941135E-02 -4.899841E-04  1.189747E-18 -7.087495E-01  0.000000E+00
  8.454380E-01  3.507489E-02  5.000000E-01  8.539758E-01  3.535929E-02  0.000000E+00  1.902990E-02  3.416164E-04  1.365264E-18 -6.401589E-01  0.000000E+00
  8.326580E-01  3.456193E-02  5.000000E-01  8.410667E-01  3.484115E-02  0.000000E+00  1.777586E-02  1.054933E-03  8.335067E-19 -5.333674E-01  0.000000E+00
  8.192630E-01  3.348741E-02  5.000000E-01  8.275365E-01  3.375577E-02  0.000000E+00  1.576066E-02  1.489558E-03 -1.245193E-19 -3.963754E-01  0.000000E+00
  8.052550E-01  3.193511E-02  5.000000E-01  8.133870E-01  3.218780E-02  0.000000E+00  1.326107E-02  1.538887E-03 -2.627867E-19 -2.503957E-01  0.000000E+00
  7.906370E-01  3.014193E-02  5.000000E-01  7.986214E-01  3.037651E-02  0.000000E+00  1.063595E-02  1.210337E-03 -8.077458E-19 -1.294298E-01  0.000000E+00
  7.754120E-01  2.856747E-02  5.000000E-01  7.832426E-01  2.878615E-02  0.000000E+00  8.242108E-03  6.835792E-04 -1.330881E-18 -5.571630E-02  0.000000E+00
  7.595880E-01  2.767597E-02  5.000000E-01  7.672588E-01  2.788565E-02  0.000000E+00  6.355847E-03  2.209148E-04 -4.157287E-19 -1.828433E-02  0.000000E+00
  7.431760E-01  2.757054E-02  5.000000E-01  7.506811E-01  2.777915E-02  0.000000E+00  5.088730E-03 -7.681009E-05 -2.062533E-19 -3.117763E-03  0.000000E+00
  7.261880E-01  2.826757E-02  5.000000E-01  7.335215E-01  2.848322E-02  0.000000E+00  4.418043E-03 -2.692421E-04 -3.520485E-19 -1.032917E-02  0.000000E+00
  7.086430E-01  2.971199E-02  5.000000E-01  7.157993E-01  2.994223E-02  0.000000E+00  4.267276E-03 -4.181370E-04 -7.001992E-19 -3.964981E-02  0.000000E+00
  6.905640E-01  3.174827E-02  5.000000E-01  6.975378E-01  3.199907E-02  0.000000E+00  4.531979E-03 -5.439608E-04 -1.118197E-18 -8.505065E-02  0.000000E+00
  6.719770E-01  3.410518E-02  5.000000E-01  6.787631E-01  3.437978E-02  0.000000E+00  5.061460E-03 -6.239446E-04 -2.248379E-19 -1.287168E-01  0.000000E+00
  6.529150E-01  3.641268E-02  5.000000E-01  6.595086E-01  3.671058E-02  0.000000E+00  5.637484E-03 -6.373628E-04  1.145547E-18 -1.545705E-01  0.000000E+00
  6.334180E-01  3.847906E-02  5.000000E-01  6.398147E-01  3.879783E-02  0.000000E+00  6.036447E-03 -6.164903E-04  1.104442E-18 -1.661821E-01  0.000000E+00
  6.135280E-01  4.043353E-02  5.000000E-01  6.197238E-01  4.077205E-02  0.000000E+00  6.149156E-03 -6.054068E-04 -3.414394E-19 -1.716366E-01  0.000000E+00
  5.932910E-01  4.243397E-02  5.000000E-01  5.992824E-01  4.279269E-02  0.000000E+00  6.008334E-03 -6.186557E-04 -1.561739E-18 -1.747713E-01  0.000000E+00
  5.727570E-01  4.463743E-02  5.000000E-01  5.785411E-01  4.501839E-02  0.000000E+00  5.739788E-03 -6.612175E-04 -7.724728E-19 -1.846529E-01  0.000000E+00
  5.519810E-01  4.719516E-02  5.000000E-01  5.575553E-01  4.760195E-02  0.000000E+00  5.516882E-03 -7.354534E-04 -3.898875E-19 -2.117187E-01  0.000000E+00
  5.310180E-01  5.020526E-02  5.000000E-01  5.363806E-01  5.064245E-02  0.000000E+00  5.503840E-03 -8.302723E-04  8.181314E-19 -2.575330E-01  0.000000E+00
  5.099250E-01  5.353595E-02  5.000000E-01  5.150746E-01  5.400678E-02  0.000000E+00  5.786242E-03 -9.311241E-04 -3.766643E-19 -3.191283E-01  0.000000E+00
  4.887640E-01  5.699168E-02  5.000000E-01  4.936999E-01  5.749740E-02  0.000000E+00  6.338143E-03 -1.022103E-03 -2.558470E-18 -3.926694E-01  0.000000E+00
  4.675910E-01  6.036313E-02  5.000000E-01  4.723130E-01  6.090290E-02  0.000000E+00  7.020122E-03 -1.065674E-03  2.603817E-19 -4.645710E-01  0.000000E+00
  7.860720E-05 -3.608497E-04  5.000000E-01  7.940611E-05 -4.343070E-04  0.000000E+00  1.508756E-03 -1.386643E-04 -1.285633E-14  1.077943E+00  0.000000E+00
  3.989240E-04 -8.625062E-04  5.000000E-01  4.029577E-04 -9.410295E-04  0.000000E+00  8.491971E-03 -8.111376E-03 -9.365832E-15  9.798765E-01  0.000000E+00
  1.196920E-03 -1.470939E-03  5.000000E-01  1.209012E-03 -1.555607E-03  0.000000E+00  1.413349E-02 -8.525970E-03 -5.111007E-15  7.433208E-01  0.000000E+00
  2.563580E-03 -2.112363E-03  5.000000E-01  2.589474E-03 -2.203509E-03  0.000000E+00  1.566418E-02 -6.314444E-03 -1.627705E-15  5.718018E-01  0.000000E+00
  4.492740E-03 -2.755845E-03  5.000000E-01  4.538116E-03 -2.853489E-03  0.000000E+00  1.539007E-02 -4.592190E-03  2.375302E-16  4.879182E-01  0.000000E+00
  6.952190E-03 -3.400973E-03  5.000000E-01  7.022403E-03 -3.505132E-03  0.000000E+00  1.507668E-02 -3.675100E-03  7.178822E-16  4.395804E-01  0.000000E+00
  9.910730E-03 -4.067686E-03  5.000000E-01  1.001082E-02 -4.178577E-03  0.000000E+00  1.515836E-02 -3.272664E-03  5.332238E-16  3.978390E-01  0.000000E+00
  1.334950E-02 -4.778939E-03  5.000000E-01  1.348432E-02 -4.897013E-03  0.000000E+00  1.551931E-02 -3.054233E-03  2.389486E-16  3.492540E-01  0.000000E+00
  1.728780E-02 -5.517068E-03  5.000000E-01  1.746239E-02 -5.642596E-03  0.000000E+00  1.588761E-02 -2.768322E-03  5.382257E-17  2.908698E-01  0.000000E+00
  2.175590E-02 -6.237812E-03  5.000000E-01  2.197561E-02 -6.370618E-03  0.000000E+00  1.607494E-02 -2.366734E-03 -1.513922E-17  2.354184E-01  0.000000E+00
  2.676920E-02 -6.904324E-03  5.000000E-01  2.703954E-02 -7.043862E-03  0.000000E+00  1.605944E-02 -1.931230E-03 -2.281589E-17  1.952624E-01  0.000000E+00
  3.232800E-02 -7.500766E-03  5.000000E-01  3.265447E-02 -7.646327E-03  0.000000E+00  1.590867E-02 -1.538559E-03 -1.274233E-17  1.713267E-01  0.000000E+00
  3.842930E-02 -8.025560E-03  5.000000E-01  3.881739E-02 -8.176420E-03  0.000000E+00  1.569495E-02 -1.217082E-03 -4.461425E-18  1.572977E-01  0.000000E+00
  4.507220E-02 -8.483860E-03  5.000000E-01  4.552737E-02 -8.639349E-03  0.000000E+00  1.548336E-02 -9.790793E-04 -5.873297E-19  1.485843E-01  0.000000E+00
  5.225680E-02 -8.895834E-03  5.000000E-01  5.278453E-02 -9.055484E-03  0.000000E+00  1.532946E-02 -8.247808E-04  5.942118E-19  1.427406E-01  0.000000E+00
  5.998640E-02 -9.284501E-03  5.000000E-01  6.059219E-02 -9.448075E-03  0.000000E+00  1.524006E-02 -7.144760E-04  3.370826E-19  1.346639E-01  0.000000E+00
  6.827110E-02 -9.645630E-03  5.000000E-01  6.896055E-02 -9.812851E-03  0.000000E+00  1.517671E-02 -6.027275E-04 -1.123110E-19  1.216817E-01  0.000000E+00
  7.712280E-02 -9.962720E-03  5.000000E-01  7.790164E-02 -1.013314E-02  0.000000E+00  1.510047E-02 -4.773647E-04 -1.746160E-19  1.072043E-01  0.000000E+00
  8.655260E-02 -1.022032E-02  5.000000E-01  8.742667E-02 -1.039334E-02  0.000000E+00  1.497931E-02 -3.375953E-04  1.345706E-19  9.456450E-02  0.000000E+00
  9.657140E-02 -1.039789E-02  5.000000E-01  9.754665E-02 -1.057271E-02  0.000000E+00  1.477363E-02 -1.746715E-04  4.911967E-19  8.410686E-02  0.000000E+00
  1.071900E-01 -1.046015E-02  5.000000E-01  1.082725E-01 -1.063559E-02  0.000000E+00  1.444911E-02  1.011248E-05  7.740889E-19  7.696507E-02  0.000000E+00
  1.184180E-01 -1.037616E-02  5.000000E-01  1.196139E-01 -1.055075E-02  0.000000E+00  1.399907E-02  1.932010E-04  8.218918E-19  7.643168E-02  0.000000E+00
  1.302610E-01 -1.013448E-02  5.000000E-01  1.315765E-01 -1.030664E-02  0.000000E+00  1.343633E-02  3.502375E-04  3.235100E-19  8.375214E-02  0.000000E+00
  1.427230E-01 -9.735643E-03  5.000000E-01  1.441643E-01 -9.903773E-03  0.000000E+00  1.278054E-02  4.682985E-04 -3.155186E-19  9.764281E-02  0.000000E+00
  1.427230E-01 -9.735643E-03  5.000000E-01  1.441643E-01 -9.903773E-03  0.000000E+00  1.278054E-02  4.682985E-04 -3.155186E-19  9.764281E-02  0.000000E+00
  1.558070E-01 -9.192308E-03  5.000000E-01  1.573804E-01 -9.354951E-03  0.000000E+00  1.206009E-02  5.461535E-04  1.923596E-19  1.161503E-01  0.000000E+00
  1.695140E-01 -8.517173E-03  5.000000E-01  1.712259E-01 -8.672998E-03  0.000000E+00  1.132385E-02  5.880993E-04  2.460987E-19  1.377926E-01  0.000000E+00
  1.838420E-01 -7.732191E-03  5.000000E-01  1.856986E-01 -7.880089E-03  0.000000E+00  1.065310E-02  5.905549E-04 -4.203679E-19  1.622827E-01  0.000000E+00
  1.987870E-01 -6.892397E-03  5.000000E-01  2.007945E-01 -7.031814E-03  0.000000E+00  1.015434E-02  5.392161E-04 -8.346154E-19  1.894467E-01  0.000000E+00
  2.143420E-01 -6.114117E-03  5.000000E-01  2.165066E-01 -6.245675E-03  0.000000E+00  9.921329E-03  4.249117E-04 -1.250192E-18  2.161601E-01  0.000000E+00
  2.304940E-01 -5.540977E-03  5.000000E-01  2.328217E-01 -5.666746E-03  0.000000E+00  9.978906E-03  2.658326E-04 -6.991939E-19  2.337438E-01  0.000000E+00
  2.472290E-01 -5.242879E-03  5.000000E-01  2.497257E-01 -5.365638E-03  0.000000E+00  1.027404E-02  8.743657E-05  1.190879E-19  2.368620E-01  0.000000E+00
  2.645310E-01 -5.251167E-03  5.000000E-01  2.672024E-01 -5.374010E-03  0.000000E+00  1.069040E-02 -8.235401E-05  3.363180E-19  2.265639E-01  0.000000E+00
  2.823750E-01 -5.513753E-03  5.000000E-01  2.852266E-01 -5.639248E-03  0.000000E+00  1.105728E-02 -1.956253E-04  4.558562E-19  2.053945E-01  0.000000E+00
  3.007320E-01 -5.892333E-03  5.000000E-01  3.037690E-01 -6.021651E-03  0.000000E+00  1.119586E-02 -2.056313E-04  7.984194E-19  1.793661E-01  0.000000E+00
  3.195690E-01 -6.197699E-03  5.000000E-01  3.227962E-01 -6.330100E-03  0.000000E+00  1.098553E-02 -9.626709E-05  3.797981E-19  1.558291E-01  0.000000E+00
  3.388440E-01 -6.217372E-03  5.000000E-01  3.422659E-01 -6.349973E-03  0.000000E+00  1.045166E-02  6.464091E-05 -5.089425E-19  1.467827E-01  0.000000E+00
  3.585140E-01 -5.935748E-03  5.000000E-01  3.621345E-01 -6.065504E-03  0.000000E+00  9.791173E-03  1.580304E-04 -5.555557E-19  1.631548E-01  0.000000E+00
  3.785290E-01 -5.568533E-03  5.000000E-01  3.823516E-01 -5.694581E-03  0.000000E+00  9.259338E-03  1.340798E-04 -2.806321E-22  1.959524E-01  0.000000E+00
  3.988350E-01 -5.360606E-03  5.000000E-01  4.028627E-01 -5.484554E-03  0.000000E+00  9.069225E-03  7.573448E-07 -3.208427E-20  2.257232E-01  0.000000E+00
  4.193750E-01 -5.569977E-03  5.000000E-01  4.236101E-01 -5.696039E-03  0.000000E+00  9.369571E-03 -2.504611E-04 -2.678274E-19  2.410768E-01  0.000000E+00
  4.400850E-01 -6.442168E-03  5.000000E-01  4.445293E-01 -6.577038E-03  0.000000E+00  1.021923E-02 -6.332808E-04 -8.228997E-19  2.366950E-01  0.000000E+00
  4.609060E-01 -8.107414E-03  5.000000E-01  4.655605E-01 -8.259101E-03  0.000000E+00  1.152226E-02 -1.066140E-03 -2.036028E-18  1.996920E-01  0.000000E+00
  4.818030E-01 -1.027913E-02  5.000000E-01  4.866686E-01 -1.045275E-02  0.000000E+00  1.303424E-02 -1.411917E-03 -2.989366E-18  1.280223E-01  0.000000E+00
  5.027520E-01 -1.262813E-02  5.000000E-01  5.078291E-01 -1.282547E-02  0.000000E+00  1.440108E-02 -1.542779E-03 -2.230196E-18  3.966254E-02  0.000000E+00
  5.237130E-01 -1.477706E-02  5.000000E-01  5.290018E-01 -1.499610E-02  0.000000E+00  1.517592E-02 -1.295507E-03 -8.359562E-19 -5.311309E-02  0.000000E+00
  5.446170E-01 -1.622033E-02  5.000000E-01  5.501169E-01 -1.645394E-02  0.000000E+00  1.499083E-02 -6.212941E-04 -7.210473E-19 -1.383483E-01  0.000000E+00
  5.653940E-01 -1.647480E-02  5.000000E-01  5.711037E-01 -1.671099E-02  0.000000E+00  1.391128E-02  1.699645E-04 -1.303592E-18 -1.765855E-01  0.000000E+00
  4.675910E-01  6.036313E-02  5.000000E-01  4.723130E-01  6.090290E-02  0.000000E+00  7.020122E-03 -1.065674E-03  2.603817E-19 -4.645710E-01  0.000000E+00
  4.464640E-01  6.343917E-02  5.000000E-01  4.509727E-01  6.401001E-02  0.000000E+00  7.581448E-03 -1.021126E-03  2.299956E-18 -5.164403E-01  0.000000E+00
  4.254410E-01  6.606385E-02  5.000000E-01  4.297374E-01  6.666119E-02  0.000000E+00  7.727986E-03 -9.023715E-04  2.283777E-18 -5.449731E-01  0.000000E+00
  4.045840E-01  6.832524E-02  5.000000E-01  4.086698E-01  6.894542E-02  0.000000E+00  7.290948E-03 -7.695858E-04  8.212998E-19 -5.612434E-01  0.000000E+00
  3.839530E-01  7.044070E-02  5.000000E-01  3.878304E-01  7.108224E-02  0.000000E+00  6.347671E-03 -6.587238E-04 -8.484500E-19 -5.730406E-01  0.000000E+00
  3.636060E-01  7.260389E-02  5.000000E-01  3.672779E-01  7.326728E-02  0.000000E+00  5.172696E-03 -5.772573E-04 -2.116004E-18 -5.927304E-01  0.000000E+00
  3.435960E-01  7.498516E-02  5.000000E-01  3.470659E-01  7.567260E-02  0.000000E+00  4.147038E-03 -5.358803E-04 -1.058068E-18 -6.569256E-01  0.000000E+00
  3.239710E-01  7.772722E-02  5.000000E-01  3.272427E-01  7.844235E-02  0.000000E+00  3.760861E-03 -5.612816E-04  1.043274E-18 -8.188795E-01  0.000000E+00
  3.047740E-01  8.068192E-02  5.000000E-01  3.078518E-01  8.142689E-02  0.000000E+00  4.692055E-03 -6.914769E-04  6.376136E-19 -1.111764E+00  0.000000E+00
  2.860450E-01  8.327027E-02  5.000000E-01  2.889337E-01  8.404137E-02  0.000000E+00  7.834580E-03 -8.723571E-04 -1.256435E-18 -1.513905E+00  0.000000E+00
  2.678190E-01  8.499960E-02  5.000000E-01  2.705236E-01  8.578817E-02  0.000000E+00  1.393432E-02 -7.456756E-04 -4.550053E-18 -1.919711E+00  0.000000E+00
  2.501300E-01  8.555776E-02  5.000000E-01  2.526560E-01  8.635197E-02  0.000000E+00  2.252855E-02  3.490573E-04 -9.079016E-18 -2.174241E+00  0.000000E+00
  2.330040E-01  8.480452E-02  5.000000E-01  2.353570E-01  8.559112E-02  0.000000E+00  3.105257E-02  2.808575E-03 -1.167657E-17 -2.179272E+00  0.000000E+00
  2.164660E-01  8.273108E-02  5.000000E-01  2.186520E-01  8.349674E-02  0.000000E+00  3.632033E-02  6.093539E-03 -8.699529E-18 -1.954047E+00  0.000000E+00
  2.005340E-01  7.943754E-02  5.000000E-01  2.025591E-01  8.016994E-02  0.000000E+00  3.707943E-02  8.801720E-03 -5.142897E-18 -1.617280E+00  0.000000E+00
  1.852230E-01  7.530316E-02  5.000000E-01  1.870935E-01  7.599381E-02  0.000000E+00  3.451284E-02  9.933539E-03 -1.725860E-18 -1.294135E+00  0.000000E+00
  1.705440E-01  7.077946E-02  5.000000E-01  1.722663E-01  7.142442E-02  0.000000E+00  3.070793E-02  9.757486E-03  3.482710E-18 -1.036813E+00  0.000000E+00
  1.565000E-01  6.616157E-02  5.000000E-01  1.580804E-01  6.675990E-02  0.000000E+00  2.712876E-02  9.045323E-03  3.732099E-18 -8.479115E-01  0.000000E+00
  1.430940E-01  6.162039E-02  5.000000E-01  1.445391E-01  6.217286E-02  0.000000E+00  2.439251E-02  8.327703E-03  2.111168E-18 -7.165285E-01  0.000000E+00
  1.303270E-01  5.722430E-02  5.000000E-01  1.316431E-01  5.773238E-02  0.000000E+00  2.258938E-02  7.859367E-03  1.780250E-18 -6.222075E-01  0.000000E+00
  1.182110E-01  5.296406E-02  5.000000E-01  1.194048E-01  5.342911E-02  0.000000E+00  2.152578E-02  7.676509E-03  2.378317E-19 -5.437957E-01  0.000000E+00
  1.067560E-01  4.882234E-02  5.000000E-01  1.078341E-01  4.924557E-02  0.000000E+00  2.089853E-02  7.682387E-03  3.963577E-20 -4.674941E-01  0.000000E+00
  9.596750E-02  4.479137E-02  5.000000E-01  9.693665E-02  4.517389E-02  0.000000E+00  2.042735E-02  7.718518E-03 -2.658623E-19 -3.939748E-01  0.000000E+00
  8.582800E-02  4.091469E-02  5.000000E-01  8.669475E-02  4.125806E-02  0.000000E+00  1.996157E-02  7.670948E-03 -4.999749E-19 -3.330248E-01  0.000000E+00
  8.582800E-02  4.091469E-02  5.000000E-01  8.669475E-02  4.125806E-02  0.000000E+00  1.996157E-02  7.670948E-03 -4.999749E-19 -3.330248E-01  0.000000E+00
  7.631050E-02  3.723722E-02  5.000000E-01  7.708114E-02  3.754346E-02  0.000000E+00  1.950465E-02  7.588956E-03  2.486959E-18 -2.838678E-01  0.000000E+00
  6.740780E-02  3.374957E-02  5.000000E-01  6.808853E-02  3.402058E-02  0.000000E+00  1.910271E-02  7.561672E-03  1.420968E-18 -2.390827E-01  0.000000E+00
  5.911740E-02  3.043373E-02  5.000000E-01  5.971441E-02  3.067126E-02  0.000000E+00  1.876598E-02  7.596231E-03 -1.267107E-18 -1.957382E-01  0.000000E+00
  5.143150E-02  2.728505E-02  5.000000E-01  5.195089E-02  2.749078E-02  0.000000E+00  1.847713E-02  7.664591E-03  3.654482E-19 -1.532237E-01  0.000000E+00
  4.433770E-02  2.430561E-02  5.000000E-01  4.478546E-02  2.448125E-02  0.000000E+00  1.820855E-02  7.746569E-03  1.273950E-18 -1.116914E-01  0.000000E+00
  3.782240E-02  2.149804E-02  5.000000E-01  3.820436E-02  2.164532E-02  0.000000E+00  1.793542E-02  7.837871E-03  8.503389E-19 -7.235561E-02  0.000000E+00
  3.187460E-02  1.886148E-02  5.000000E-01  3.219650E-02  1.898214E-02  0.000000E+00  1.764743E-02  7.947037E-03 -2.607588E-18 -3.718662E-02  0.000000E+00
  2.648400E-02  1.639456E-02  5.000000E-01  2.675146E-02  1.649031E-02  0.000000E+00  1.734780E-02  8.107827E-03 -1.135765E-17 -3.115256E-03  0.000000E+00
  2.164990E-02  1.408824E-02  5.000000E-01  2.186854E-02  1.416070E-02  0.000000E+00  1.701227E-02  8.348710E-03 -1.957347E-17  4.096058E-02  0.000000E+00
  1.737670E-02  1.193331E-02  5.000000E-01  1.755219E-02  1.198401E-02  0.000000E+00  1.656753E-02  8.591080E-03 -7.291420E-18  9.984216E-02  0.000000E+00
  1.364080E-02  9.941320E-03  5.000000E-01  1.377856E-02  9.971901E-03  0.000000E+00  1.598532E-02  8.697825E-03  6.708629E-17  1.623551E-01  0.000000E+00
  1.039090E-02  8.134837E-03  5.000000E-01  1.049584E-02  8.147175E-03  0.000000E+00  1.538878E-02  8.694679E-03  2.551633E-16  2.146378E-01  0.000000E+00
  7.586340E-03  6.523043E-03  5.000000E-01  7.662957E-03  6.519104E-03  0.000000E+00  1.501029E-02  8.857612E-03  5.441431E-16  2.566415E-01  0.000000E+00
  5.226210E-03  5.093779E-03  5.000000E-01  5.278993E-03  5.075406E-03  0.000000E+00  1.505097E-02  9.552934E-03  7.048092E-16  2.974099E-01  0.000000E+00
  3.324300E-03  3.831917E-03  5.000000E-01  3.357876E-03  3.800801E-03  0.000000E+00  1.557041E-02  1.112188E-02  1.793397E-16  3.446906E-01  0.000000E+00
  1.883580E-03  2.732867E-03  5.000000E-01  1.902607E-03  2.690652E-03  0.000000E+00  1.625669E-02  1.390445E-02 -1.740194E-15  4.161803E-01  0.000000E+00
  8.951490E-04  1.801164E-03  5.000000E-01  9.041939E-04  1.749540E-03  0.000000E+00  1.591041E-02  1.779076E-02 -5.320582E-15  5.435296E-01  0.000000E+00
  3.201820E-04  1.051892E-03  5.000000E-01  3.234205E-04  9.927015E-04  0.000000E+00  1.266019E-02  2.086477E-02 -9.798488E-15  7.345100E-01  0.000000E+00
  6.852390E-05  5.055872E-04  5.000000E-01  6.922098E-05  4.408798E-04  0.000000E+00  6.770133E-03  1.933219E-02 -1.362233E-14  9.058680E-01  0.000000E+00
  4.217600E-06  1.777152E-04  5.000000E-01  4.265275E-06  1.096967E-04  0.000000E+00  1.849226E-03  1.394272E-02 -1.547139E-14  9.242164E-01  0.000000E+00
 -5.032520E-09  6.911523E-05  5.000000E-01  0.000000E+00  0.000000E+00  0.000000E+00 -4.843467E-04  1.303352E-02 -1.551405E-14  8.707145E-01  0.000000E+00
  5.154440E-06 -3.972654E-05  5.000000E-01  5.211576E-06 -1.099409E-04  0.000000E+00 -1.290007E-03  1.067980E-02 -1.472462E-14  9.578957E-01  0.000000E+00