 Title = "ADflow Slice Data"
Variables =  "CoordinateX"  "CoordinateY"  "CoordinateZ"  "XoC"  "YoC"  "ZoC" "VelocityX" "VelocityY" "VelocityZ" "CoefPressure" "Mach" 
Zone T= "Slice_0001 None Absolute Regular z = 0.50000000"
 Nodes =          192  Elements=          184  ZONETYPE=FELINESEG
 DATAPACKING=POINT
  5.653940E-01 -1.816419E-03  5.000000E-01  5.711040E-01 -1.903269E-03  0.000000E+00  9.526581E-03  6.355641E-04  4.804326E-19  1.489085E-01  0.000000E+00
  5.859770E-01 -3.687506E-04  5.000000E-01  5.918948E-01 -4.409809E-04  0.000000E+00  9.185978E-03  6.707912E-04  5.370812E-20  1.593271E-01  0.000000E+00
  6.063060E-01  1.173543E-03  5.000000E-01  6.124291E-01  1.116888E-03  0.000000E+00  8.841301E-03  6.824032E-04 -1.115676E-18  1.770238E-01  0.000000E+00
  6.263240E-01  2.745084E-03  5.000000E-01  6.326493E-01  2.704301E-03  0.000000E+00  8.543957E-03  6.625831E-04 -1.183755E-18  1.971642E-01  0.000000E+00
  6.459860E-01  4.250460E-03  5.000000E-01  6.525099E-01  4.224880E-03  0.000000E+00  8.323945E-03  6.118368E-04  5.061321E-20  2.164685E-01  0.000000E+00
  6.652460E-01  5.605626E-03  5.000000E-01  6.719644E-01  5.593732E-03  0.000000E+00  8.169303E-03  5.479952E-04  6.112241E-19  2.315823E-01  0.000000E+00
  6.840650E-01  6.801846E-03  5.000000E-01  6.909734E-01  6.802033E-03  0.000000E+00  8.024863E-03  5.013689E-04  4.066315E-19  2.396133E-01  0.000000E+00
  7.024070E-01  7.925547E-03  5.000000E-01  7.095007E-01  7.937082E-03  0.000000E+00  7.830783E-03  4.821273E-04 -1.196797E-19  2.439174E-01  0.000000E+00
  7.202400E-01  9.031589E-03  5.000000E-01  7.275138E-01  9.054293E-03  0.000000E+00  7.559414E-03  4.741278E-04 -5.711778E-19  2.514375E-01  0.000000E+00
  7.375350E-01  1.013098E-02  5.000000E-01  7.449834E-01  1.016478E-02  0.000000E+00  7.216294E-03  4.612385E-04 -5.249252E-19  2.644842E-01  0.000000E+00
  7.542690E-01  1.120729E-02  5.000000E-01  7.618864E-01  1.125196E-02  0.000000E+00  6.831390E-03  4.361720E-04 -2.357082E-19  2.815441E-01  0.000000E+00
  7.704220E-01  1.222931E-02  5.000000E-01  7.782026E-01  1.228431E-02  0.000000E+00  6.449773E-03  3.977137E-04  1.905267E-19  2.999535E-01  0.000000E+00
  7.859770E-01  1.316167E-02  5.000000E-01  7.939146E-01  1.322609E-02  0.000000E+00  6.128545E-03  3.381538E-04  5.749436E-19  3.190826E-01  0.000000E+00
  8.009220E-01  1.391484E-02  5.000000E-01  8.090106E-01  1.398686E-02  0.000000E+00  5.926087E-03  2.474290E-04  4.529766E-19  3.388081E-01  0.000000E+00
  8.152480E-01  1.438583E-02  5.000000E-01  8.234813E-01  1.446260E-02  0.000000E+00  5.869303E-03  1.347751E-04  3.408263E-19  3.540059E-01  0.000000E+00
  8.289490E-01  1.456135E-02  5.000000E-01  8.373206E-01  1.463990E-02  0.000000E+00  5.943000E-03  1.836863E-05  3.687297E-19  3.603361E-01  0.000000E+00
  8.420260E-01  1.447671E-02  5.000000E-01  8.505297E-01  1.455441E-02  0.000000E+00  6.113489E-03 -9.349332E-05  1.691322E-19  3.596548E-01  0.000000E+00
  8.544790E-01  1.418093E-02  5.000000E-01  8.631085E-01  1.425564E-02  0.000000E+00  6.346635E-03 -1.986513E-04  5.786425E-20  3.551597E-01  0.000000E+00
  8.663160E-01  1.372503E-02  5.000000E-01  8.750650E-01  1.379513E-02  0.000000E+00  6.611582E-03 -2.958658E-04 -3.655188E-19  3.484987E-01  0.000000E+00
  8.775420E-01  1.315556E-02  5.000000E-01  8.864044E-01  1.321991E-02  0.000000E+00  6.881469E-03 -3.832624E-04 -7.477945E-19  3.404300E-01  0.000000E+00
  8.881660E-01  1.251299E-02  5.000000E-01  8.971357E-01  1.257086E-02  0.000000E+00  7.135710E-03 -4.588586E-04  4.654012E-20  3.315751E-01  0.000000E+00
  8.981970E-01  1.183083E-02  5.000000E-01  9.072680E-01  1.188181E-02  0.000000E+00  7.363148E-03 -5.237262E-04  8.658827E-19  3.227333E-01  0.000000E+00
  9.076460E-01  1.113038E-02  5.000000E-01  9.168124E-01  1.117428E-02  0.000000E+00  7.564362E-03 -5.837820E-04  7.142104E-19  3.148266E-01  0.000000E+00
  9.165220E-01  1.041925E-02  5.000000E-01  9.257780E-01  1.045597E-02  0.000000E+00  7.747965E-03 -6.445642E-04  1.714485E-19  3.078921E-01  0.000000E+00
  9.165220E-01  1.041925E-02  5.000000E-01  9.257780E-01  1.045597E-02  0.000000E+00  7.747965E-03 -6.445642E-04  1.714485E-19  3.078921E-01  0.000000E+00
  9.248360E-01  9.702487E-03  5.000000E-01  9.341760E-01  9.731967E-03  0.000000E+00  7.923445E-03 -7.077894E-04  5.443082E-20  3.011540E-01  0.000000E+00
  9.325990E-01  8.985240E-03  5.000000E-01  9.420174E-01  9.007476E-03  0.000000E+00  8.098633E-03 -7.741046E-04 -1.163371E-19  2.941921E-01  0.000000E+00
  9.398210E-01  8.272366E-03  5.000000E-01  9.493123E-01  8.287404E-03  0.000000E+00  8.280355E-03 -8.443476E-04 -4.263429E-19  2.869377E-01  0.000000E+00
  9.465130E-01  7.568639E-03  5.000000E-01  9.560719E-01  7.576569E-03  0.000000E+00  8.474505E-03 -9.192860E-04 -2.748321E-19  2.793003E-01  0.000000E+00
  9.526870E-01  6.878887E-03  5.000000E-01  9.623083E-01  6.879851E-03  0.000000E+00  8.685678E-03 -9.995375E-04  1.053136E-19  2.711492E-01  0.000000E+00
  9.583540E-01  6.208156E-03  5.000000E-01  9.680325E-01  6.202346E-03  0.000000E+00  8.917227E-03 -1.085536E-03  4.076807E-19  2.623691E-01  0.000000E+00
  9.635240E-01  5.561767E-03  5.000000E-01  9.732547E-01  5.549430E-03  0.000000E+00  9.171790E-03 -1.177384E-03  9.676320E-20  2.528506E-01  0.000000E+00
  9.682080E-01  4.945248E-03  5.000000E-01  9.779860E-01  4.926685E-03  0.000000E+00  9.452955E-03 -1.275360E-03 -1.143295E-19  2.425507E-01  0.000000E+00
  9.724140E-01  4.364351E-03  5.000000E-01  9.822345E-01  4.339921E-03  0.000000E+00  9.767671E-03 -1.380033E-03 -4.722609E-20  2.314725E-01  0.000000E+00
  9.761510E-01  3.824883E-03  5.000000E-01  9.860092E-01  3.795004E-03  0.000000E+00  1.012644E-02 -1.491912E-03 -4.421254E-19  2.195900E-01  0.000000E+00
  9.794290E-01  3.332524E-03  5.000000E-01  9.893203E-01  3.297674E-03  0.000000E+00  1.053630E-02 -1.611552E-03 -1.036272E-18  2.069191E-01  0.000000E+00
  9.822540E-01  2.892859E-03  5.000000E-01  9.921739E-01  2.853568E-03  0.000000E+00  1.098250E-02 -1.737019E-03 -1.087817E-18  1.937169E-01  0.000000E+00
  9.846330E-01  2.511049E-03  5.000000E-01  9.945769E-01  2.467902E-03  0.000000E+00  1.140938E-02 -1.856813E-03  3.026156E-19  1.812365E-01  0.000000E+00
  9.865710E-01  2.191773E-03  5.000000E-01  9.965345E-01  2.145401E-03  0.000000E+00  1.168161E-02 -1.936036E-03  1.964026E-18  1.683320E-01  0.000000E+00
  9.880740E-01  1.939028E-03  5.000000E-01  9.980526E-01  1.890104E-03  0.000000E+00  1.157959E-02 -1.965629E-03 -2.002966E-18  1.488114E-01  0.000000E+00
  9.891450E-01  1.756078E-03  5.000000E-01  9.991345E-01  1.705307E-03  0.000000E+00  1.177775E-02 -2.103980E-03 -2.498899E-17  1.496697E-01  0.000000E+00
  9.897860E-01  1.645340E-03  5.000000E-01  9.997819E-01  1.593450E-03  0.000000E+00  1.514722E-02 -2.142587E-03 -7.287029E-17  1.968217E-01  0.000000E+00
  9.900000E-01  1.608257E-03  5.000000E-01  9.999981E-01  1.555993E-03  0.000000E+00  1.056699E-02 -4.522621E-03 -7.716123E-17 -4.695331E-02  0.000000E+00
  9.900000E-01  1.686968E-03  5.000000E-01  9.999981E-01  1.635498E-03  0.000000E+00  1.058755E-03 -1.487817E-02  8.554909E-18 -1.847377E-01  0.000000E+00
  9.900000E-01  1.765688E-03  5.000000E-01  9.999981E-01  1.715014E-03  0.000000E+00 -5.267168E-04 -1.398708E-02  9.129000E-17 -9.186708E-03  0.000000E+00
  9.900000E-01  1.844408E-03  5.000000E-01  9.999981E-01  1.794529E-03  0.000000E+00 -2.967269E-04  2.336476E-03  1.061074E-16 -1.395403E-02  0.000000E+00
  9.900000E-01  1.923119E-03  5.000000E-01  9.999981E-01  1.874034E-03  0.000000E+00  7.055455E-04  3.772452E-03  1.310449E-16 -1.309360E-01  0.000000E+00
  9.900000E-01  2.001839E-03  5.000000E-01  9.999981E-01  1.953549E-03  0.000000E+00  5.830442E-03 -2.645334E-03  1.670419E-16 -3.803114E-02  0.000000E+00
  9.900000E-01  2.001839E-03  5.000000E-01  9.999981E-01  1.953549E-03  0.000000E+00  5.830442E-03 -2.645334E-03  1.670419E-16 -3.803114E-02  0.000000E+00
  9.897900E-01  2.048491E-03  5.000000E-01  9.997860E-01  2.000673E-03  0.000000E+00  7.583842E-03 -2.011733E-03  1.203528E-16  1.022730E-01  0.000000E+00
  9.891580E-01  2.188412E-03  5.000000E-01  9.991476E-01  2.142007E-03  0.000000E+00  4.684573E-03 -9.763260E-04  4.169214E-17  6.040682E-02  0.000000E+00
  9.881040E-01  2.421416E-03  5.000000E-01  9.980829E-01  2.377364E-03  0.000000E+00  3.918203E-03 -8.635395E-04  5.146790E-18  5.078672E-02  0.000000E+00
  9.866260E-01  2.747206E-03  5.000000E-01  9.965900E-01  2.706444E-03  0.000000E+00  3.725839E-03 -8.253081E-04 -3.578902E-18  5.244557E-02  0.000000E+00
  9.847200E-01  3.165360E-03  5.000000E-01  9.946648E-01  3.128821E-03  0.000000E+00  3.648021E-03 -7.975256E-04 -3.246234E-18  4.704341E-02  0.000000E+00
  9.823820E-01  3.675269E-03  5.000000E-01  9.923032E-01  3.643880E-03  0.000000E+00  3.706831E-03 -8.050161E-04 -1.686258E-18  3.884618E-02  0.000000E+00
  9.796080E-01  4.276097E-03  5.000000E-01  9.895011E-01  4.250776E-03  0.000000E+00  3.878418E-03 -8.363462E-04 -1.527353E-19  2.981147E-02  0.000000E+00
  9.763910E-01  4.966809E-03  5.000000E-01  9.862517E-01  4.948463E-03  0.000000E+00  4.120195E-03 -8.803228E-04  1.910144E-20  1.942872E-02  0.000000E+00
  9.727270E-01  5.745957E-03  5.000000E-01  9.825507E-01  5.735480E-03  0.000000E+00  4.404170E-03 -9.309000E-04 -2.289850E-19  7.599540E-03  0.000000E+00
  9.686070E-01  6.611902E-03  5.000000E-01  9.783890E-01  6.610170E-03  0.000000E+00  4.713908E-03 -9.840457E-04  8.932525E-20 -5.439910E-03  0.000000E+00
  9.640240E-01  7.562522E-03  5.000000E-01  9.737598E-01  7.570390E-03  0.000000E+00  5.040552E-03 -1.037331E-03 -2.962836E-19 -1.953569E-02  0.000000E+00
  9.589680E-01  8.595343E-03  5.000000E-01  9.686527E-01  8.613642E-03  0.000000E+00  5.380341E-03 -1.089544E-03 -5.117317E-19 -3.455110E-02  0.000000E+00
  9.534310E-01  9.707379E-03  5.000000E-01  9.630598E-01  9.736908E-03  0.000000E+00  5.731576E-03 -1.139918E-03 -5.482507E-19 -5.034703E-02  0.000000E+00
  9.474030E-01  1.089520E-02  5.000000E-01  9.569709E-01  1.093673E-02  0.000000E+00  6.092313E-03 -1.187419E-03 -1.498133E-18 -6.669377E-02  0.000000E+00
  9.408720E-01  1.215492E-02  5.000000E-01  9.503739E-01  1.220916E-02  0.000000E+00  6.459175E-03 -1.231036E-03 -1.060454E-18 -8.341339E-02  0.000000E+00
  9.338280E-01  1.348210E-02  5.000000E-01  9.432588E-01  1.354975E-02  0.000000E+00  6.827804E-03 -1.269738E-03  2.517873E-19 -1.003374E-01  0.000000E+00
  9.262600E-01  1.487194E-02  5.000000E-01  9.356144E-01  1.495363E-02  0.000000E+00  7.192986E-03 -1.302168E-03  6.518639E-20 -1.172170E-01  0.000000E+00
  9.181550E-01  1.631901E-02  5.000000E-01  9.274275E-01  1.641531E-02  0.000000E+00  7.548356E-03 -1.327057E-03 -8.254851E-19 -1.338499E-01  0.000000E+00
  9.095020E-01  1.781758E-02  5.000000E-01  9.186871E-01  1.792902E-02  0.000000E+00  7.886632E-03 -1.343122E-03 -1.198392E-18 -1.499088E-01  0.000000E+00
  9.002880E-01  1.936132E-02  5.000000E-01  9.093801E-01  1.948835E-02  0.000000E+00  8.198952E-03 -1.349204E-03 -4.957653E-19 -1.648373E-01  0.000000E+00
  8.905020E-01  2.094364E-02  5.000000E-01  8.994953E-01  2.108664E-02  0.000000E+00  8.474802E-03 -1.345687E-03  3.518327E-19 -1.782671E-01  0.000000E+00
  8.801320E-01  2.256106E-02  5.000000E-01  8.890205E-01  2.272040E-02  0.000000E+00  8.704912E-03 -1.334879E-03  7.433034E-19 -1.902346E-01  0.000000E+00
  8.691700E-01  2.421391E-02  5.000000E-01  8.779478E-01  2.438994E-02  0.000000E+00  8.884646E-03 -1.319337E-03  9.462799E-19 -2.009237E-01  0.000000E+00
  8.691700E-01  2.421391E-02  5.000000E-01  8.779478E-01  2.438994E-02  0.000000E+00  8.884646E-03 -1.319337E-03  9.462799E-19 -2.009237E-01  0.000000E+00
  8.576080E-01  2.590486E-02  5.000000E-01  8.662691E-01  2.609797E-02  0.000000E+00  9.014880E-03 -1.301411E-03  1.467361E-18 -2.104404E-01  0.000000E+00
  8.454380E-01  2.763913E-02  5.000000E-01  8.539761E-01  2.784975E-02  0.000000E+00  9.101400E-03 -1.284428E-03  2.329291E-19 -2.189502E-01  0.000000E+00
  8.326580E-01  2.942550E-02  5.000000E-01  8.410671E-01  2.965416E-02  0.000000E+00  9.155488E-03 -1.272563E-03 -7.324451E-19 -2.269089E-01  0.000000E+00
  8.192630E-01  3.127721E-02  5.000000E-01  8.275368E-01  3.152457E-02  0.000000E+00  9.195226E-03 -1.270903E-03  4.972608E-19 -2.355847E-01  0.000000E+00
  8.052550E-01  3.321272E-02  5.000000E-01  8.133873E-01  3.347963E-02  0.000000E+00  9.247287E-03 -1.283899E-03  4.611394E-19 -2.470921E-01  0.000000E+00
  7.906370E-01  3.525132E-02  5.000000E-01  7.986217E-01  3.553881E-02  0.000000E+00  9.345699E-03 -1.311181E-03  1.358536E-19 -2.630738E-01  0.000000E+00
  7.754120E-01  3.739954E-02  5.000000E-01  7.832430E-01  3.770874E-02  0.000000E+00  9.522307E-03 -1.346792E-03  2.822527E-19 -2.837119E-01  0.000000E+00
  7.595880E-01  3.964267E-02  5.000000E-01  7.672591E-01  3.997452E-02  0.000000E+00  9.794039E-03 -1.383465E-03 -6.522512E-19 -3.083921E-01  0.000000E+00
  7.431760E-01  4.195265E-02  5.000000E-01  7.506814E-01  4.230783E-02  0.000000E+00  1.015787E-02 -1.415092E-03 -1.506524E-18 -3.362943E-01  0.000000E+00
  7.261880E-01  4.429525E-02  5.000000E-01  7.335218E-01  4.467409E-02  0.000000E+00  1.059380E-02 -1.435353E-03  5.315608E-19 -3.659010E-01  0.000000E+00
  7.086430E-01  4.663202E-02  5.000000E-01  7.157996E-01  4.703445E-02  0.000000E+00  1.106942E-02 -1.437872E-03  8.783512E-19 -3.947615E-01  0.000000E+00
  6.905640E-01  4.892434E-02  5.000000E-01  6.975381E-01  4.934992E-02  0.000000E+00  1.154553E-02 -1.420184E-03 -7.667848E-19 -4.206762E-01  0.000000E+00
  6.719770E-01  5.114375E-02  5.000000E-01  6.787634E-01  5.159175E-02  0.000000E+00  1.198633E-02 -1.388277E-03 -6.771228E-19 -4.436792E-01  0.000000E+00
  6.529150E-01  5.328531E-02  5.000000E-01  6.595088E-01  5.375493E-02  0.000000E+00  1.237532E-02 -1.351427E-03 -1.385719E-18 -4.655914E-01  0.000000E+00
  6.334180E-01  5.535466E-02  5.000000E-01  6.398149E-01  5.584519E-02  0.000000E+00  1.272229E-02 -1.312220E-03 -1.866053E-18 -4.878462E-01  0.000000E+00
  6.135280E-01  5.734780E-02  5.000000E-01  6.197241E-01  5.785845E-02  0.000000E+00  1.305038E-02 -1.268659E-03 -2.000278E-18 -5.114115E-01  0.000000E+00
  5.932910E-01  5.925509E-02  5.000000E-01  5.992827E-01  5.978501E-02  0.000000E+00  1.338174E-02 -1.218107E-03 -2.014214E-18 -5.365302E-01  0.000000E+00
  5.727570E-01  6.105934E-02  5.000000E-01  5.785413E-01  6.160748E-02  0.000000E+00  1.372938E-02 -1.155971E-03 -1.234771E-18 -5.615206E-01  0.000000E+00
  5.519810E-01  6.273544E-02  5.000000E-01  5.575555E-01  6.330051E-02  0.000000E+00  1.409036E-02 -1.078358E-03 -9.720019E-19 -5.838590E-01  0.000000E+00
  5.310180E-01  6.425626E-02  5.000000E-01  5.363808E-01  6.483669E-02  0.000000E+00  1.444560E-02 -9.918882E-04 -6.904377E-19 -6.040418E-01  0.000000E+00
  5.099250E-01  6.562358E-02  5.000000E-01  5.150748E-01  6.621781E-02  0.000000E+00  1.478143E-02 -9.095311E-04  5.137209E-20 -6.256629E-01  0.000000E+00
  4.887640E-01  6.685629E-02  5.000000E-01  4.937001E-01  6.746297E-02  0.000000E+00  1.511374E-02 -8.288260E-04 -1.249616E-20 -6.498996E-01  0.000000E+00
  4.675910E-01  6.794720E-02  5.000000E-01  4.723132E-01  6.856490E-02  0.000000E+00  1.547127E-02 -7.355374E-04 -5.233986E-20 -6.748777E-01  0.000000E+00
  7.860720E-05 -5.572449E-04  5.000000E-01  7.940614E-05 -6.313788E-04  0.000000E+00 -5.506527E-03  2.183131E-02 -8.648484E-17  9.153573E-01  0.000000E+00
  3.989240E-04 -1.291036E-03  5.000000E-01  4.029578E-04 -1.372581E-03  0.000000E+00 -4.140443E-03  8.508895E-03 -7.331090E-17  1.092620E+00  0.000000E+00
  1.196920E-03 -2.183788E-03  5.000000E-01  1.209013E-03 -2.274349E-03  0.000000E+00  1.391568E-03 -5.101979E-04 -4.754433E-17  1.055135E+00  0.000000E+00
  2.563580E-03 -3.119997E-03  5.000000E-01  2.589475E-03 -3.220012E-03  0.000000E+00  6.932481E-03 -3.828523E-03 -2.575940E-17  9.010820E-01  0.000000E+00
  4.492740E-03 -4.044090E-03  5.000000E-01  4.538118E-03 -4.153438E-03  0.000000E+00  1.036991E-02 -4.329361E-03 -8.501484E-18  7.631054E-01  0.000000E+00
  6.952190E-03 -4.945979E-03  5.000000E-01  7.022406E-03 -5.064435E-03  0.000000E+00  1.220589E-02 -4.076377E-03 -4.933676E-19  6.655680E-01  0.000000E+00
  9.910730E-03 -5.845943E-03  5.000000E-01  1.001082E-02 -5.973488E-03  0.000000E+00  1.329625E-02 -3.797051E-03 -8.995646E-19  5.910309E-01  0.000000E+00
  1.334950E-02 -6.768903E-03  5.000000E-01  1.348432E-02 -6.905769E-03  0.000000E+00  1.406533E-02 -3.514319E-03 -2.678165E-18  5.182643E-01  0.000000E+00
  1.728780E-02 -7.685429E-03  5.000000E-01  1.746240E-02 -7.831551E-03  0.000000E+00  1.456634E-02 -3.075563E-03 -3.278940E-18  4.385866E-01  0.000000E+00
  2.175590E-02 -8.534872E-03  5.000000E-01  2.197562E-02 -8.689572E-03  0.000000E+00  1.476878E-02 -2.492883E-03 -2.692841E-18  3.656354E-01  0.000000E+00
  2.676920E-02 -9.272825E-03  5.000000E-01  2.703955E-02 -9.434979E-03  0.000000E+00  1.472876E-02 -1.901182E-03 -5.909925E-19  3.143631E-01  0.000000E+00
  3.232800E-02 -9.887306E-03  5.000000E-01  3.265449E-02 -1.005566E-02  0.000000E+00  1.454939E-02 -1.401671E-03  5.523131E-19  2.855890E-01  0.000000E+00
  3.842930E-02 -1.038722E-02  5.000000E-01  3.881741E-02 -1.056062E-02  0.000000E+00  1.430906E-02 -1.021958E-03  4.923032E-19  2.707958E-01  0.000000E+00
  4.507220E-02 -1.079091E-02  5.000000E-01  4.552739E-02 -1.096839E-02  0.000000E+00  1.406739E-02 -7.649980E-04  5.413672E-19  2.634496E-01  0.000000E+00
  5.225680E-02 -1.113450E-02  5.000000E-01  5.278455E-02 -1.131546E-02  0.000000E+00  1.387704E-02 -6.202305E-04  1.993996E-20  2.599239E-01  0.000000E+00
  5.998640E-02 -1.145599E-02  5.000000E-01  6.059221E-02 -1.164019E-02  0.000000E+00  1.374717E-02 -5.385778E-04 -2.596797E-19  2.542074E-01  0.000000E+00
  6.827110E-02 -1.176159E-02  5.000000E-01  6.896058E-02 -1.194887E-02  0.000000E+00  1.364616E-02 -4.707535E-04 -1.278483E-19  2.433685E-01  0.000000E+00
  7.712280E-02 -1.204555E-02  5.000000E-01  7.790167E-02 -1.223570E-02  0.000000E+00  1.354672E-02 -4.047355E-04 -1.060154E-19  2.308719E-01  0.000000E+00
  8.655260E-02 -1.230567E-02  5.000000E-01  8.742671E-02 -1.249845E-02  0.000000E+00  1.343381E-02 -3.401486E-04 -9.807781E-20  2.195946E-01  0.000000E+00
  9.657140E-02 -1.253659E-02  5.000000E-01  9.754669E-02 -1.273171E-02  0.000000E+00  1.329088E-02 -2.681312E-04 -9.401196E-20  2.090810E-01  0.000000E+00
  1.071900E-01 -1.272037E-02  5.000000E-01  1.082725E-01 -1.291734E-02  0.000000E+00  1.311059E-02 -1.875473E-04  1.408543E-19  1.995819E-01  0.000000E+00
  1.184180E-01 -1.284629E-02  5.000000E-01  1.196139E-01 -1.304453E-02  0.000000E+00  1.291170E-02 -1.151986E-04  5.274945E-20  1.933125E-01  0.000000E+00
  1.302610E-01 -1.292380E-02  5.000000E-01  1.315765E-01 -1.312282E-02  0.000000E+00  1.272485E-02 -6.603958E-05 -5.189937E-19  1.904140E-01  0.000000E+00
  1.427230E-01 -1.297127E-02  5.000000E-01  1.441644E-01 -1.317077E-02  0.000000E+00  1.257026E-02 -4.316004E-05 -4.299165E-19  1.887759E-01  0.000000E+00
  1.427230E-01 -1.297127E-02  5.000000E-01  1.441644E-01 -1.317077E-02  0.000000E+00  1.257026E-02 -4.316004E-05 -4.299165E-19  1.887759E-01  0.000000E+00
  1.558070E-01 -1.301151E-02  5.000000E-01  1.573805E-01 -1.321142E-02  0.000000E+00  1.244764E-02 -3.807149E-05  1.048674E-20  1.859987E-01  0.000000E+00
  1.695140E-01 -1.305382E-02  5.000000E-01  1.712259E-01 -1.325416E-02  0.000000E+00  1.234014E-02 -3.567708E-05 -4.219612E-19  1.807413E-01  0.000000E+00
  1.838420E-01 -1.309266E-02  5.000000E-01  1.856986E-01 -1.329339E-02  0.000000E+00  1.223158E-02 -2.524237E-05 -5.019692E-19  1.737744E-01  0.000000E+00
  1.987870E-01 -1.311379E-02  5.000000E-01  2.007946E-01 -1.331473E-02  0.000000E+00  1.212002E-02 -3.521687E-06 -7.048718E-19  1.665591E-01  0.000000E+00
  2.143420E-01 -1.310056E-02  5.000000E-01  2.165067E-01 -1.330137E-02  0.000000E+00  1.202500E-02  2.001104E-05 -7.980747E-19  1.605953E-01  0.000000E+00
  2.304940E-01 -1.305949E-02  5.000000E-01  2.328218E-01 -1.325988E-02  0.000000E+00  1.198262E-02  2.507983E-05 -2.172388E-19  1.569284E-01  0.000000E+00
  2.472290E-01 -1.303112E-02  5.000000E-01  2.497258E-01 -1.323122E-02  0.000000E+00  1.201821E-02  3.314830E-06 -1.005201E-19  1.536627E-01  0.000000E+00
  2.645310E-01 -1.305152E-02  5.000000E-01  2.672025E-01 -1.325183E-02  0.000000E+00  1.212032E-02 -2.688906E-05  1.714621E-19  1.463693E-01  0.000000E+00
  2.823750E-01 -1.311117E-02  5.000000E-01  2.852267E-01 -1.331209E-02  0.000000E+00  1.224590E-02 -3.569769E-05  4.513935E-19  1.328546E-01  0.000000E+00
  3.007320E-01 -1.315754E-02  5.000000E-01  3.037691E-01 -1.335893E-02  0.000000E+00  1.234672E-02 -5.531177E-06  8.754601E-20  1.157302E-01  0.000000E+00
  3.195690E-01 -1.312682E-02  5.000000E-01  3.227964E-01 -1.332790E-02  0.000000E+00  1.238637E-02  6.421588E-05  7.469649E-20  9.928114E-02  0.000000E+00
  3.388440E-01 -1.295778E-02  5.000000E-01  3.422660E-01 -1.315715E-02  0.000000E+00  1.234642E-02  1.592566E-04 -4.807034E-19  8.695931E-02  0.000000E+00
  3.585140E-01 -1.262129E-02  5.000000E-01  3.621347E-01 -1.281725E-02  0.000000E+00  1.222307E-02  2.594374E-04 -6.260345E-19  8.041435E-02  0.000000E+00
  3.785290E-01 -1.211289E-02  5.000000E-01  3.823518E-01 -1.230372E-02  0.000000E+00  1.201442E-02  3.547110E-04 -4.008260E-20  7.852935E-02  0.000000E+00
  3.988350E-01 -1.142828E-02  5.000000E-01  4.028629E-01 -1.161220E-02  0.000000E+00  1.172210E-02  4.431951E-04 -3.320651E-19  8.004242E-02  0.000000E+00
  4.193750E-01 -1.056551E-02  5.000000E-01  4.236103E-01 -1.074072E-02  0.000000E+00  1.136051E-02  5.276592E-04 -1.606626E-19  8.459694E-02  0.000000E+00
  4.400850E-01 -9.508957E-03  5.000000E-01  4.445295E-01 -9.673495E-03  0.000000E+00  1.096573E-02  6.070149E-04  2.740494E-19  9.252682E-02  0.000000E+00
  4.609060E-01 -8.262215E-03  5.000000E-01  4.655607E-01 -8.414162E-03  0.000000E+00  1.059896E-02  6.615232E-04  9.374400E-19  1.054187E-01  0.000000E+00
  4.818030E-01 -6.900541E-03  5.000000E-01  4.866688E-01 -7.038736E-03  0.000000E+00  1.032243E-02  6.640143E-04  1.094084E-18  1.236499E-01  0.000000E+00
  5.027520E-01 -5.569269E-03  5.000000E-01  5.078293E-01 -5.694020E-03  0.000000E+00  1.014671E-02  6.207344E-04  8.169864E-19  1.415362E-01  0.000000E+00
  5.237130E-01 -4.341371E-03  5.000000E-01  5.290020E-01 -4.453721E-03  0.000000E+00  1.000595E-02  5.831439E-04  5.288188E-19  1.500616E-01  0.000000E+00
  5.446170E-01 -3.135370E-03  5.000000E-01  5.501171E-01 -3.235541E-03  0.000000E+00  9.810303E-03  5.936650E-04  2.792541E-19  1.486330E-01  0.000000E+00
  5.653940E-01 -1.816419E-03  5.000000E-01  5.711040E-01 -1.903269E-03  0.000000E+00  9.526581E-03  6.355641E-04  4.804326E-19  1.489085E-01  0.000000E+00
  4.675910E-01  6.794720E-02  5.000000E-01  4.723132E-01  6.856490E-02  0.000000E+00  1.547127E-02 -7.355374E-04 -5.233986E-20 -6.748777E-01  0.000000E+00
  4.464640E-01  6.886987E-02  5.000000E-01  4.509729E-01  6.949688E-02  0.000000E+00  1.586526E-02 -6.272028E-04  3.913544E-19 -7.002975E-01  0.000000E+00
  4.254410E-01  6.961578E-02  5.000000E-01  4.297376E-01  7.025033E-02  0.000000E+00  1.629520E-02 -5.069936E-04  7.097275E-20 -7.270589E-01  0.000000E+00
  4.045840E-01  7.017571E-02  5.000000E-01  4.086699E-01  7.081592E-02  0.000000E+00  1.676060E-02 -3.714962E-04 -4.413911E-19 -7.551892E-01  0.000000E+00
  3.839530E-01  7.053873E-02  5.000000E-01  3.878306E-01  7.118260E-02  0.000000E+00  1.725845E-02 -2.148129E-04 -1.881726E-19 -7.839276E-01  0.000000E+00
  3.636060E-01  7.069010E-02  5.000000E-01  3.672781E-01  7.133550E-02  0.000000E+00  1.778084E-02 -3.173938E-05  1.799337E-19 -8.115272E-01  0.000000E+00
  3.435960E-01  7.061644E-02  5.000000E-01  3.470660E-01  7.126109E-02  0.000000E+00  1.831204E-02  1.799377E-04  3.757497E-19 -8.359408E-01  0.000000E+00
  3.239710E-01  7.030695E-02  5.000000E-01  3.272428E-01  7.094848E-02  0.000000E+00  1.882772E-02  4.143365E-04  3.064994E-19 -8.567721E-01  0.000000E+00
  3.047740E-01  6.976746E-02  5.000000E-01  3.078519E-01  7.040354E-02  0.000000E+00  1.930725E-02  6.594652E-04 -2.028903E-20 -8.755789E-01  0.000000E+00
  2.860450E-01  6.901670E-02  5.000000E-01  2.889338E-01  6.964520E-02  0.000000E+00  1.975239E-02  9.148843E-04 -3.925846E-19 -8.927124E-01  0.000000E+00
  2.678190E-01  6.806164E-02  5.000000E-01  2.705237E-01  6.868049E-02  0.000000E+00  2.017566E-02  1.186680E-03 -3.239334E-19 -9.076428E-01  0.000000E+00
  2.501300E-01  6.691003E-02  5.000000E-01  2.526561E-01  6.751725E-02  0.000000E+00  2.058322E-02  1.473991E-03 -3.241317E-19 -9.210774E-01  0.000000E+00
  2.330040E-01  6.557393E-02  5.000000E-01  2.353571E-01  6.616766E-02  0.000000E+00  2.097887E-02  1.774999E-03 -8.991018E-19 -9.340138E-01  0.000000E+00
  2.164660E-01  6.406693E-02  5.000000E-01  2.186521E-01  6.464544E-02  0.000000E+00  2.136948E-02  2.091035E-03 -5.673342E-19 -9.462500E-01  0.000000E+00
  2.005340E-01  6.240284E-02  5.000000E-01  2.025592E-01  6.296455E-02  0.000000E+00  2.176679E-02  2.432087E-03 -6.920373E-19 -9.549124E-01  0.000000E+00
  1.852230E-01  6.058388E-02  5.000000E-01  1.870936E-01  6.112721E-02  0.000000E+00  2.217006E-02  2.802108E-03  6.668199E-20 -9.578890E-01  0.000000E+00
  1.705440E-01  5.861996E-02  5.000000E-01  1.722663E-01  5.914346E-02  0.000000E+00  2.256129E-02  3.184659E-03  7.914799E-19 -9.590095E-01  0.000000E+00
  1.565000E-01  5.653488E-02  5.000000E-01  1.580805E-01  5.703732E-02  0.000000E+00  2.294088E-02  3.566545E-03 -3.178427E-19 -9.662477E-01  0.000000E+00
  1.430940E-01  5.435593E-02  5.000000E-01  1.445391E-01  5.483637E-02  0.000000E+00  2.335724E-02  3.973070E-03 -5.343695E-19 -9.831863E-01  0.000000E+00
  1.303270E-01  5.208841E-02  5.000000E-01  1.316432E-01  5.254595E-02  0.000000E+00  2.387892E-02  4.476317E-03 -5.384875E-19 -1.000906E+00  0.000000E+00
  1.182110E-01  4.970172E-02  5.000000E-01  1.194048E-01  5.013516E-02  0.000000E+00  2.449708E-02  5.119743E-03 -1.073641E-19 -1.004186E+00  0.000000E+00
  1.067560E-01  4.717666E-02  5.000000E-01  1.078341E-01  4.758459E-02  0.000000E+00  2.508304E-02  5.866458E-03  8.166288E-19 -9.832130E-01  0.000000E+00
  9.596750E-02  4.451302E-02  5.000000E-01  9.693669E-02  4.489405E-02  0.000000E+00  2.544811E-02  6.580241E-03  1.007791E-18 -9.456092E-01  0.000000E+00
  8.582800E-02  4.177150E-02  5.000000E-01  8.669479E-02  4.212485E-02  0.000000E+00  2.551118E-02  7.133221E-03  4.284986E-19 -9.102057E-01  0.000000E+00
  8.582800E-02  4.177150E-02  5.000000E-01  8.669479E-02  4.212485E-02  0.000000E+00  2.551118E-02  7.133221E-03  4.284986E-19 -9.102057E-01  0.000000E+00
  7.631050E-02  3.902058E-02  5.000000E-01  7.708117E-02  3.934614E-02  0.000000E+00  2.540197E-02  7.595371E-03  6.309743E-19 -8.810806E-01  0.000000E+00
  6.740780E-02  3.626999E-02  5.000000E-01  6.808856E-02  3.656778E-02  0.000000E+00  2.528685E-02  8.104582E-03  1.692276E-19 -8.506483E-01  0.000000E+00
  5.911740E-02  3.351738E-02  5.000000E-01  5.971444E-02  3.378737E-02  0.000000E+00  2.521583E-02  8.687538E-03 -8.283339E-19 -8.153348E-01  0.000000E+00
  5.143150E-02  3.077341E-02  5.000000E-01  5.195092E-02  3.101569E-02  0.000000E+00  2.515753E-02  9.310197E-03 -9.399702E-19 -7.754527E-01  0.000000E+00
  4.433770E-02  2.805547E-02  5.000000E-01  4.478547E-02  2.827030E-02  0.000000E+00  2.506126E-02  9.943908E-03 -1.412512E-18 -7.335314E-01  0.000000E+00
  3.782240E-02  2.538089E-02  5.000000E-01  3.820438E-02  2.556871E-02  0.000000E+00  2.489517E-02  1.058716E-02 -1.358498E-18 -6.933849E-01  0.000000E+00
  3.187460E-02  2.276196E-02  5.000000E-01  3.219651E-02  2.292333E-02  0.000000E+00  2.466297E-02  1.126394E-02 -2.595662E-18 -6.575101E-01  0.000000E+00
  2.648400E-02  2.020973E-02  5.000000E-01  2.675147E-02  2.034533E-02  0.000000E+00  2.439166E-02  1.204520E-02 -5.461516E-18 -6.179986E-01  0.000000E+00
  2.164990E-02  1.772442E-02  5.000000E-01  2.186855E-02  1.783491E-02  0.000000E+00  2.403929E-02  1.298597E-02 -8.931666E-18 -5.550463E-01  0.000000E+00
  1.737670E-02  1.530519E-02  5.000000E-01  1.755219E-02  1.539125E-02  0.000000E+00  2.343084E-02  1.390903E-02 -1.422492E-17 -4.623383E-01  0.000000E+00
  1.364080E-02  1.298165E-02  5.000000E-01  1.377856E-02  1.304424E-02  0.000000E+00  2.243585E-02  1.447841E-02 -2.069893E-17 -3.623197E-01  0.000000E+00
  1.039090E-02  1.080248E-02  5.000000E-01  1.049584E-02  1.084307E-02  0.000000E+00  2.117652E-02  1.464531E-02 -2.594651E-17 -2.821448E-01  0.000000E+00
  7.586340E-03  8.798934E-03  5.000000E-01  7.662960E-03  8.819289E-03  0.000000E+00  1.995473E-02  1.484394E-02 -2.762492E-17 -2.244402E-01  0.000000E+00
  5.226210E-03  6.969990E-03  5.000000E-01  5.278995E-03  6.971875E-03  0.000000E+00  1.902805E-02  1.566395E-02 -2.874793E-17 -1.739127E-01  0.000000E+00
  3.324300E-03  5.308767E-03  5.000000E-01  3.357877E-03  5.293874E-03  0.000000E+00  1.846584E-02  1.756940E-02 -4.120553E-17 -1.166018E-01  0.000000E+00
  1.883580E-03  3.823298E-03  5.000000E-01  1.902608E-03  3.793404E-03  0.000000E+00  1.796080E-02  2.094302E-02 -7.349072E-17 -3.096528E-02  0.000000E+00
  8.951490E-04  2.534523E-03  5.000000E-01  9.041943E-04  2.491613E-03  0.000000E+00  1.652465E-02  2.569897E-02 -1.210542E-16  1.141370E-01  0.000000E+00
  3.201820E-04  1.478366E-03  5.000000E-01  3.234206E-04  1.424790E-03  0.000000E+00  1.288793E-02  3.026809E-02 -1.689758E-16  3.260525E-01  0.000000E+00
  6.852390E-05  6.976240E-04  5.000000E-01  6.922101E-05  6.361631E-04  0.000000E+00  7.387896E-03  3.177918E-02 -1.970635E-16  5.339080E-01  0.000000E+00
  4.217600E-06  2.250008E-04  5.000000E-01  4.265277E-06  1.587669E-04  0.000000E+00  2.557140E-03  3.031259E-02 -1.826305E-16  6.044835E-01  0.000000E+00
 -5.032520E-09  6.782127E-05  5.000000E-01  0.000000E+00  0.000000E+00  0.000000E+00 -3.546541E-04  3.159486E-02 -1.302051E-16  5.752044E-01  0.000000E+00
  5.154440E-06 -9.000942E-05  5.000000E-01  5.211578E-06 -1.594246E-04  0.000000E+00 -3.029222E-03  3.140279E-02 -9.202463E-17  6.680718E-01  0.000000E+00