 Title = "ADflow Slice Data"
Variables =  "CoordinateX"  "CoordinateY"  "CoordinateZ"  "XoC"  "YoC"  "ZoC" "VelocityX" "VelocityY" "VelocityZ" "CoefPressure" "Mach" 
Zone T= "Slice_0001 None Absolute Regular z = 0.50000000"
 Nodes =          192  Elements=          184  ZONETYPE=FELINESEG
 DATAPACKING=POINT
  5.653940E-01 -2.668963E-03  5.000000E-01  5.711040E-01 -2.771345E-03  0.000000E+00  9.768785E-03  6.152405E-04 -1.834746E-20  1.433972E-01  0.000000E+00
  5.859770E-01 -1.293526E-03  5.000000E-01  5.918948E-01 -1.382018E-03  0.000000E+00  9.468733E-03  6.652288E-04 -6.202637E-19  1.502334E-01  0.000000E+00
  6.063060E-01  2.078805E-04  5.000000E-01  6.124291E-01  1.345521E-04  0.000000E+00  9.126420E-03  6.965753E-04 -4.621688E-19  1.650447E-01  0.000000E+00
  6.263240E-01  1.786631E-03  5.000000E-01  6.326493E-01  1.729247E-03  0.000000E+00  8.786807E-03  6.978952E-04  9.149873E-19  1.839139E-01  0.000000E+00
  6.459860E-01  3.359744E-03  5.000000E-01  6.525099E-01  3.318246E-03  0.000000E+00  8.481747E-03  6.680914E-04  4.208742E-19  2.037825E-01  0.000000E+00
  6.652460E-01  4.851620E-03  5.000000E-01  6.719644E-01  4.825189E-03  0.000000E+00  8.211202E-03  6.221528E-04 -6.154107E-20  2.213808E-01  0.000000E+00
  6.840650E-01  6.242031E-03  5.000000E-01  6.909734E-01  6.229642E-03  0.000000E+00  7.943291E-03  5.827329E-04 -2.292580E-19  2.342912E-01  0.000000E+00
  7.024070E-01  7.576448E-03  5.000000E-01  7.095007E-01  7.577536E-03  0.000000E+00  7.643997E-03  5.559768E-04 -1.020004E-19  2.449211E-01  0.000000E+00
  7.202400E-01  8.875179E-03  5.000000E-01  7.275138E-01  8.889382E-03  0.000000E+00  7.303088E-03  5.300198E-04  1.030847E-18  2.579979E-01  0.000000E+00
  7.375350E-01  1.012726E-02  5.000000E-01  7.449834E-01  1.015410E-02  0.000000E+00  6.932655E-03  4.952322E-04  7.815662E-19  2.746220E-01  0.000000E+00
  7.542690E-01  1.130596E-02  5.000000E-01  7.618864E-01  1.134472E-02  0.000000E+00  6.559823E-03  4.494519E-04 -3.869749E-19  2.932059E-01  0.000000E+00
  7.704220E-01  1.237864E-02  5.000000E-01  7.782026E-01  1.242823E-02  0.000000E+00  6.220395E-03  3.941541E-04 -3.763695E-19  3.115325E-01  0.000000E+00
  7.859770E-01  1.331422E-02  5.000000E-01  7.939147E-01  1.337325E-02  0.000000E+00  5.958302E-03  3.232459E-04  1.219239E-19  3.293134E-01  0.000000E+00
  8.009220E-01  1.403648E-02  5.000000E-01  8.090106E-01  1.410281E-02  0.000000E+00  5.818087E-03  2.271591E-04  4.156845E-19  3.467013E-01  0.000000E+00
  8.152480E-01  1.446068E-02  5.000000E-01  8.234813E-01  1.453129E-02  0.000000E+00  5.817287E-03  1.129750E-04  6.637118E-19  3.593456E-01  0.000000E+00
  8.289490E-01  1.458551E-02  5.000000E-01  8.373206E-01  1.465738E-02  0.000000E+00  5.937445E-03 -3.746061E-06  5.094083E-19  3.635963E-01  0.000000E+00
  8.420260E-01  1.445292E-02  5.000000E-01  8.505297E-01  1.452345E-02  0.000000E+00  6.144943E-03 -1.156727E-04  2.905813E-19  3.613265E-01  0.000000E+00
  8.544790E-01  1.411527E-02  5.000000E-01  8.631085E-01  1.418240E-02  0.000000E+00  6.406677E-03 -2.206622E-04  1.686087E-19  3.555330E-01  0.000000E+00
  8.663160E-01  1.362491E-02  5.000000E-01  8.750650E-01  1.368708E-02  0.000000E+00  6.693003E-03 -3.172578E-04 -1.169028E-19  3.477653E-01  0.000000E+00
  8.775420E-01  1.302860E-02  5.000000E-01  8.864044E-01  1.308475E-02  0.000000E+00  6.978292E-03 -4.034311E-04  1.479576E-19  3.387654E-01  0.000000E+00
  8.881660E-01  1.236640E-02  5.000000E-01  8.971357E-01  1.241587E-02  0.000000E+00  7.243048E-03 -4.771538E-04  4.801134E-19  3.291507E-01  0.000000E+00
  8.981970E-01  1.167115E-02  5.000000E-01  9.072680E-01  1.171359E-02  0.000000E+00  7.476940E-03 -5.395195E-04  2.282026E-20  3.197022E-01  0.000000E+00
  9.076460E-01  1.096349E-02  5.000000E-01  9.168124E-01  1.099878E-02  0.000000E+00  7.681109E-03 -5.965161E-04  4.103462E-20  3.113206E-01  0.000000E+00
  9.165220E-01  1.025046E-02  5.000000E-01  9.257781E-01  1.027855E-02  0.000000E+00  7.864613E-03 -6.538090E-04  6.423605E-20  3.040409E-01  0.000000E+00
  9.165220E-01  1.025046E-02  5.000000E-01  9.257781E-01  1.027855E-02  0.000000E+00  7.864613E-03 -6.538090E-04  6.423605E-20  3.040409E-01  0.000000E+00
  9.248360E-01  9.536392E-03  5.000000E-01  9.341760E-01  9.557273E-03  0.000000E+00  8.037408E-03 -7.132675E-04 -2.420830E-19  2.970895E-01  0.000000E+00
  9.325990E-01  8.825651E-03  5.000000E-01  9.420174E-01  8.839354E-03  0.000000E+00  8.207827E-03 -7.756687E-04 -4.341100E-19  2.900331E-01  0.000000E+00
  9.398210E-01  8.122281E-03  5.000000E-01  9.493124E-01  8.128881E-03  0.000000E+00  8.383180E-03 -8.419414E-04 -1.555660E-19  2.827818E-01  0.000000E+00
  9.465130E-01  7.430273E-03  5.000000E-01  9.560719E-01  7.429884E-03  0.000000E+00  8.569796E-03 -9.129099E-04  5.282185E-20  2.752261E-01  0.000000E+00
  9.526870E-01  6.753738E-03  5.000000E-01  9.623083E-01  6.746517E-03  0.000000E+00  8.772653E-03 -9.892257E-04 -4.905412E-19  2.672194E-01  0.000000E+00
  9.583540E-01  6.097082E-03  5.000000E-01  9.680325E-01  6.083230E-03  0.000000E+00  8.995425E-03 -1.071341E-03 -5.701070E-19  2.586321E-01  0.000000E+00
  9.635240E-01  5.465071E-03  5.000000E-01  9.732547E-01  5.444835E-03  0.000000E+00  9.240985E-03 -1.159363E-03  6.358518E-19  2.493422E-01  0.000000E+00
  9.682080E-01  4.862765E-03  5.000000E-01  9.779860E-01  4.836447E-03  0.000000E+00  9.513056E-03 -1.253554E-03  4.489672E-19  2.392958E-01  0.000000E+00
  9.724140E-01  4.295528E-03  5.000000E-01  9.822345E-01  4.263481E-03  0.000000E+00  9.818615E-03 -1.354444E-03 -4.300866E-18  2.284868E-01  0.000000E+00
  9.761510E-01  3.768856E-03  5.000000E-01  9.860093E-01  3.731490E-03  0.000000E+00  1.016813E-02 -1.462477E-03 -7.326376E-18  2.168833E-01  0.000000E+00
  9.794290E-01  3.288193E-03  5.000000E-01  9.893204E-01  3.245973E-03  0.000000E+00  1.056867E-02 -1.578160E-03  6.150899E-18  2.044955E-01  0.000000E+00
  9.822540E-01  2.858932E-03  5.000000E-01  9.921739E-01  2.812377E-03  0.000000E+00  1.100573E-02 -1.699636E-03  3.570727E-17  1.915737E-01  0.000000E+00
  9.846330E-01  2.486100E-03  5.000000E-01  9.945769E-01  2.435779E-03  0.000000E+00  1.142437E-02 -1.815741E-03  3.461562E-17  1.793670E-01  0.000000E+00
  9.865710E-01  2.174271E-03  5.000000E-01  9.965345E-01  2.120802E-03  0.000000E+00  1.169061E-02 -1.892319E-03 -5.515369E-17  1.667393E-01  0.000000E+00
  9.880740E-01  1.927380E-03  5.000000E-01  9.980527E-01  1.871417E-03  0.000000E+00  1.158634E-02 -1.921329E-03 -1.937084E-16  1.474597E-01  0.000000E+00
  9.891450E-01  1.748639E-03  5.000000E-01  9.991345E-01  1.690871E-03  0.000000E+00  1.178684E-02 -2.059259E-03 -2.069087E-16  1.484188E-01  0.000000E+00
  9.897860E-01  1.640434E-03  5.000000E-01  9.997820E-01  1.581574E-03  0.000000E+00  1.516994E-02 -2.086754E-03  9.259737E-17  1.958596E-01  0.000000E+00
  9.900000E-01  1.604201E-03  5.000000E-01  9.999981E-01  1.544974E-03  0.000000E+00  1.058515E-02 -4.472016E-03  8.499717E-16 -4.782269E-02  0.000000E+00
  9.900000E-01  1.682911E-03  5.000000E-01  9.999981E-01  1.624479E-03  0.000000E+00  1.059893E-03 -1.486149E-02  1.550281E-15 -1.856884E-01  0.000000E+00
  9.900000E-01  1.761631E-03  5.000000E-01  9.999981E-01  1.703994E-03  0.000000E+00 -5.271055E-04 -1.396564E-02  1.510727E-15 -9.860129E-03  0.000000E+00
  9.900000E-01  1.840352E-03  5.000000E-01  9.999981E-01  1.783510E-03  0.000000E+00 -2.989369E-04  2.412708E-03  8.050723E-16 -1.457068E-02  0.000000E+00
  9.900000E-01  1.919062E-03  5.000000E-01  9.999981E-01  1.863015E-03  0.000000E+00  7.099353E-04  3.833783E-03 -8.315778E-17 -1.322659E-01  0.000000E+00
  9.900000E-01  1.997782E-03  5.000000E-01  9.999981E-01  1.942530E-03  0.000000E+00  5.874486E-03 -2.628818E-03 -2.852400E-16 -3.874813E-02  0.000000E+00
  9.900000E-01  1.997782E-03  5.000000E-01  9.999981E-01  1.942530E-03  0.000000E+00  5.874486E-03 -2.628818E-03 -2.852400E-16 -3.874813E-02  0.000000E+00
  9.897900E-01  2.043583E-03  5.000000E-01  9.997860E-01  1.988794E-03  0.000000E+00  7.647263E-03 -1.997126E-03  5.639536E-18  1.026270E-01  0.000000E+00
  9.891580E-01  2.180943E-03  5.000000E-01  9.991476E-01  2.127541E-03  0.000000E+00  4.736820E-03 -9.683868E-04  5.949946E-17  6.053355E-02  0.000000E+00
  9.881040E-01  2.409679E-03  5.000000E-01  9.980830E-01  2.358587E-03  0.000000E+00  3.974658E-03 -8.598886E-04  8.435840E-18  5.088950E-02  0.000000E+00
  9.866260E-01  2.729492E-03  5.000000E-01  9.965900E-01  2.681630E-03  0.000000E+00  3.786754E-03 -8.234398E-04 -1.031459E-17  5.264575E-02  0.000000E+00
  9.847200E-01  3.139950E-03  5.000000E-01  9.946648E-01  3.096233E-03  0.000000E+00  3.710094E-03 -7.961363E-04  1.508392E-18  4.733112E-02  0.000000E+00
  9.823820E-01  3.640439E-03  5.000000E-01  9.923032E-01  3.601777E-03  0.000000E+00  3.767915E-03 -8.031292E-04  7.195540E-18  3.924235E-02  0.000000E+00
  9.796080E-01  4.230119E-03  5.000000E-01  9.895012E-01  4.197412E-03  0.000000E+00  3.937079E-03 -8.332041E-04  1.194501E-18  3.034925E-02  0.000000E+00
  9.763910E-01  4.907945E-03  5.000000E-01  9.862517E-01  4.882083E-03  0.000000E+00  4.175358E-03 -8.754223E-04 -4.607649E-18  2.014044E-02  0.000000E+00
  9.727270E-01  5.672475E-03  5.000000E-01  9.825507E-01  5.654334E-03  0.000000E+00  4.454934E-03 -9.239077E-04 -4.591671E-18  8.521382E-03  0.000000E+00
  9.686070E-01  6.522065E-03  5.000000E-01  9.783891E-01  6.512504E-03  0.000000E+00  4.759380E-03 -9.747120E-04 -1.425717E-18 -4.266787E-03  0.000000E+00
  9.640240E-01  7.454605E-03  5.000000E-01  9.737598E-01  7.454462E-03  0.000000E+00  5.079750E-03 -1.025449E-03  8.587126E-19 -1.806645E-02  0.000000E+00
  9.589680E-01  8.467641E-03  5.000000E-01  9.686527E-01  8.477729E-03  0.000000E+00  5.412171E-03 -1.074930E-03  9.188340E-19 -3.273851E-02  0.000000E+00
  9.534310E-01  9.558229E-03  5.000000E-01  9.630598E-01  9.579331E-03  0.000000E+00  5.754824E-03 -1.122412E-03  2.934689E-19 -4.814193E-02  0.000000E+00
  9.474030E-01  1.072301E-02  5.000000E-01  9.569709E-01  1.075588E-02  0.000000E+00  6.105654E-03 -1.166899E-03 -2.666706E-19 -6.404552E-02  0.000000E+00
  9.408720E-01  1.195819E-02  5.000000E-01  9.503740E-01  1.200353E-02  0.000000E+00  6.461180E-03 -1.207440E-03 -2.573083E-19 -8.027143E-02  0.000000E+00
  9.338280E-01  1.325951E-02  5.000000E-01  9.432588E-01  1.331799E-02  0.000000E+00  6.816968E-03 -1.243082E-03  5.210898E-19 -9.665327E-02  0.000000E+00
  9.262600E-01  1.462237E-02  5.000000E-01  9.356144E-01  1.469462E-02  0.000000E+00  7.167777E-03 -1.272579E-03  8.189690E-19 -1.129461E-01  0.000000E+00
  9.181550E-01  1.604167E-02  5.000000E-01  9.274275E-01  1.612825E-02  0.000000E+00  7.507302E-03 -1.294803E-03  7.592634E-19 -1.289550E-01  0.000000E+00
  9.095020E-01  1.751210E-02  5.000000E-01  9.186872E-01  1.761353E-02  0.000000E+00  7.828460E-03 -1.308652E-03  3.417517E-19 -1.443703E-01  0.000000E+00
  9.002880E-01  1.902790E-02  5.000000E-01  9.093801E-01  1.914464E-02  0.000000E+00  8.122816E-03 -1.313186E-03  1.292801E-19 -1.586687E-01  0.000000E+00
  8.905020E-01  2.058320E-02  5.000000E-01  8.994953E-01  2.071564E-02  0.000000E+00  8.380601E-03 -1.308983E-03 -4.402894E-19 -1.715225E-01  0.000000E+00
  8.801320E-01  2.217533E-02  5.000000E-01  8.890205E-01  2.232386E-02  0.000000E+00  8.593589E-03 -1.298462E-03 -7.453069E-19 -1.830053E-01  0.000000E+00
  8.691700E-01  2.380547E-02  5.000000E-01  8.779478E-01  2.397046E-02  0.000000E+00  8.758382E-03 -1.284223E-03  1.621801E-19 -1.933374E-01  0.000000E+00
  8.691700E-01  2.380547E-02  5.000000E-01  8.779478E-01  2.397046E-02  0.000000E+00  8.758382E-03 -1.284223E-03  1.621801E-19 -1.933374E-01  0.000000E+00
  8.576080E-01  2.547711E-02  5.000000E-01  8.662691E-01  2.565898E-02  0.000000E+00  8.877159E-03 -1.268608E-03  5.839024E-21 -2.026583E-01  0.000000E+00
  8.454380E-01  2.719624E-02  5.000000E-01  8.539762E-01  2.739547E-02  0.000000E+00  8.956911E-03 -1.254803E-03 -9.293437E-19 -2.111734E-01  0.000000E+00
  8.326580E-01  2.897213E-02  5.000000E-01  8.410671E-01  2.918930E-02  0.000000E+00  9.009739E-03 -1.246657E-03 -1.617834E-18 -2.194147E-01  0.000000E+00
  8.192630E-01  3.081795E-02  5.000000E-01  8.275368E-01  3.105376E-02  0.000000E+00  9.053849E-03 -1.248624E-03 -1.336247E-18 -2.287214E-01  0.000000E+00
  8.052550E-01  3.275097E-02  5.000000E-01  8.133874E-01  3.300630E-02  0.000000E+00  9.114781E-03 -1.264103E-03 -4.828470E-19 -2.410940E-01  0.000000E+00
  7.906370E-01  3.478762E-02  5.000000E-01  7.986217E-01  3.506351E-02  0.000000E+00  9.223173E-03 -1.291326E-03 -3.059154E-19 -2.576863E-01  0.000000E+00
  7.754120E-01  3.692934E-02  5.000000E-01  7.832430E-01  3.722687E-02  0.000000E+00  9.404405E-03 -1.323711E-03  1.700529E-19 -2.781246E-01  0.000000E+00
  7.595880E-01  3.915789E-02  5.000000E-01  7.672592E-01  3.947792E-02  0.000000E+00  9.667458E-03 -1.355502E-03  5.491181E-19 -3.017785E-01  0.000000E+00
  7.431760E-01  4.144879E-02  5.000000E-01  7.506814E-01  4.179196E-02  0.000000E+00  1.000462E-02 -1.382698E-03  6.574286E-19 -3.280669E-01  0.000000E+00
  7.261880E-01  4.377363E-02  5.000000E-01  7.335218E-01  4.414028E-02  0.000000E+00  1.039677E-02 -1.400543E-03  9.100013E-19 -3.556818E-01  0.000000E+00
  7.086430E-01  4.610112E-02  5.000000E-01  7.157997E-01  4.649127E-02  0.000000E+00  1.081725E-02 -1.404525E-03 -8.745175E-19 -3.826301E-01  0.000000E+00
  6.905640E-01  4.840048E-02  5.000000E-01  6.975381E-01  4.881385E-02  0.000000E+00  1.123686E-02 -1.393899E-03 -1.954982E-18 -4.074166E-01  0.000000E+00
  6.719770E-01  5.065043E-02  5.000000E-01  6.787634E-01  5.108652E-02  0.000000E+00  1.163238E-02 -1.375067E-03 -6.472834E-19 -4.308054E-01  0.000000E+00
  6.529150E-01  5.285086E-02  5.000000E-01  6.595089E-01  5.330918E-02  0.000000E+00  1.199989E-02 -1.355248E-03  4.530512E-20 -4.548494E-01  0.000000E+00
  6.334180E-01  5.500526E-02  5.000000E-01  6.398150E-01  5.548533E-02  0.000000E+00  1.235721E-02 -1.333414E-03 -2.036260E-19 -4.805849E-01  0.000000E+00
  6.135280E-01  5.710107E-02  5.000000E-01  6.197241E-01  5.760231E-02  0.000000E+00  1.272769E-02 -1.305193E-03 -7.958547E-19 -5.085298E-01  0.000000E+00
  5.932910E-01  5.912000E-02  5.000000E-01  5.992827E-01  5.964163E-02  0.000000E+00  1.312786E-02 -1.266980E-03 -1.230408E-18 -5.385918E-01  0.000000E+00
  5.727570E-01  6.103663E-02  5.000000E-01  5.785413E-01  6.157762E-02  0.000000E+00  1.356295E-02 -1.213301E-03 -1.845388E-18 -5.687251E-01  0.000000E+00
  5.519810E-01  6.281835E-02  5.000000E-01  5.575555E-01  6.337733E-02  0.000000E+00  1.402219E-02 -1.139376E-03 -1.917855E-18 -5.961282E-01  0.000000E+00
  5.310180E-01  6.443155E-02  5.000000E-01  5.363808E-01  6.500682E-02  0.000000E+00  1.447967E-02 -1.051191E-03 -1.135665E-18 -6.211996E-01  0.000000E+00
  5.099250E-01  6.587265E-02  5.000000E-01  5.150748E-01  6.646248E-02  0.000000E+00  1.491651E-02 -9.614057E-04 -3.712441E-19 -6.475119E-01  0.000000E+00
  4.887640E-01  6.715555E-02  5.000000E-01  4.937001E-01  6.775834E-02  0.000000E+00  1.534476E-02 -8.671632E-04 -1.778676E-19 -6.760013E-01  0.000000E+00
  4.675910E-01  6.826781E-02  5.000000E-01  4.723133E-01  6.888182E-02  0.000000E+00  1.578891E-02 -7.534551E-04  1.745972E-20 -7.041211E-01  0.000000E+00
  7.860720E-05 -4.429961E-04  5.000000E-01  7.940615E-05 -5.228978E-04  0.000000E+00 -1.120419E-02  3.620929E-02 -7.552933E-16  7.933418E-01  0.000000E+00
  3.989240E-04 -1.047767E-03  5.000000E-01  4.029579E-04 -1.133777E-03  0.000000E+00 -1.020301E-02  1.599893E-02 -9.541078E-16  1.080957E+00  0.000000E+00
  1.196920E-03 -1.780587E-03  5.000000E-01  1.209013E-03 -1.873998E-03  0.000000E+00 -2.676627E-03  2.804080E-03 -9.433345E-16  1.079417E+00  0.000000E+00
  2.563580E-03 -2.549125E-03  5.000000E-01  2.589475E-03 -2.650296E-03  0.000000E+00  4.652967E-03 -2.019839E-03 -5.173741E-16  9.356130E-01  0.000000E+00
  4.492740E-03 -3.312488E-03  5.000000E-01  4.538118E-03 -3.421369E-03  0.000000E+00  8.999628E-03 -3.106828E-03 -8.030819E-18  8.112247E-01  0.000000E+00
  6.952190E-03 -4.067370E-03  5.000000E-01  7.022406E-03 -4.183874E-03  0.000000E+00  1.118246E-02 -3.151210E-03  2.695670E-16  7.248327E-01  0.000000E+00
  9.910730E-03 -4.835427E-03  5.000000E-01  1.001082E-02 -4.959688E-03  0.000000E+00  1.231326E-02 -3.035985E-03  2.900913E-16  6.567475E-01  0.000000E+00
  1.334950E-02 -5.642080E-03  5.000000E-01  1.348432E-02 -5.774488E-03  0.000000E+00  1.298174E-02 -2.874125E-03  1.809361E-16  5.898886E-01  0.000000E+00
  1.728780E-02 -6.465923E-03  5.000000E-01  1.746240E-02 -6.606651E-03  0.000000E+00  1.338031E-02 -2.581617E-03  6.538117E-17  5.176956E-01  0.000000E+00
  2.175590E-02 -7.257050E-03  5.000000E-01  2.197562E-02 -7.405767E-03  0.000000E+00  1.356283E-02 -2.176160E-03  1.591178E-18  4.504567E-01  0.000000E+00
  2.676920E-02 -7.977261E-03  5.000000E-01  2.703955E-02 -8.133252E-03  0.000000E+00  1.359672E-02 -1.757955E-03 -1.674673E-17  3.996212E-01  0.000000E+00
  3.232800E-02 -8.614848E-03  5.000000E-01  3.265449E-02 -8.777278E-03  0.000000E+00  1.355452E-02 -1.400612E-03 -1.678105E-17  3.661190E-01  0.000000E+00
  3.842930E-02 -9.175704E-03  5.000000E-01  3.881741E-02 -9.343798E-03  0.000000E+00  1.347928E-02 -1.125272E-03 -1.262618E-17  3.437799E-01  0.000000E+00
  4.507220E-02 -9.674062E-03  5.000000E-01  4.552739E-02 -9.847189E-03  0.000000E+00  1.340330E-02 -9.387530E-04 -6.930347E-18  3.279731E-01  0.000000E+00
  5.225680E-02 -1.014077E-02  5.000000E-01  5.278455E-02 -1.031861E-02  0.000000E+00  1.336284E-02 -8.387788E-04 -1.662386E-18  3.160752E-01  0.000000E+00
  5.998640E-02 -1.060936E-02  5.000000E-01  6.059221E-02 -1.079193E-02  0.000000E+00  1.336551E-02 -7.875937E-04  1.191892E-18  3.028173E-01  0.000000E+00
  6.827110E-02 -1.108458E-02  5.000000E-01  6.896058E-02 -1.127196E-02  0.000000E+00  1.338654E-02 -7.432042E-04  1.714498E-18  2.852882E-01  0.000000E+00
  7.712280E-02 -1.155967E-02  5.000000E-01  7.790168E-02 -1.175184E-02  0.000000E+00  1.340384E-02 -6.947794E-04  1.294863E-18  2.663030E-01  0.000000E+00
  8.655260E-02 -1.203054E-02  5.000000E-01  8.742671E-02 -1.222746E-02  0.000000E+00  1.340477E-02 -6.415863E-04  9.273725E-19  2.483477E-01  0.000000E+00
  9.657140E-02 -1.248943E-02  5.000000E-01  9.754669E-02 -1.269099E-02  0.000000E+00  1.337421E-02 -5.744197E-04  5.726469E-19  2.309798E-01  0.000000E+00
  1.071900E-01 -1.291553E-02  5.000000E-01  1.082725E-01 -1.312139E-02  0.000000E+00  1.330448E-02 -4.914136E-04  3.556085E-19  2.144853E-01  0.000000E+00
  1.184180E-01 -1.329373E-02  5.000000E-01  1.196139E-01 -1.350342E-02  0.000000E+00  1.321179E-02 -4.091484E-04  2.085678E-20  2.010948E-01  0.000000E+00
  1.302610E-01 -1.362754E-02  5.000000E-01  1.315765E-01 -1.384059E-02  0.000000E+00  1.312341E-02 -3.434428E-04 -2.573584E-19  1.911140E-01  0.000000E+00
  1.427230E-01 -1.392829E-02  5.000000E-01  1.441644E-01 -1.414438E-02  0.000000E+00  1.305613E-02 -2.983432E-04 -3.571707E-19  1.826636E-01  0.000000E+00
  1.427230E-01 -1.392829E-02  5.000000E-01  1.441644E-01 -1.414438E-02  0.000000E+00  1.305613E-02 -2.983432E-04 -3.571707E-19  1.826636E-01  0.000000E+00
  1.558070E-01 -1.421068E-02  5.000000E-01  1.573805E-01 -1.442962E-02  0.000000E+00  1.300524E-02 -2.652221E-04 -2.765320E-19  1.735109E-01  0.000000E+00
  1.695140E-01 -1.447447E-02  5.000000E-01  1.712259E-01 -1.469607E-02  0.000000E+00  1.294770E-02 -2.277080E-04  7.069899E-20  1.624486E-01  0.000000E+00
  1.838420E-01 -1.470284E-02  5.000000E-01  1.856986E-01 -1.492675E-02  0.000000E+00  1.285992E-02 -1.741291E-04 -3.461244E-20  1.504768E-01  0.000000E+00
  1.987870E-01 -1.486914E-02  5.000000E-01  2.007946E-01 -1.509473E-02  0.000000E+00  1.273346E-02 -1.023707E-04  2.725470E-20  1.394755E-01  0.000000E+00
  2.143420E-01 -1.494543E-02  5.000000E-01  2.165067E-01 -1.517180E-02  0.000000E+00  1.258490E-02 -2.581458E-05  2.472471E-19  1.314977E-01  0.000000E+00
  2.304940E-01 -1.493087E-02  5.000000E-01  2.328218E-01 -1.515708E-02  0.000000E+00  1.245166E-02  3.084857E-05  3.636988E-19  1.279185E-01  0.000000E+00
  2.472290E-01 -1.486190E-02  5.000000E-01  2.497258E-01 -1.508742E-02  0.000000E+00  1.236432E-02  5.666177E-05  5.580732E-19  1.268169E-01  0.000000E+00
  2.645310E-01 -1.477532E-02  5.000000E-01  2.672025E-01 -1.499997E-02  0.000000E+00  1.232132E-02  6.807132E-05  3.035152E-19  1.236080E-01  0.000000E+00
  2.823750E-01 -1.466908E-02  5.000000E-01  2.852267E-01 -1.489265E-02  0.000000E+00  1.229547E-02  9.090295E-05 -4.590571E-20  1.158828E-01  0.000000E+00
  3.007320E-01 -1.450744E-02  5.000000E-01  3.037691E-01 -1.472938E-02  0.000000E+00  1.225954E-02  1.359768E-04 -2.464309E-21  1.058932E-01  0.000000E+00
  3.195690E-01 -1.425464E-02  5.000000E-01  3.227964E-01 -1.447403E-02  0.000000E+00  1.219817E-02  1.978953E-04 -1.337514E-19  9.729817E-02  0.000000E+00
  3.388440E-01 -1.388679E-02  5.000000E-01  3.422660E-01 -1.410247E-02  0.000000E+00  1.210310E-02  2.662597E-04 -4.203094E-19  9.189836E-02  0.000000E+00
  3.585140E-01 -1.339595E-02  5.000000E-01  3.621347E-01 -1.360667E-02  0.000000E+00  1.196443E-02  3.344592E-04 -7.449232E-20  8.936456E-02  0.000000E+00
  3.785290E-01 -1.277606E-02  5.000000E-01  3.823518E-01 -1.298051E-02  0.000000E+00  1.176826E-02  4.013666E-04 -1.046742E-19  8.868836E-02  0.000000E+00
  3.988350E-01 -1.201874E-02  5.000000E-01  4.028629E-01 -1.221555E-02  0.000000E+00  1.150629E-02  4.667069E-04 -2.934348E-19  9.004355E-02  0.000000E+00
  4.193750E-01 -1.111688E-02  5.000000E-01  4.236103E-01 -1.130458E-02  0.000000E+00  1.118508E-02  5.334770E-04  8.652404E-20  9.383210E-02  0.000000E+00
  4.400850E-01 -1.004876E-02  5.000000E-01  4.445295E-01 -1.022568E-02  0.000000E+00  1.083545E-02  6.003212E-04  1.114456E-19  1.005630E-01  0.000000E+00
  4.609060E-01 -8.812363E-03  5.000000E-01  4.655607E-01 -8.976788E-03  0.000000E+00  1.051721E-02  6.464439E-04 -3.782161E-19  1.119584E-01  0.000000E+00
  4.818030E-01 -7.480359E-03  5.000000E-01  4.866688E-01 -7.631332E-03  0.000000E+00  1.029450E-02  6.431102E-04 -4.409347E-19  1.285205E-01  0.000000E+00
  5.027520E-01 -6.197106E-03  5.000000E-01  5.078293E-01 -6.335119E-03  0.000000E+00  1.018055E-02  5.953948E-04 -2.699297E-19  1.444942E-01  0.000000E+00
  5.237130E-01 -5.033782E-03  5.000000E-01  5.290020E-01 -5.160046E-03  0.000000E+00  1.010976E-02  5.549669E-04  1.003086E-19  1.506884E-01  0.000000E+00
  5.446170E-01 -3.904844E-03  5.000000E-01  5.501171E-01 -4.019707E-03  0.000000E+00  9.987472E-03  5.661785E-04  1.548959E-19  1.464527E-01  0.000000E+00
  5.653940E-01 -2.668963E-03  5.000000E-01  5.711040E-01 -2.771345E-03  0.000000E+00  9.768785E-03  6.152405E-04 -1.834746E-20  1.433972E-01  0.000000E+00
  4.675910E-01  6.826781E-02  5.000000E-01  4.723133E-01  6.888182E-02  0.000000E+00  1.578891E-02 -7.534551E-04  1.745972E-20 -7.041211E-01  0.000000E+00
  4.464640E-01  6.917781E-02  5.000000E-01  4.509729E-01  6.980101E-02  0.000000E+00  1.625304E-02 -6.177983E-04  7.779562E-20 -7.306842E-01  0.000000E+00
  4.254410E-01  6.987341E-02  5.000000E-01  4.297376E-01  7.050364E-02  0.000000E+00  1.672609E-02 -4.668531E-04 -2.344116E-19 -7.563210E-01  0.000000E+00
  4.045840E-01  7.035031E-02  5.000000E-01  4.086699E-01  7.098535E-02  0.000000E+00  1.719918E-02 -3.028214E-04 -4.191155E-19 -7.815210E-01  0.000000E+00
  3.839530E-01  7.060764E-02  5.000000E-01  3.878306E-01  7.124528E-02  0.000000E+00  1.766951E-02 -1.232788E-04 -3.803149E-19 -8.060973E-01  0.000000E+00
  3.636060E-01  7.064061E-02  5.000000E-01  3.672781E-01  7.127858E-02  0.000000E+00  1.813727E-02  7.537262E-05 -3.664295E-19 -8.290575E-01  0.000000E+00
  3.435960E-01  7.044514E-02  5.000000E-01  3.470660E-01  7.108114E-02  0.000000E+00  1.859941E-02  2.943479E-04 -4.855736E-19 -8.494003E-01  0.000000E+00
  3.239710E-01  7.001881E-02  5.000000E-01  3.272428E-01  7.065051E-02  0.000000E+00  1.904709E-02  5.291140E-04 -1.244543E-19 -8.674709E-01  0.000000E+00
  3.047740E-01  6.937138E-02  5.000000E-01  3.078519E-01  6.999654E-02  0.000000E+00  1.947431E-02  7.726324E-04 -1.600921E-19 -8.846905E-01  0.000000E+00
  2.860450E-01  6.851897E-02  5.000000E-01  2.889338E-01  6.913553E-02  0.000000E+00  1.988979E-02  1.028883E-03 -7.351535E-19 -9.008914E-01  0.000000E+00
  2.678190E-01  6.746547E-02  5.000000E-01  2.705237E-01  6.807138E-02  0.000000E+00  2.030394E-02  1.305177E-03 -1.311835E-18 -9.151434E-01  0.000000E+00
  2.501300E-01  6.621614E-02  5.000000E-01  2.526561E-01  6.680943E-02  0.000000E+00  2.071601E-02  1.600429E-03 -1.126367E-18 -9.278528E-01  0.000000E+00
  2.330040E-01  6.478144E-02  5.000000E-01  2.353571E-01  6.536025E-02  0.000000E+00  2.112219E-02  1.911894E-03 -2.897122E-19 -9.399332E-01  0.000000E+00
  2.164660E-01  6.317434E-02  5.000000E-01  2.186521E-01  6.373691E-02  0.000000E+00  2.152397E-02  2.239866E-03 -3.022161E-19 -9.512799E-01  0.000000E+00
  2.005340E-01  6.140877E-02  5.000000E-01  2.025592E-01  6.195352E-02  0.000000E+00  2.193148E-02  2.594926E-03 -3.989965E-19 -9.589564E-01  0.000000E+00
  1.852230E-01  5.948574E-02  5.000000E-01  1.870936E-01  6.001107E-02  0.000000E+00  2.234355E-02  2.982333E-03 -3.165260E-19 -9.605482E-01  0.000000E+00
  1.705440E-01  5.741368E-02  5.000000E-01  1.722663E-01  5.791808E-02  0.000000E+00  2.273945E-02  3.384881E-03 -1.309405E-18 -9.595558E-01  0.000000E+00
  1.565000E-01  5.521589E-02  5.000000E-01  1.580805E-01  5.569809E-02  0.000000E+00  2.311438E-02  3.787368E-03 -1.464820E-19 -9.634988E-01  0.000000E+00
  1.430940E-01  5.291980E-02  5.000000E-01  1.445391E-01  5.337882E-02  0.000000E+00  2.350954E-02  4.212956E-03  1.774190E-18 -9.754563E-01  0.000000E+00
  1.303270E-01  5.053153E-02  5.000000E-01  1.316432E-01  5.096642E-02  0.000000E+00  2.398468E-02  4.730008E-03  1.163187E-18 -9.864702E-01  0.000000E+00
  1.182110E-01  4.802299E-02  5.000000E-01  1.194048E-01  4.843255E-02  0.000000E+00  2.452454E-02  5.375297E-03 -1.825162E-19 -9.820217E-01  0.000000E+00
  1.067560E-01  4.537915E-02  5.000000E-01  1.078341E-01  4.576201E-02  0.000000E+00  2.500291E-02  6.104450E-03 -1.121356E-18 -9.533354E-01  0.000000E+00
  9.596750E-02  4.260500E-02  5.000000E-01  9.693669E-02  4.295985E-02  0.000000E+00  2.524517E-02  6.779744E-03 -9.259825E-19 -9.084023E-01  0.000000E+00
  8.582800E-02  3.976443E-02  5.000000E-01  8.669479E-02  4.009059E-02  0.000000E+00  2.518487E-02  7.278799E-03 -6.578875E-19 -8.655116E-01  0.000000E+00
  8.582800E-02  3.976443E-02  5.000000E-01  8.669479E-02  4.009059E-02  0.000000E+00  2.518487E-02  7.278799E-03 -6.578875E-19 -8.655116E-01  0.000000E+00
  7.631050E-02  3.692722E-02  5.000000E-01  7.708117E-02  3.722472E-02  0.000000E+00  2.495180E-02  7.671606E-03 -1.048225E-18 -8.286402E-01  0.000000E+00
  6.740780E-02  3.410650E-02  5.000000E-01  6.808856E-02  3.437551E-02  0.000000E+00  2.470546E-02  8.088740E-03 -1.847050E-18 -7.910076E-01  0.000000E+00
  5.911740E-02  3.130427E-02  5.000000E-01  5.971444E-02  3.154498E-02  0.000000E+00  2.449792E-02  8.553431E-03 -3.929261E-19 -7.498592E-01  0.000000E+00
  5.143150E-02  2.853475E-02  5.000000E-01  5.195092E-02  2.874749E-02  0.000000E+00  2.430906E-02  9.034186E-03  7.472161E-18 -7.059094E-01  0.000000E+00
  4.433770E-02  2.581783E-02  5.000000E-01  4.478548E-02  2.600314E-02  0.000000E+00  2.410281E-02  9.507294E-03  2.108367E-17 -6.616981E-01  0.000000E+00
  3.782240E-02  2.317257E-02  5.000000E-01  3.820438E-02  2.333116E-02  0.000000E+00  2.386010E-02  9.975073E-03  3.806111E-17 -6.209961E-01  0.000000E+00
  3.187460E-02  2.061262E-02  5.000000E-01  3.219651E-02  2.074536E-02  0.000000E+00  2.359331E-02  1.046329E-02  5.456739E-17 -5.867627E-01  0.000000E+00
  2.648400E-02  1.814971E-02  5.000000E-01  2.675147E-02  1.825758E-02  0.000000E+00  2.333582E-02  1.103863E-02  5.982364E-17 -5.529842E-01  0.000000E+00
  2.164990E-02  1.578540E-02  5.000000E-01  2.186855E-02  1.586939E-02  0.000000E+00  2.305925E-02  1.175480E-02  1.130368E-17 -5.027757E-01  0.000000E+00
  1.737670E-02  1.351977E-02  5.000000E-01  1.755219E-02  1.358088E-02  0.000000E+00  2.260724E-02  1.247038E-02 -1.812510E-16 -4.302625E-01  0.000000E+00
  1.364080E-02  1.137727E-02  5.000000E-01  1.377856E-02  1.141675E-02  0.000000E+00  2.183826E-02  1.290539E-02 -5.254885E-16 -3.545768E-01  0.000000E+00
  1.039090E-02  9.395986E-03  5.000000E-01  1.049584E-02  9.415449E-03  0.000000E+00  2.082197E-02  1.301053E-02 -7.561131E-16 -3.002458E-01  0.000000E+00
  7.586340E-03  7.597730E-03  5.000000E-01  7.662960E-03  7.599033E-03  0.000000E+00  1.981928E-02  1.314758E-02 -4.979322E-16 -2.724061E-01  0.000000E+00
  5.226210E-03  5.977382E-03  5.000000E-01  5.278995E-03  5.962320E-03  0.000000E+00  1.913540E-02  1.386170E-02  1.610416E-16 -2.622738E-01  0.000000E+00
  3.324300E-03  4.525118E-03  5.000000E-01  3.357878E-03  4.495390E-03  0.000000E+00  1.904893E-02  1.575027E-02  5.425436E-16 -2.615320E-01  0.000000E+00
  1.883580E-03  3.243177E-03  5.000000E-01  1.902608E-03  3.200503E-03  0.000000E+00  1.958909E-02  1.966273E-02  2.514080E-16 -2.465013E-01  0.000000E+00
  8.951490E-04  2.144161E-03  5.000000E-01  9.041943E-04  2.090388E-03  0.000000E+00  1.976023E-02  2.632292E-02 -2.807777E-16 -1.663578E-01  0.000000E+00
  3.201820E-04  1.252693E-03  5.000000E-01  3.234206E-04  1.189916E-03  0.000000E+00  1.719025E-02  3.449501E-02 -7.792456E-16  1.955717E-02  0.000000E+00
  6.852390E-05  5.989182E-04  5.000000E-01  6.922101E-05  5.295390E-04  0.000000E+00  1.088727E-02  3.989056E-02 -1.628611E-15  2.441160E-01  0.000000E+00
  4.217600E-06  2.052505E-04  5.000000E-01  4.265277E-06  1.318955E-04  0.000000E+00  4.097714E-03  4.141464E-02 -2.532060E-15  3.232273E-01  0.000000E+00
 -5.032520E-09  7.467368E-05  5.000000E-01  0.000000E+00  0.000000E+00  0.000000E+00 -6.891360E-04  4.738731E-02 -2.289072E-15  2.797136E-01  0.000000E+00
  5.154440E-06 -5.627441E-05  5.000000E-01  5.211579E-06 -1.322706E-04  0.000000E+00 -5.886089E-03  5.009646E-02 -1.200153E-15  4.166332E-01  0.000000E+00