 Title = "ADflow Slice Data"
Variables =  "CoordinateX"  "CoordinateY"  "CoordinateZ"  "XoC"  "YoC"  "ZoC" "VelocityX" "VelocityY" "VelocityZ" "CoefPressure" "Mach" 
Zone T= "Slice_0001 None Absolute Regular z = 0.50000000"
 Nodes =          192  Elements=          184  ZONETYPE=FELINESEG
 DATAPACKING=POINT
  5.653940E-01 -4.501997E-03  5.000000E-01  5.711040E-01 -4.616933E-03  0.000000E+00  9.093759E-03  1.512264E-03  3.248416E-18  1.615090E-02  0.000000E+00
  5.859770E-01 -5.692839E-04  5.000000E-01  5.918949E-01 -6.445022E-04  0.000000E+00  7.038932E-03  1.410776E-03 -3.895357E-19  1.073109E-01  0.000000E+00
  6.063060E-01  3.753553E-03  5.000000E-01  6.124292E-01  3.721992E-03  0.000000E+00  5.379450E-03  1.145710E-03 -1.582986E-18  2.126068E-01  0.000000E+00
  6.263240E-01  8.002391E-03  5.000000E-01  6.326494E-01  8.013740E-03  0.000000E+00  4.244687E-03  8.608224E-04 -8.839320E-20  3.003600E-01  0.000000E+00
  6.459860E-01  1.174914E-02  5.000000E-01  6.525100E-01  1.179832E-02  0.000000E+00  3.625744E-03  6.225578E-04  2.602622E-19  3.623864E-01  0.000000E+00
  6.652460E-01  1.465495E-02  5.000000E-01  6.719645E-01  1.473349E-02  0.000000E+00  3.450096E-03  4.383158E-04 -5.928433E-19  4.012263E-01  0.000000E+00
  6.840650E-01  1.659551E-02  5.000000E-01  6.909735E-01  1.669364E-02  0.000000E+00  3.609375E-03  2.941671E-04 -1.519170E-18  4.181469E-01  0.000000E+00
  7.024070E-01  1.772112E-02  5.000000E-01  7.095008E-01  1.783062E-02  0.000000E+00  3.988757E-03  1.722053E-04 -2.093954E-19  4.182672E-01  0.000000E+00
  7.202400E-01  1.820652E-02  5.000000E-01  7.275139E-01  1.832093E-02  0.000000E+00  4.498537E-03  5.684428E-05  1.220715E-19  4.103959E-01  0.000000E+00
  7.375350E-01  1.820493E-02  5.000000E-01  7.449835E-01  1.831931E-02  0.000000E+00  5.077228E-03 -5.865296E-05 -5.799874E-19  3.987542E-01  0.000000E+00
  7.542690E-01  1.784140E-02  5.000000E-01  7.618865E-01  1.795212E-02  0.000000E+00  5.683439E-03 -1.753674E-04 -4.672425E-19  3.842665E-01  0.000000E+00
  7.704220E-01  1.721051E-02  5.000000E-01  7.782027E-01  1.731485E-02  0.000000E+00  6.291329E-03 -2.928541E-04  6.370092E-19  3.675699E-01  0.000000E+00
  7.859770E-01  1.638085E-02  5.000000E-01  7.939148E-01  1.647682E-02  0.000000E+00  6.885835E-03 -4.088326E-04  6.847841E-19  3.492751E-01  0.000000E+00
  8.009220E-01  1.541057E-02  5.000000E-01  8.090107E-01  1.549674E-02  0.000000E+00  7.455576E-03 -5.171143E-04  3.773333E-20  3.294387E-01  0.000000E+00
  8.152480E-01  1.435754E-02  5.000000E-01  8.234814E-01  1.443307E-02  0.000000E+00  7.988336E-03 -6.091004E-04  6.408077E-19  3.082057E-01  0.000000E+00
  8.289490E-01  1.327740E-02  5.000000E-01  8.373207E-01  1.334202E-02  0.000000E+00  8.471665E-03 -6.786113E-04  4.355217E-19  2.865171E-01  0.000000E+00
  8.420260E-01  1.221435E-02  5.000000E-01  8.505298E-01  1.226823E-02  0.000000E+00  8.895469E-03 -7.248118E-04  7.359055E-19  2.657474E-01  0.000000E+00
  8.544790E-01  1.119760E-02  5.000000E-01  8.631086E-01  1.124122E-02  0.000000E+00  9.252406E-03 -7.496098E-04  8.630628E-19  2.468173E-01  0.000000E+00
  8.663160E-01  1.024582E-02  5.000000E-01  8.750651E-01  1.027982E-02  0.000000E+00  9.536711E-03 -7.550229E-04  5.361083E-19  2.300511E-01  0.000000E+00
  8.775420E-01  9.370580E-03  5.000000E-01  8.864045E-01  9.395747E-03  0.000000E+00  9.744261E-03 -7.428359E-04  6.099842E-19  2.156133E-01  0.000000E+00
  8.881660E-01  8.578702E-03  5.000000E-01  8.971358E-01  8.595871E-03  0.000000E+00  9.874231E-03 -7.150182E-04  7.485630E-19  2.036508E-01  0.000000E+00
  8.981970E-01  7.873384E-03  5.000000E-01  9.072681E-01  7.883430E-03  0.000000E+00  9.932436E-03 -6.771083E-04  5.372229E-19  1.944712E-01  0.000000E+00
  9.076460E-01  7.249671E-03  5.000000E-01  9.168125E-01  7.253418E-03  0.000000E+00  9.934643E-03 -6.398032E-04  3.976583E-19  1.885556E-01  0.000000E+00
  9.165220E-01  6.692554E-03  5.000000E-01  9.257782E-01  6.690675E-03  0.000000E+00  9.902506E-03 -6.115675E-04 -2.239087E-21  1.854625E-01  0.000000E+00
  9.165220E-01  6.692554E-03  5.000000E-01  9.257782E-01  6.690675E-03  0.000000E+00  9.902506E-03 -6.115675E-04 -2.239087E-21  1.854625E-01  0.000000E+00
  9.248360E-01  6.187369E-03  5.000000E-01  9.341761E-01  6.180387E-03  0.000000E+00  9.855392E-03 -5.944464E-04 -6.373062E-19  1.838536E-01  0.000000E+00
  9.325990E-01  5.722468E-03  5.000000E-01  9.420175E-01  5.710792E-03  0.000000E+00  9.807967E-03 -5.882542E-04 -1.262114E-19  1.828326E-01  0.000000E+00
  9.398210E-01  5.288619E-03  5.000000E-01  9.493125E-01  5.272561E-03  0.000000E+00  9.771389E-03 -5.925303E-04  3.454435E-19  1.820134E-01  0.000000E+00
  9.465130E-01  4.879002E-03  5.000000E-01  9.560720E-01  4.858807E-03  0.000000E+00  9.753925E-03 -6.065259E-04  4.413339E-19  1.811022E-01  0.000000E+00
  9.526870E-01  4.489048E-03  5.000000E-01  9.623084E-01  4.464915E-03  0.000000E+00  9.761062E-03 -6.293777E-04  7.178863E-19  1.798262E-01  0.000000E+00
  9.583540E-01  4.116174E-03  5.000000E-01  9.680326E-01  4.088275E-03  0.000000E+00  9.795898E-03 -6.601776E-04  6.292425E-19  1.779772E-01  0.000000E+00
  9.635240E-01  3.759511E-03  5.000000E-01  9.732548E-01  3.728010E-03  0.000000E+00  9.859807E-03 -6.978242E-04  2.260216E-20  1.753925E-01  0.000000E+00
  9.682080E-01  3.419672E-03  5.000000E-01  9.779862E-01  3.384739E-03  0.000000E+00  9.954033E-03 -7.414607E-04 -8.688088E-20  1.720007E-01  0.000000E+00
  9.724140E-01  3.098312E-03  5.000000E-01  9.822346E-01  3.060134E-03  0.000000E+00  1.008197E-02 -7.903772E-04  6.591662E-19  1.677943E-01  0.000000E+00
  9.761510E-01  2.798001E-03  5.000000E-01  9.860094E-01  2.756790E-03  0.000000E+00  1.024967E-02 -8.435946E-04  6.793692E-19  1.627486E-01  0.000000E+00
  9.794290E-01  2.521917E-03  5.000000E-01  9.893205E-01  2.477918E-03  0.000000E+00  1.046070E-02 -9.005832E-04  8.780627E-19  1.568819E-01  0.000000E+00
  9.822540E-01  2.273430E-03  5.000000E-01  9.921740E-01  2.226920E-03  0.000000E+00  1.070213E-02 -9.604263E-04  1.367901E-18  1.504168E-01  0.000000E+00
  9.846330E-01  2.056020E-03  5.000000E-01  9.945770E-01  2.007315E-03  0.000000E+00  1.093223E-02 -1.017198E-03  2.531565E-18  1.445433E-01  0.000000E+00
  9.865710E-01  1.872954E-03  5.000000E-01  9.965346E-01  1.822400E-03  0.000000E+00  1.104890E-02 -1.049363E-03  3.186273E-18  1.382165E-01  0.000000E+00
  9.880740E-01  1.727253E-03  5.000000E-01  9.980528E-01  1.675228E-03  0.000000E+00  1.087530E-02 -1.066327E-03 -2.598671E-18  1.248028E-01  0.000000E+00
  9.891450E-01  1.621327E-03  5.000000E-01  9.991346E-01  1.568233E-03  0.000000E+00  1.107562E-02 -1.183979E-03 -2.716456E-17  1.289144E-01  0.000000E+00
  9.897860E-01  1.556986E-03  5.000000E-01  9.997821E-01  1.503242E-03  0.000000E+00  1.446471E-02 -1.001059E-03 -7.568449E-17  1.799449E-01  0.000000E+00
  9.900000E-01  1.535444E-03  5.000000E-01  9.999982E-01  1.481481E-03  0.000000E+00  1.017470E-02 -3.398864E-03 -7.710097E-17 -4.876994E-02  0.000000E+00
  9.900000E-01  1.614154E-03  5.000000E-01  9.999982E-01  1.560987E-03  0.000000E+00  1.023500E-03 -1.381115E-02  1.390210E-17 -1.803078E-01  0.000000E+00
  9.900000E-01  1.692874E-03  5.000000E-01  9.999982E-01  1.640502E-03  0.000000E+00 -5.097641E-04 -1.278825E-02  9.861231E-17 -8.616935E-03  0.000000E+00
  9.900000E-01  1.771594E-03  5.000000E-01  9.999982E-01  1.720017E-03  0.000000E+00 -3.267487E-04  3.721604E-03  1.102370E-16 -1.204251E-02  0.000000E+00
  9.900000E-01  1.850305E-03  5.000000E-01  9.999982E-01  1.799522E-03  0.000000E+00  7.585064E-04  4.769080E-03  1.356920E-16 -1.374900E-01  0.000000E+00
  9.900000E-01  1.929025E-03  5.000000E-01  9.999982E-01  1.879038E-03  0.000000E+00  6.378643E-03 -2.194784E-03  1.768449E-16 -3.670815E-02  0.000000E+00
  9.900000E-01  1.929025E-03  5.000000E-01  9.999982E-01  1.879038E-03  0.000000E+00  6.378643E-03 -2.194784E-03  1.768449E-16 -3.670815E-02  0.000000E+00
  9.897900E-01  1.960459E-03  5.000000E-01  9.997861E-01  1.910789E-03  0.000000E+00  8.409053E-03 -1.617864E-03  1.285678E-16  1.182882E-01  0.000000E+00
  9.891580E-01  2.054733E-03  5.000000E-01  9.991477E-01  2.006015E-03  0.000000E+00  5.450963E-03 -7.497802E-04  4.411195E-17  7.394355E-02  0.000000E+00
  9.881040E-01  2.212118E-03  5.000000E-01  9.980831E-01  2.164990E-03  0.000000E+00  4.795556E-03 -7.141272E-04  4.636766E-18  6.467329E-02  0.000000E+00
  9.866260E-01  2.432940E-03  5.000000E-01  9.965902E-01  2.388042E-03  0.000000E+00  4.669600E-03 -7.040223E-04 -5.055556E-18  6.913823E-02  0.000000E+00
  9.847200E-01  2.717570E-03  5.000000E-01  9.946649E-01  2.675547E-03  0.000000E+00  4.570710E-03 -6.819224E-04 -4.012678E-18  6.675642E-02  0.000000E+00
  9.823820E-01  3.066522E-03  5.000000E-01  9.923033E-01  3.028023E-03  0.000000E+00  4.551090E-03 -6.785202E-04 -1.663385E-18  6.210304E-02  0.000000E+00
  9.796080E-01  3.480416E-03  5.000000E-01  9.895013E-01  3.446096E-03  0.000000E+00  4.608594E-03 -6.872837E-04 -4.931893E-19  5.731006E-02  0.000000E+00
  9.763910E-01  3.959818E-03  5.000000E-01  9.862518E-01  3.930340E-03  0.000000E+00  4.713351E-03 -7.022122E-04  3.088501E-19  5.179718E-02  0.000000E+00
  9.727270E-01  4.505443E-03  5.000000E-01  9.825508E-01  4.481476E-03  0.000000E+00  4.844374E-03 -7.207192E-04  2.125952E-19  4.543627E-02  0.000000E+00
  9.686070E-01  5.117865E-03  5.000000E-01  9.783892E-01  5.100083E-03  0.000000E+00  4.987973E-03 -7.406568E-04 -2.375943E-19  3.844222E-02  0.000000E+00
  9.640240E-01  5.797700E-03  5.000000E-01  9.737599E-01  5.786784E-03  0.000000E+00  5.136009E-03 -7.607057E-04 -5.630913E-19  3.092141E-02  0.000000E+00
  9.589680E-01  6.545447E-03  5.000000E-01  9.686528E-01  6.542082E-03  0.000000E+00  5.285180E-03 -7.803607E-04 -1.283222E-18  2.293050E-02  0.000000E+00
  9.534310E-01  7.361645E-03  5.000000E-01  9.630599E-01  7.366523E-03  0.000000E+00  5.434742E-03 -7.995227E-04 -6.829355E-19  1.451092E-02  0.000000E+00
  9.474030E-01  8.246737E-03  5.000000E-01  9.569710E-01  8.260554E-03  0.000000E+00  5.584233E-03 -8.179445E-04  3.043006E-19  5.791454E-03  0.000000E+00
  9.408720E-01  9.201094E-03  5.000000E-01  9.503741E-01  9.224549E-03  0.000000E+00  5.732209E-03 -8.355043E-04  3.704892E-19 -3.174200E-03  0.000000E+00
  9.338280E-01  1.022521E-02  5.000000E-01  9.432589E-01  1.025901E-02  0.000000E+00  5.876626E-03 -8.521129E-04 -7.614839E-20 -1.235612E-02  0.000000E+00
  9.262600E-01  1.131972E-02  5.000000E-01  9.356145E-01  1.136457E-02  0.000000E+00  6.014907E-03 -8.674276E-04 -1.053971E-18 -2.165702E-02  0.000000E+00
  9.181550E-01  1.248527E-02  5.000000E-01  9.274277E-01  1.254189E-02  0.000000E+00  6.143874E-03 -8.812088E-04 -8.158247E-19 -3.104916E-02  0.000000E+00
  9.095020E-01  1.372307E-02  5.000000E-01  9.186873E-01  1.379220E-02  0.000000E+00  6.260228E-03 -8.932756E-04  2.618740E-19 -4.043235E-02  0.000000E+00
  9.002880E-01  1.503465E-02  5.000000E-01  9.093802E-01  1.511702E-02  0.000000E+00  6.360454E-03 -9.036359E-04 -4.345165E-20 -4.956467E-02  0.000000E+00
  8.905020E-01  1.642246E-02  5.000000E-01  8.994954E-01  1.651885E-02  0.000000E+00  6.441502E-03 -9.135021E-04 -3.178468E-19 -5.843288E-02  0.000000E+00
  8.801320E-01  1.789312E-02  5.000000E-01  8.890207E-01  1.800436E-02  0.000000E+00  6.503767E-03 -9.253563E-04  4.371953E-19 -6.741014E-02  0.000000E+00
  8.691700E-01  1.945775E-02  5.000000E-01  8.779479E-01  1.958479E-02  0.000000E+00  6.553876E-03 -9.416539E-04  2.755617E-20 -7.700413E-02  0.000000E+00
  8.691700E-01  1.945775E-02  5.000000E-01  8.779479E-01  1.958479E-02  0.000000E+00  6.553876E-03 -9.416539E-04  2.755617E-20 -7.700413E-02  0.000000E+00
  8.576080E-01  2.112988E-02  5.000000E-01  8.662692E-01  2.127381E-02  0.000000E+00  6.604870E-03 -9.645750E-04 -6.308690E-20 -8.764720E-02  0.000000E+00
  8.454380E-01  2.292459E-02  5.000000E-01  8.539763E-01  2.308664E-02  0.000000E+00  6.674598E-03 -9.967209E-04  3.046128E-19 -9.991150E-02  0.000000E+00
  8.326580E-01  2.485697E-02  5.000000E-01  8.410672E-01  2.503854E-02  0.000000E+00  6.784432E-03 -1.040519E-03  4.526852E-19 -1.149714E-01  0.000000E+00
  8.192630E-01  2.693939E-02  5.000000E-01  8.275369E-01  2.714199E-02  0.000000E+00  6.958118E-03 -1.096980E-03 -4.410354E-19 -1.348553E-01  0.000000E+00
  8.052550E-01  2.917551E-02  5.000000E-01  8.133875E-01  2.940069E-02  0.000000E+00  7.218070E-03 -1.162524E-03  1.188400E-20 -1.609145E-01  0.000000E+00
  7.906370E-01  3.154846E-02  5.000000E-01  7.986218E-01  3.179761E-02  0.000000E+00  7.573237E-03 -1.224457E-03  2.478139E-18 -1.907792E-01  0.000000E+00
  7.754120E-01  3.400232E-02  5.000000E-01  7.832431E-01  3.427625E-02  0.000000E+00  7.999639E-03 -1.267437E-03  2.850714E-18 -2.197616E-01  0.000000E+00
  7.595880E-01  3.646922E-02  5.000000E-01  7.672593E-01  3.676806E-02  0.000000E+00  8.438777E-03 -1.288991E-03  8.562546E-19 -2.463437E-01  0.000000E+00
  7.431760E-01  3.892618E-02  5.000000E-01  7.506815E-01  3.924983E-02  0.000000E+00  8.828342E-03 -1.293086E-03 -7.426451E-19 -2.704691E-01  0.000000E+00
  7.261880E-01  4.136182E-02  5.000000E-01  7.335219E-01  4.171007E-02  0.000000E+00  9.124217E-03 -1.281057E-03 -5.147628E-19 -2.907141E-01  0.000000E+00
  7.086430E-01  4.377537E-02  5.000000E-01  7.157997E-01  4.414800E-02  0.000000E+00  9.304405E-03 -1.258870E-03 -5.544812E-20 -3.062738E-01  0.000000E+00
  6.905640E-01  4.618280E-02  5.000000E-01  6.975382E-01  4.657974E-02  0.000000E+00  9.376266E-03 -1.239864E-03  1.630093E-18 -3.184735E-01  0.000000E+00
  6.719770E-01  4.862413E-02  5.000000E-01  6.787634E-01  4.904573E-02  0.000000E+00  9.382690E-03 -1.242562E-03  3.074782E-18 -3.322682E-01  0.000000E+00
  6.529150E-01  5.116804E-02  5.000000E-01  6.595089E-01  5.161533E-02  0.000000E+00  9.406200E-03 -1.279402E-03  1.910519E-18 -3.539888E-01  0.000000E+00
  6.334180E-01  5.386909E-02  5.000000E-01  6.398150E-01  5.434366E-02  0.000000E+00  9.555585E-03 -1.347344E-03  6.770837E-19 -3.877917E-01  0.000000E+00
  6.135280E-01  5.672027E-02  5.000000E-01  6.197242E-01  5.722363E-02  0.000000E+00  9.932261E-03 -1.437154E-03  4.819036E-19 -4.370229E-01  0.000000E+00
  5.932910E-01  5.967044E-02  5.000000E-01  5.992828E-01  6.020359E-02  0.000000E+00  1.060801E-02 -1.536013E-03  5.039057E-19 -5.031371E-01  0.000000E+00
  5.727570E-01  6.262164E-02  5.000000E-01  5.785414E-01  6.318460E-02  0.000000E+00  1.161030E-02 -1.614984E-03 -2.981915E-19 -5.802204E-01  0.000000E+00
  5.519810E-01  6.542696E-02  5.000000E-01  5.575556E-01  6.601825E-02  0.000000E+00  1.289075E-02 -1.628301E-03  9.327130E-19 -6.555941E-01  0.000000E+00
  5.310180E-01  6.791413E-02  5.000000E-01  5.363809E-01  6.853054E-02  0.000000E+00  1.430048E-02 -1.552125E-03  1.758581E-18 -7.216934E-01  0.000000E+00
  5.099250E-01  7.000932E-02  5.000000E-01  5.150749E-01  7.064689E-02  0.000000E+00  1.565049E-02 -1.397891E-03  2.542855E-18 -7.786675E-01  0.000000E+00
  4.887640E-01  7.170307E-02  5.000000E-01  4.937001E-01  7.235775E-02  0.000000E+00  1.680530E-02 -1.173864E-03  3.326197E-18 -8.240396E-01  0.000000E+00
  4.675910E-01  7.298053E-02  5.000000E-01  4.723133E-01  7.364810E-02  0.000000E+00  1.768980E-02 -8.855422E-04  1.251897E-18 -8.527684E-01  0.000000E+00
  7.860720E-05 -3.612449E-04  5.000000E-01  7.940615E-05 -4.343621E-04  0.000000E+00 -2.408522E-02  6.448212E-02 -9.174730E-15  4.824816E-01  0.000000E+00
  3.989240E-04 -8.631683E-04  5.000000E-01  4.029579E-04 -9.413546E-04  0.000000E+00 -2.362003E-02  2.978522E-02 -7.587654E-15  1.007407E+00  0.000000E+00
  1.196920E-03 -1.472564E-03  5.000000E-01  1.209013E-03 -1.556905E-03  0.000000E+00 -1.169591E-02  8.276703E-03 -4.881467E-15  1.106398E+00  0.000000E+00
  2.563580E-03 -2.116621E-03  5.000000E-01  2.589475E-03 -2.207466E-03  0.000000E+00 -3.178974E-04  3.899725E-04 -2.227704E-15  9.934171E-01  0.000000E+00
  4.492740E-03 -2.765918E-03  5.000000E-01  4.538118E-03 -2.863321E-03  0.000000E+00  6.362382E-03 -1.851413E-03 -4.274559E-16  8.857768E-01  0.000000E+00
  6.952190E-03 -3.422011E-03  5.000000E-01  7.022407E-03 -3.526039E-03  0.000000E+00  9.619676E-03 -2.378764E-03  3.259897E-16  8.083157E-01  0.000000E+00
  9.910730E-03 -4.107166E-03  5.000000E-01  1.001083E-02 -4.218114E-03  0.000000E+00  1.110561E-02 -2.475964E-03  3.845742E-16  7.438459E-01  0.000000E+00
  1.334950E-02 -4.847043E-03  5.000000E-01  1.348432E-02 -4.965464E-03  0.000000E+00  1.178129E-02 -2.430859E-03  2.027330E-16  6.804203E-01  0.000000E+00
  1.728780E-02 -5.627459E-03  5.000000E-01  1.746240E-02 -5.753761E-03  0.000000E+00  1.209037E-02 -2.253419E-03  4.655295E-17  6.134097E-01  0.000000E+00
  2.175590E-02 -6.408558E-03  5.000000E-01  2.197562E-02 -6.542749E-03  0.000000E+00  1.222432E-02 -1.983891E-03 -1.895816E-17  5.500219E-01  0.000000E+00
  2.676920E-02 -7.158652E-03  5.000000E-01  2.703955E-02 -7.300417E-03  0.000000E+00  1.229081E-02 -1.704079E-03 -2.475816E-17  4.987178E-01  0.000000E+00
  3.232800E-02 -7.867671E-03  5.000000E-01  3.265449E-02 -8.016597E-03  0.000000E+00  1.235015E-02 -1.468293E-03 -1.292127E-17  4.605429E-01  0.000000E+00
  3.842930E-02 -8.540517E-03  5.000000E-01  3.881741E-02 -8.696239E-03  0.000000E+00  1.241852E-02 -1.291155E-03 -3.353691E-18  4.311893E-01  0.000000E+00
  4.507220E-02 -9.189649E-03  5.000000E-01  4.552740E-02 -9.351927E-03  0.000000E+00  1.250147E-02 -1.179866E-03  1.660316E-18  4.074343E-01  0.000000E+00
  5.225680E-02 -9.843328E-03  5.000000E-01  5.278456E-02 -1.001221E-02  0.000000E+00  1.261615E-02 -1.136970E-03  2.167057E-18  3.873806E-01  0.000000E+00
  5.998640E-02 -1.053355E-02  5.000000E-01  6.059222E-02 -1.070940E-02  0.000000E+00  1.276655E-02 -1.133863E-03 -8.198572E-21  3.663688E-01  0.000000E+00
  6.827110E-02 -1.126637E-02  5.000000E-01  6.896059E-02 -1.144962E-02  0.000000E+00  1.293501E-02 -1.134912E-03 -1.153861E-18  3.414208E-01  0.000000E+00
  7.712280E-02 -1.203673E-02  5.000000E-01  7.790169E-02 -1.222776E-02  0.000000E+00  1.310729E-02 -1.130043E-03 -1.138155E-18  3.145843E-01  0.000000E+00
  8.655260E-02 -1.284157E-02  5.000000E-01  8.742672E-02 -1.304073E-02  0.000000E+00  1.327814E-02 -1.117648E-03 -3.776872E-19  2.877594E-01  0.000000E+00
  9.657140E-02 -1.367335E-02  5.000000E-01  9.754670E-02 -1.388091E-02  0.000000E+00  1.344155E-02 -1.087027E-03  6.864018E-19  2.602385E-01  0.000000E+00
  1.071900E-01 -1.450993E-02  5.000000E-01  1.082725E-01 -1.472594E-02  0.000000E+00  1.360019E-02 -1.033743E-03  1.190382E-18  2.320342E-01  0.000000E+00
  1.184180E-01 -1.533215E-02  5.000000E-01  1.196139E-01 -1.555646E-02  0.000000E+00  1.378031E-02 -9.722567E-04  6.689925E-19  2.051279E-01  0.000000E+00
  1.302610E-01 -1.613596E-02  5.000000E-01  1.315765E-01 -1.636839E-02  0.000000E+00  1.401651E-02 -9.167633E-04  9.940036E-20  1.797258E-01  0.000000E+00
  1.427230E-01 -1.692077E-02  5.000000E-01  1.441644E-01 -1.716113E-02  0.000000E+00  1.432157E-02 -8.672365E-04  2.920021E-19  1.538785E-01  0.000000E+00
  1.427230E-01 -1.692077E-02  5.000000E-01  1.441644E-01 -1.716113E-02  0.000000E+00  1.432157E-02 -8.672365E-04  2.920021E-19  1.538785E-01  0.000000E+00
  1.558070E-01 -1.768243E-02  5.000000E-01  1.573805E-01 -1.793048E-02  0.000000E+00  1.466092E-02 -8.038935E-04 -2.993044E-21  1.252423E-01  0.000000E+00
  1.695140E-01 -1.838957E-02  5.000000E-01  1.712260E-01 -1.864476E-02  0.000000E+00  1.494358E-02 -6.897327E-04 -7.854317E-19  9.294544E-02  0.000000E+00
  1.838420E-01 -1.897476E-02  5.000000E-01  1.856987E-01 -1.923586E-02  0.000000E+00  1.504163E-02 -4.877100E-04 -1.191927E-18  5.961109E-02  0.000000E+00
  1.987870E-01 -1.933414E-02  5.000000E-01  2.007946E-01 -1.959887E-02  0.000000E+00  1.482905E-02 -1.799296E-04 -1.081441E-18  3.010253E-02  0.000000E+00
  2.143420E-01 -1.933325E-02  5.000000E-01  2.165067E-01 -1.959797E-02  0.000000E+00  1.424726E-02  1.919649E-04 -1.864694E-19  1.241927E-02  0.000000E+00
  2.304940E-01 -1.888404E-02  5.000000E-01  2.328218E-01 -1.914423E-02  0.000000E+00  1.336003E-02  5.226045E-04  2.703587E-19  1.682310E-02  0.000000E+00
  2.472290E-01 -1.802174E-02  5.000000E-01  2.497258E-01 -1.827321E-02  0.000000E+00  1.230893E-02  7.369669E-04  6.526143E-19  4.369714E-02  0.000000E+00
  2.645310E-01 -1.682856E-02  5.000000E-01  2.672026E-01 -1.706798E-02  0.000000E+00  1.124132E-02  8.353467E-04  7.349503E-19  8.237841E-02  0.000000E+00
  2.823750E-01 -1.540003E-02  5.000000E-01  2.852268E-01 -1.562503E-02  0.000000E+00  1.030012E-02  8.418347E-04  1.875451E-19  1.238347E-01  0.000000E+00
  3.007320E-01 -1.386684E-02  5.000000E-01  3.037692E-01 -1.407635E-02  0.000000E+00  9.623063E-03  7.676252E-04 -2.854761E-19  1.642720E-01  0.000000E+00
  3.195690E-01 -1.243552E-02  5.000000E-01  3.227964E-01 -1.263058E-02  0.000000E+00  9.316998E-03  6.105546E-04 -5.975740E-19  2.009269E-01  0.000000E+00
  3.388440E-01 -1.137502E-02  5.000000E-01  3.422661E-01 -1.155937E-02  0.000000E+00  9.404465E-03  3.938711E-04 -3.094049E-20  2.242573E-01  0.000000E+00
  3.585140E-01 -1.080891E-02  5.000000E-01  3.621347E-01 -1.098754E-02  0.000000E+00  9.812992E-03  1.768713E-04 -6.724922E-19  2.227302E-01  0.000000E+00
  3.785290E-01 -1.065578E-02  5.000000E-01  3.823519E-01 -1.083286E-02  0.000000E+00  1.044646E-02 -2.307824E-07 -1.195774E-18  1.990258E-01  0.000000E+00
  3.988350E-01 -1.079928E-02  5.000000E-01  4.028629E-01 -1.097781E-02  0.000000E+00  1.122658E-02 -1.249879E-04 -8.772220E-19  1.642733E-01  0.000000E+00
  4.193750E-01 -1.110418E-02  5.000000E-01  4.236104E-01 -1.128579E-02  0.000000E+00  1.207320E-02 -1.771189E-04 -6.261752E-19  1.241016E-01  0.000000E+00
  4.400850E-01 -1.140494E-02  5.000000E-01  4.445295E-01 -1.158959E-02  0.000000E+00  1.288917E-02 -1.300510E-04 -1.845253E-19  8.088534E-02  0.000000E+00
  4.609060E-01 -1.152966E-02  5.000000E-01  4.655608E-01 -1.171557E-02  0.000000E+00  1.354730E-02  3.007840E-05 -4.412374E-19  3.783200E-02  0.000000E+00
  4.818030E-01 -1.131779E-02  5.000000E-01  4.866688E-01 -1.150156E-02  0.000000E+00  1.388941E-02  2.754653E-04 -3.715142E-20  2.457253E-03  0.000000E+00
  5.027520E-01 -1.069844E-02  5.000000E-01  5.078294E-01 -1.087595E-02  0.000000E+00  1.371942E-02  5.778254E-04  1.152180E-18 -1.948870E-02  0.000000E+00
  5.237130E-01 -9.545332E-03  5.000000E-01  5.290021E-01 -9.711201E-03  0.000000E+00  1.283496E-02  9.482994E-04  1.232317E-18 -3.047521E-02  0.000000E+00
  5.446170E-01 -7.573540E-03  5.000000E-01  5.501172E-01 -7.719495E-03  0.000000E+00  1.119167E-02  1.326242E-03  2.782762E-18 -2.707944E-02  0.000000E+00
  5.653940E-01 -4.501997E-03  5.000000E-01  5.711040E-01 -4.616933E-03  0.000000E+00  9.093759E-03  1.512264E-03  3.248416E-18  1.615090E-02  0.000000E+00
  4.675910E-01  7.298053E-02  5.000000E-01  4.723133E-01  7.364810E-02  0.000000E+00  1.768980E-02 -8.855422E-04  1.251897E-18 -8.527684E-01  0.000000E+00
  4.464640E-01  7.383135E-02  5.000000E-01  4.509729E-01  7.450752E-02  0.000000E+00  1.825754E-02 -5.660427E-04  1.567463E-19 -8.642162E-01  0.000000E+00
  4.254410E-01  7.429276E-02  5.000000E-01  4.297376E-01  7.497359E-02  0.000000E+00  1.850077E-02 -2.656144E-04 -6.434897E-19 -8.624264E-01  0.000000E+00
  4.045840E-01  7.443470E-02  5.000000E-01  4.086700E-01  7.511697E-02  0.000000E+00  1.847246E-02 -1.957733E-05 -3.183163E-19 -8.524854E-01  0.000000E+00
  3.839530E-01  7.433801E-02  5.000000E-01  3.878306E-01  7.501929E-02  0.000000E+00  1.827845E-02  1.610038E-04  3.096321E-19 -8.399986E-01  0.000000E+00
  3.636060E-01  7.407499E-02  5.000000E-01  3.672781E-01  7.475362E-02  0.000000E+00  1.805063E-02  2.800319E-04  1.237167E-19 -8.336642E-01  0.000000E+00
  3.435960E-01  7.371062E-02  5.000000E-01  3.470661E-01  7.438557E-02  0.000000E+00  1.792836E-02  3.485087E-04  1.475860E-19 -8.462838E-01  0.000000E+00
  3.239710E-01  7.330029E-02  5.000000E-01  3.272429E-01  7.397110E-02  0.000000E+00  1.806726E-02  4.067119E-04  6.673183E-19 -8.861806E-01  0.000000E+00
  3.047740E-01  7.283562E-02  5.000000E-01  3.078520E-01  7.350174E-02  0.000000E+00  1.861651E-02  5.406923E-04  7.353004E-19 -9.472429E-01  0.000000E+00
  2.860450E-01  7.220510E-02  5.000000E-01  2.889338E-01  7.286485E-02  0.000000E+00  1.961364E-02  8.223553E-04  7.568591E-20 -1.015942E+00  0.000000E+00
  2.678190E-01  7.129929E-02  5.000000E-01  2.705238E-01  7.194989E-02  0.000000E+00  2.093456E-02  1.270027E-03 -3.549870E-19 -1.079841E+00  0.000000E+00
  2.501300E-01  7.004518E-02  5.000000E-01  2.526561E-01  7.068311E-02  0.000000E+00  2.235320E-02  1.869122E-03 -5.038873E-19 -1.126626E+00  0.000000E+00
  2.330040E-01  6.840970E-02  5.000000E-01  2.353572E-01  6.903112E-02  0.000000E+00  2.361813E-02  2.578604E-03 -1.245842E-18 -1.144993E+00  0.000000E+00
  2.164660E-01  6.639126E-02  5.000000E-01  2.186521E-01  6.699229E-02  0.000000E+00  2.451718E-02  3.329653E-03 -4.331835E-19 -1.128497E+00  0.000000E+00
  2.005340E-01  6.401639E-02  5.000000E-01  2.025592E-01  6.459344E-02  0.000000E+00  2.491713E-02  4.006214E-03 -9.483559E-20 -1.083613E+00  0.000000E+00
  1.852230E-01  6.137576E-02  5.000000E-01  1.870936E-01  6.192614E-02  0.000000E+00  2.482833E-02  4.502481E-03 -6.752894E-19 -1.027277E+00  0.000000E+00
  1.705440E-01  5.858089E-02  5.000000E-01  1.722664E-01  5.910305E-02  0.000000E+00  2.442491E-02  4.817714E-03 -5.168272E-19 -9.748933E-01  0.000000E+00
  1.565000E-01  5.571111E-02  5.000000E-01  1.580805E-01  5.620428E-02  0.000000E+00  2.394110E-02  5.026267E-03 -3.751923E-19 -9.371007E-01  0.000000E+00
  1.430940E-01  5.281762E-02  5.000000E-01  1.445391E-01  5.328157E-02  0.000000E+00  2.357734E-02  5.226175E-03  4.774141E-19 -9.166448E-01  0.000000E+00
  1.303270E-01  4.991167E-02  5.000000E-01  1.316432E-01  5.034627E-02  0.000000E+00  2.345291E-02  5.524548E-03  2.450382E-19 -9.032231E-01  0.000000E+00
  1.182110E-01  4.696260E-02  5.000000E-01  1.194048E-01  4.736742E-02  0.000000E+00  2.354419E-02  5.963135E-03 -6.662278E-19 -8.816082E-01  0.000000E+00
  1.067560E-01  4.395184E-02  5.000000E-01  1.078342E-01  4.432625E-02  0.000000E+00  2.369571E-02  6.488569E-03 -2.964006E-18 -8.426398E-01  0.000000E+00
  9.596750E-02  4.088115E-02  5.000000E-01  9.693670E-02  4.122455E-02  0.000000E+00  2.371405E-02  6.963418E-03 -3.463083E-18 -7.930215E-01  0.000000E+00
  8.582800E-02  3.780989E-02  5.000000E-01  8.669480E-02  3.812228E-02  0.000000E+00  2.351770E-02  7.276477E-03 -1.647014E-18 -7.488752E-01  0.000000E+00
  8.582800E-02  3.780989E-02  5.000000E-01  8.669480E-02  3.812228E-02  0.000000E+00  2.351770E-02  7.276477E-03 -1.647014E-18 -7.488752E-01  0.000000E+00
  7.631050E-02  3.480111E-02  5.000000E-01  7.708118E-02  3.508310E-02  0.000000E+00  2.320504E-02  7.497409E-03 -1.787968E-19 -7.128595E-01  0.000000E+00
  6.740780E-02  3.186250E-02  5.000000E-01  6.808857E-02  3.211482E-02  0.000000E+00  2.290422E-02  7.744631E-03  1.716055E-18 -6.782300E-01  0.000000E+00
  5.911740E-02  2.899220E-02  5.000000E-01  5.971444E-02  2.921553E-02  0.000000E+00  2.265750E-02  8.036322E-03  2.578393E-18 -6.424290E-01  0.000000E+00
  5.143150E-02  2.620066E-02  5.000000E-01  5.195092E-02  2.639580E-02  0.000000E+00  2.244984E-02  8.343788E-03  3.390289E-18 -6.060074E-01  0.000000E+00
  4.433770E-02  2.350381E-02  5.000000E-01  4.478548E-02  2.367171E-02  0.000000E+00  2.225343E-02  8.647446E-03  6.012707E-18 -5.711066E-01  0.000000E+00
  3.782240E-02  2.091669E-02  5.000000E-01  3.820438E-02  2.105846E-02  0.000000E+00  2.205515E-02  8.951215E-03  1.313485E-17 -5.411939E-01  0.000000E+00
  3.187460E-02  1.844927E-02  5.000000E-01  3.219651E-02  1.856612E-02  0.000000E+00  2.187001E-02  9.279644E-03  2.546703E-17 -5.194048E-01  0.000000E+00
  2.648400E-02  1.610965E-02  5.000000E-01  2.675147E-02  1.620288E-02  0.000000E+00  2.173058E-02  9.690928E-03  3.479258E-17 -5.011254E-01  0.000000E+00
  2.164990E-02  1.389689E-02  5.000000E-01  2.186855E-02  1.396777E-02  0.000000E+00  2.161032E-02  1.023007E-02  2.459157E-17 -4.718958E-01  0.000000E+00
  1.737670E-02  1.180875E-02  5.000000E-01  1.755220E-02  1.185854E-02  0.000000E+00  2.135673E-02  1.077747E-02 -2.972456E-17 -4.264569E-01  0.000000E+00
  1.364080E-02  9.863131E-03  5.000000E-01  1.377857E-02  9.893272E-03  0.000000E+00  2.080390E-02  1.109054E-02 -1.505882E-16 -3.815598E-01  0.000000E+00
  1.039090E-02  8.088011E-03  5.000000E-01  1.049585E-02  8.100225E-03  0.000000E+00  1.994407E-02  1.109765E-02 -3.440367E-16 -3.601377E-01  0.000000E+00
  7.586340E-03  6.496705E-03  5.000000E-01  7.662961E-03  6.492847E-03  0.000000E+00  1.892930E-02  1.104286E-02 -5.875844E-16 -3.715341E-01  0.000000E+00
  5.226210E-03  5.080061E-03  5.000000E-01  5.278996E-03  5.061896E-03  0.000000E+00  1.801841E-02  1.133075E-02 -8.300894E-16 -4.180771E-01  0.000000E+00
  3.324300E-03  3.825358E-03  5.000000E-01  3.357878E-03  3.794522E-03  0.000000E+00  1.773060E-02  1.257626E-02 -1.025567E-15 -5.050190E-01  0.000000E+00
  1.883580E-03  2.729973E-03  5.000000E-01  1.902608E-03  2.688075E-03  0.000000E+00  1.885913E-02  1.613689E-02 -1.222432E-15 -6.127280E-01  0.000000E+00
  8.951490E-04  1.799923E-03  5.000000E-01  9.041944E-04  1.748632E-03  0.000000E+00  2.121908E-02  2.413343E-02 -1.658945E-15 -6.669026E-01  0.000000E+00
  3.201820E-04  1.051293E-03  5.000000E-01  3.234207E-04  9.924416E-04  0.000000E+00  2.142835E-02  3.683196E-02 -2.663590E-15 -5.747727E-01  0.000000E+00
  6.852390E-05  5.051967E-04  5.000000E-01  6.922102E-05  4.408299E-04  0.000000E+00  1.558655E-02  4.893336E-02 -4.280182E-15 -3.829849E-01  0.000000E+00
  4.217600E-06  1.773712E-04  5.000000E-01  4.265278E-06  1.096935E-04  0.000000E+00  6.568328E-03  5.827292E-02 -6.054228E-15 -3.326159E-01  0.000000E+00
 -5.032520E-09  6.877438E-05  5.000000E-01  0.000000E+00  0.000000E+00  0.000000E+00 -1.659525E-03  7.798073E-02 -7.653581E-15 -4.033384E-01  0.000000E+00
  5.154440E-06 -4.007062E-05  5.000000E-01  5.211579E-06 -1.099443E-04  0.000000E+00 -1.257139E-02  8.845378E-02 -8.968492E-15 -1.600733E-01  0.000000E+00