 Title = "ADflow Slice Data"
Variables =  "CoordinateX"  "CoordinateY"  "CoordinateZ"  "XoC"  "YoC"  "ZoC" "VelocityX" "VelocityY" "VelocityZ" "CoefPressure" "Mach" 
Zone T= "Slice_0001 None Absolute Regular z = 0.50000000"
 Nodes =          192  Elements=          184  ZONETYPE=FELINESEG
 DATAPACKING=POINT
  5.653940E-01 -3.138344E-03  5.000000E-01  5.711040E-01 -3.284463E-03  0.000000E+00  9.330690E-03  9.887872E-04  5.069072E-19  1.169823E-01  0.000000E+00
  5.859770E-01 -8.064223E-04  5.000000E-01  5.918949E-01 -9.289904E-04  0.000000E+00  8.561315E-03  1.007608E-03  9.558738E-19  1.464042E-01  0.000000E+00
  6.063060E-01  1.685278E-03  5.000000E-01  6.124292E-01  1.587874E-03  0.000000E+00  7.817445E-03  9.707064E-04  1.218349E-18  1.852159E-01  0.000000E+00
  6.263240E-01  4.203858E-03  5.000000E-01  6.326494E-01  4.131890E-03  0.000000E+00  7.176166E-03  8.887622E-04  2.069150E-18  2.249933E-01  0.000000E+00
  6.459860E-01  6.595812E-03  5.000000E-01  6.525100E-01  6.548001E-03  0.000000E+00  6.684423E-03  7.783855E-04  1.348713E-18  2.607757E-01  0.000000E+00
  6.652460E-01  8.731006E-03  5.000000E-01  6.719645E-01  8.704759E-03  0.000000E+00  6.350630E-03  6.592692E-04 -7.083757E-19  2.894833E-01  0.000000E+00
  6.840650E-01  1.054406E-02  5.000000E-01  6.909735E-01  1.053612E-02  0.000000E+00  6.149185E-03  5.489738E-04 -6.131446E-19  3.093980E-01  0.000000E+00
  7.024070E-01  1.204755E-02  5.000000E-01  7.095008E-01  1.205480E-02  0.000000E+00  6.041329E-03  4.535244E-04  2.741280E-19  3.222243E-01  0.000000E+00
  7.202400E-01  1.326311E-02  5.000000E-01  7.275139E-01  1.328263E-02  0.000000E+00  5.994690E-03  3.686345E-04 -6.966278E-19  3.315363E-01  0.000000E+00
  7.375350E-01  1.421175E-02  5.000000E-01  7.449835E-01  1.424085E-02  0.000000E+00  5.987172E-03  2.902582E-04 -1.288108E-18  3.389583E-01  0.000000E+00
  7.542690E-01  1.491673E-02  5.000000E-01  7.618865E-01  1.495295E-02  0.000000E+00  6.006977E-03  2.166680E-04 -1.298048E-18  3.447007E-01  0.000000E+00
  7.704220E-01  1.540135E-02  5.000000E-01  7.782027E-01  1.544247E-02  0.000000E+00  6.052795E-03  1.463112E-04 -9.134695E-19  3.486205E-01  0.000000E+00
  7.859770E-01  1.568758E-02  5.000000E-01  7.939147E-01  1.573159E-02  0.000000E+00  6.135656E-03  7.134935E-05 -6.834399E-20  3.515329E-01  0.000000E+00
  8.009220E-01  1.576371E-02  5.000000E-01  8.090107E-01  1.580848E-02  0.000000E+00  6.274533E-03 -1.901658E-05  4.575629E-19  3.541937E-01  0.000000E+00
  8.152480E-01  1.560687E-02  5.000000E-01  8.234814E-01  1.565006E-02  0.000000E+00  6.477932E-03 -1.223924E-04  8.296144E-19  3.541715E-01  0.000000E+00
  8.289490E-01  1.524119E-02  5.000000E-01  8.373207E-01  1.528069E-02  0.000000E+00  6.735124E-03 -2.271162E-04  7.539190E-19  3.491897E-01  0.000000E+00
  8.420260E-01  1.471163E-02  5.000000E-01  8.505298E-01  1.474578E-02  0.000000E+00  7.026115E-03 -3.259875E-04  7.278368E-19  3.404207E-01  0.000000E+00
  8.544790E-01  1.406385E-02  5.000000E-01  8.631086E-01  1.409146E-02  0.000000E+00  7.330137E-03 -4.157576E-04  8.887879E-19  3.298320E-01  0.000000E+00
  8.663160E-01  1.333929E-02  5.000000E-01  8.750651E-01  1.335958E-02  0.000000E+00  7.627446E-03 -4.942454E-04  4.770297E-20  3.185148E-01  0.000000E+00
  8.775420E-01  1.257312E-02  5.000000E-01  8.864045E-01  1.258567E-02  0.000000E+00  7.900330E-03 -5.594549E-04 -6.864634E-19  3.070427E-01  0.000000E+00
  8.881660E-01  1.179434E-02  5.000000E-01  8.971358E-01  1.179903E-02  0.000000E+00  8.135406E-03 -6.099020E-04 -7.986251E-19  2.958958E-01  0.000000E+00
  8.981970E-01  1.102599E-02  5.000000E-01  9.072681E-01  1.102292E-02  0.000000E+00  8.326897E-03 -6.475289E-04 -2.214060E-19  2.857012E-01  0.000000E+00
  9.076460E-01  1.028066E-02  5.000000E-01  9.168125E-01  1.027006E-02  0.000000E+00  8.479449E-03 -6.794235E-04  2.834424E-19  2.772270E-01  0.000000E+00
  9.165220E-01  9.558802E-03  5.000000E-01  9.257781E-01  9.540915E-03  0.000000E+00  8.605072E-03 -7.122855E-04 -2.030750E-19  2.704264E-01  0.000000E+00
  9.165220E-01  9.558802E-03  5.000000E-01  9.257781E-01  9.540915E-03  0.000000E+00  8.605072E-03 -7.122855E-04 -2.030750E-19  2.704264E-01  0.000000E+00
  9.248360E-01  8.858621E-03  5.000000E-01  9.341761E-01  8.833662E-03  0.000000E+00  8.716364E-03 -7.486519E-04 -7.950396E-19  2.644335E-01  0.000000E+00
  9.325990E-01  8.178911E-03  5.000000E-01  9.420175E-01  8.147088E-03  0.000000E+00  8.823941E-03 -7.896141E-04 -9.439504E-19  2.586843E-01  0.000000E+00
  9.398210E-01  7.518876E-03  5.000000E-01  9.493124E-01  7.480387E-03  0.000000E+00  8.936885E-03 -8.361438E-04 -6.525229E-19  2.529661E-01  0.000000E+00
  9.465130E-01  6.878430E-03  5.000000E-01  9.560720E-01  6.833473E-03  0.000000E+00  9.062779E-03 -8.889240E-04 -3.571107E-19  2.470797E-01  0.000000E+00
  9.526870E-01  6.258340E-03  5.000000E-01  9.623084E-01  6.207121E-03  0.000000E+00  9.207414E-03 -9.483754E-04 -3.697370E-21  2.408154E-01  0.000000E+00
  9.583540E-01  5.660318E-03  5.000000E-01  9.680326E-01  5.603058E-03  0.000000E+00  9.374865E-03 -1.014685E-03 -1.344872E-19  2.339975E-01  0.000000E+00
  9.635240E-01  5.086984E-03  5.000000E-01  9.732548E-01  5.023935E-03  0.000000E+00  9.568003E-03 -1.087674E-03 -2.554860E-19  2.264718E-01  0.000000E+00
  9.682080E-01  4.541739E-03  5.000000E-01  9.779861E-01  4.473183E-03  0.000000E+00  9.790109E-03 -1.167295E-03 -3.856640E-19  2.181628E-01  0.000000E+00
  9.724140E-01  4.028637E-03  5.000000E-01  9.822346E-01  3.954899E-03  0.000000E+00  1.004732E-02 -1.253703E-03 -5.415696E-19  2.090525E-01  0.000000E+00
  9.761510E-01  3.552183E-03  5.000000E-01  9.860094E-01  3.473634E-03  0.000000E+00  1.034908E-02 -1.346908E-03 -3.504971E-19  1.991041E-01  0.000000E+00
  9.794290E-01  3.117097E-03  5.000000E-01  9.893205E-01  3.034153E-03  0.000000E+00  1.070182E-02 -1.447113E-03 -5.850981E-19  1.883257E-01  0.000000E+00
  9.822540E-01  2.728186E-03  5.000000E-01  9.921740E-01  2.641315E-03  0.000000E+00  1.109178E-02 -1.552701E-03 -3.992191E-19  1.769577E-01  0.000000E+00
  9.846330E-01  2.390061E-03  5.000000E-01  9.945770E-01  2.299775E-03  0.000000E+00  1.146734E-02 -1.653864E-03  7.164453E-19  1.662428E-01  0.000000E+00
  9.865710E-01  2.106976E-03  5.000000E-01  9.965346E-01  2.013831E-03  0.000000E+00  1.170138E-02 -1.719456E-03  1.536452E-18  1.550774E-01  0.000000E+00
  9.880740E-01  1.882655E-03  5.000000E-01  9.980528E-01  1.787245E-03  0.000000E+00  1.158390E-02 -1.745737E-03 -3.831766E-18  1.370773E-01  0.000000E+00
  9.891450E-01  1.720143E-03  5.000000E-01  9.991346E-01  1.623091E-03  0.000000E+00  1.179784E-02 -1.882744E-03 -2.813307E-17  1.387474E-01  0.000000E+00
  9.897860E-01  1.621708E-03  5.000000E-01  9.997821E-01  1.523662E-03  0.000000E+00  1.525588E-02 -1.868431E-03 -7.616555E-17  1.876550E-01  0.000000E+00
  9.900000E-01  1.588745E-03  5.000000E-01  9.999982E-01  1.490366E-03  0.000000E+00  1.066640E-02 -4.245295E-03 -7.528911E-17 -5.606795E-02  0.000000E+00
  9.900000E-01  1.667455E-03  5.000000E-01  9.999982E-01  1.569872E-03  0.000000E+00  1.067949E-03 -1.472804E-02  2.149646E-17 -1.948510E-01  0.000000E+00
  9.900000E-01  1.746176E-03  5.000000E-01  9.999982E-01  1.649387E-03  0.000000E+00 -5.292885E-04 -1.372394E-02  1.124157E-16 -1.762777E-02  0.000000E+00
  9.900000E-01  1.824896E-03  5.000000E-01  9.999982E-01  1.728902E-03  0.000000E+00 -3.139633E-04  3.027513E-03  1.246461E-16 -2.213024E-02  0.000000E+00
  9.900000E-01  1.903606E-03  5.000000E-01  9.999982E-01  1.808408E-03  0.000000E+00  7.392856E-04  4.296149E-03  1.409855E-16 -1.448197E-01  0.000000E+00
  9.900000E-01  1.982327E-03  5.000000E-01  9.999982E-01  1.887923E-03  0.000000E+00  6.192475E-03 -2.570944E-03  1.730944E-16 -4.766839E-02  0.000000E+00
  9.900000E-01  1.982327E-03  5.000000E-01  9.999982E-01  1.887923E-03  0.000000E+00  6.192475E-03 -2.570944E-03  1.730944E-16 -4.766839E-02  0.000000E+00
  9.897900E-01  2.024890E-03  5.000000E-01  9.997861E-01  1.930916E-03  0.000000E+00  8.122842E-03 -1.989908E-03  1.247610E-16  1.006198E-01  0.000000E+00
  9.891580E-01  2.152526E-03  5.000000E-01  9.991477E-01  2.059841E-03  0.000000E+00  5.137888E-03 -9.744425E-04  4.284032E-17  5.719129E-02  0.000000E+00
  9.881040E-01  2.365101E-03  5.000000E-01  9.980831E-01  2.274563E-03  0.000000E+00  4.394268E-03 -8.835719E-04  4.448348E-18  4.740380E-02  0.000000E+00
  9.866260E-01  2.662370E-03  5.000000E-01  9.965901E-01  2.574834E-03  0.000000E+00  4.231857E-03 -8.553989E-04 -4.732473E-18  4.946634E-02  0.000000E+00
  9.847200E-01  3.043952E-03  5.000000E-01  9.946649E-01  2.960270E-03  0.000000E+00  4.166932E-03 -8.313007E-04 -3.499958E-18  4.431134E-02  0.000000E+00
  9.823820E-01  3.509309E-03  5.000000E-01  9.923033E-01  3.430327E-03  0.000000E+00  4.227724E-03 -8.379789E-04 -9.554660E-19  3.647282E-02  0.000000E+00
  9.796080E-01  4.057695E-03  5.000000E-01  9.895013E-01  3.984251E-03  0.000000E+00  4.394089E-03 -8.648722E-04  1.053661E-19  2.793956E-02  0.000000E+00
  9.763910E-01  4.688125E-03  5.000000E-01  9.862518E-01  4.621047E-03  0.000000E+00  4.625666E-03 -9.020784E-04  1.379542E-19  1.816869E-02  0.000000E+00
  9.727270E-01  5.399257E-03  5.000000E-01  9.825508E-01  5.339361E-03  0.000000E+00  4.895920E-03 -9.444428E-04 -3.716175E-20  7.079946E-03  0.000000E+00
  9.686070E-01  6.189464E-03  5.000000E-01  9.783892E-01  6.137549E-03  0.000000E+00  5.189040E-03 -9.883564E-04 -1.765020E-19 -5.069883E-03  0.000000E+00
  9.640240E-01  7.056656E-03  5.000000E-01  9.737599E-01  7.013499E-03  0.000000E+00  5.496383E-03 -1.031614E-03 -1.563622E-19 -1.811933E-02  0.000000E+00
  9.589680E-01  7.998309E-03  5.000000E-01  9.686528E-01  7.964662E-03  0.000000E+00  5.814310E-03 -1.073101E-03 -1.466882E-19 -3.192909E-02  0.000000E+00
  9.534310E-01  9.011377E-03  5.000000E-01  9.630599E-01  8.987961E-03  0.000000E+00  6.141186E-03 -1.112103E-03 -5.168625E-21 -4.635703E-02  0.000000E+00
  9.474030E-01  1.009229E-02  5.000000E-01  9.569710E-01  1.007979E-02  0.000000E+00  6.475038E-03 -1.147614E-03  2.292146E-19 -6.116327E-02  0.000000E+00
  9.408720E-01  1.123693E-02  5.000000E-01  9.503741E-01  1.123599E-02  0.000000E+00  6.812321E-03 -1.178674E-03  2.551606E-19 -7.616017E-02  0.000000E+00
  9.338280E-01  1.244062E-02  5.000000E-01  9.432589E-01  1.245183E-02  0.000000E+00  7.148397E-03 -1.204315E-03  1.608545E-19 -9.116620E-02  0.000000E+00
  9.262600E-01  1.369823E-02  5.000000E-01  9.356145E-01  1.372215E-02  0.000000E+00  7.477668E-03 -1.223275E-03 -1.708274E-19 -1.059082E-01  0.000000E+00
  9.181550E-01  1.500401E-02  5.000000E-01  9.274276E-01  1.504112E-02  0.000000E+00  7.793278E-03 -1.234448E-03  4.667785E-19 -1.201512E-01  0.000000E+00
  9.095020E-01  1.635201E-02  5.000000E-01  9.186873E-01  1.640273E-02  0.000000E+00  8.087419E-03 -1.236826E-03  5.503818E-19 -1.335510E-01  0.000000E+00
  9.002880E-01  1.773579E-02  5.000000E-01  9.093802E-01  1.780049E-02  0.000000E+00  8.350912E-03 -1.229672E-03 -3.047862E-19 -1.455764E-01  0.000000E+00
  8.905020E-01  1.914902E-02  5.000000E-01  8.994954E-01  1.922798E-02  0.000000E+00  8.573326E-03 -1.213796E-03 -5.235131E-19 -1.558909E-01  0.000000E+00
  8.801320E-01  2.058849E-02  5.000000E-01  8.890206E-01  2.068199E-02  0.000000E+00  8.745601E-03 -1.191681E-03 -9.666621E-19 -1.645169E-01  0.000000E+00
  8.691700E-01  2.205463E-02  5.000000E-01  8.779479E-01  2.216294E-02  0.000000E+00  8.862763E-03 -1.165764E-03 -6.225817E-19 -1.716121E-01  0.000000E+00
  8.691700E-01  2.205463E-02  5.000000E-01  8.779479E-01  2.216294E-02  0.000000E+00  8.862763E-03 -1.165764E-03 -6.225817E-19 -1.716121E-01  0.000000E+00
  8.576080E-01  2.355009E-02  5.000000E-01  8.662692E-01  2.367351E-02  0.000000E+00  8.924247E-03 -1.138064E-03 -8.523365E-20 -1.772620E-01  0.000000E+00
  8.454380E-01  2.508008E-02  5.000000E-01  8.539763E-01  2.521894E-02  0.000000E+00  8.932905E-03 -1.111253E-03 -3.618358E-19 -1.815776E-01  0.000000E+00
  8.326580E-01  2.665322E-02  5.000000E-01  8.410672E-01  2.680798E-02  0.000000E+00  8.895108E-03 -1.088510E-03  2.090117E-19 -1.848726E-01  0.000000E+00
  8.192630E-01  2.828289E-02  5.000000E-01  8.275369E-01  2.845410E-02  0.000000E+00  8.821834E-03 -1.073707E-03  2.530021E-20 -1.879853E-01  0.000000E+00
  8.052550E-01  2.998841E-02  5.000000E-01  8.133874E-01  3.017684E-02  0.000000E+00  8.730333E-03 -1.070535E-03 -1.298453E-18 -1.923664E-01  0.000000E+00
  7.906370E-01  3.179335E-02  5.000000E-01  7.986218E-01  3.200002E-02  0.000000E+00  8.644358E-03 -1.079908E-03 -5.289554E-19 -1.993467E-01  0.000000E+00
  7.754120E-01  3.371743E-02  5.000000E-01  7.832430E-01  3.394353E-02  0.000000E+00  8.589710E-03 -1.099830E-03  3.504864E-20 -2.094850E-01  0.000000E+00
  7.595880E-01  3.577004E-02  5.000000E-01  7.672592E-01  3.601687E-02  0.000000E+00  8.587649E-03 -1.128075E-03  7.649067E-20 -2.229686E-01  0.000000E+00
  7.431760E-01  3.795285E-02  5.000000E-01  7.506815E-01  3.822172E-02  0.000000E+00  8.652273E-03 -1.163925E-03  1.058292E-18 -2.402128E-01  0.000000E+00
  7.261880E-01  4.026338E-02  5.000000E-01  7.335219E-01  4.055559E-02  0.000000E+00  8.792329E-03 -1.206788E-03  1.735137E-18 -2.617530E-01  0.000000E+00
  7.086430E-01  4.269241E-02  5.000000E-01  7.157997E-01  4.300915E-02  0.000000E+00  9.013103E-03 -1.254331E-03  2.393656E-18 -2.876924E-01  0.000000E+00
  6.905640E-01  4.522080E-02  5.000000E-01  6.975382E-01  4.556307E-02  0.000000E+00  9.316014E-03 -1.302718E-03  1.714693E-18 -3.173078E-01  0.000000E+00
  6.719770E-01  4.781997E-02  5.000000E-01  6.787634E-01  4.818849E-02  0.000000E+00  9.697186E-03 -1.348454E-03 -1.804079E-19 -3.494444E-01  0.000000E+00
  6.529150E-01  5.045706E-02  5.000000E-01  6.595089E-01  5.085221E-02  0.000000E+00  1.014842E-02 -1.390392E-03 -8.879035E-19 -3.836992E-01  0.000000E+00
  6.334180E-01  5.310346E-02  5.000000E-01  6.398150E-01  5.352534E-02  0.000000E+00  1.066280E-02 -1.429033E-03 -1.098183E-18 -4.211713E-01  0.000000E+00
  6.135280E-01  5.573586E-02  5.000000E-01  6.197242E-01  5.618432E-02  0.000000E+00  1.124081E-02 -1.461508E-03 -1.290813E-18 -4.632522E-01  0.000000E+00
  5.932910E-01  5.832087E-02  5.000000E-01  5.992828E-01  5.879544E-02  0.000000E+00  1.188727E-02 -1.479228E-03 -1.983678E-19 -5.096501E-01  0.000000E+00
  5.727570E-01  6.081119E-02  5.000000E-01  5.785414E-01  6.131091E-02  0.000000E+00  1.259927E-02 -1.469490E-03 -3.749275E-19 -5.570044E-01  0.000000E+00
  5.519810E-01  6.314508E-02  5.000000E-01  5.575556E-01  6.366837E-02  0.000000E+00  1.335289E-02 -1.419938E-03 -7.726909E-19 -6.001122E-01  0.000000E+00
  5.310180E-01  6.525736E-02  5.000000E-01  5.363809E-01  6.580198E-02  0.000000E+00  1.409704E-02 -1.335351E-03  1.709617E-19 -6.380433E-01  0.000000E+00
  5.099250E-01  6.713327E-02  5.000000E-01  5.150748E-01  6.769683E-02  0.000000E+00  1.478428E-02 -1.233673E-03  3.273717E-19 -6.744897E-01  0.000000E+00
  4.887640E-01  6.878638E-02  5.000000E-01  4.937001E-01  6.936665E-02  0.000000E+00  1.540845E-02 -1.116605E-03  5.633002E-20 -7.103722E-01  0.000000E+00
  4.675910E-01  7.020606E-02  5.000000E-01  4.723133E-01  7.080066E-02  0.000000E+00  1.598698E-02 -9.722899E-04 -3.875165E-20 -7.429825E-01  0.000000E+00
  7.860720E-05 -3.140791E-04  5.000000E-01  7.940615E-05 -4.316749E-04  0.000000E+00 -1.509903E-02  4.090695E-02  5.064871E-15  8.167169E-01  0.000000E+00
  3.989240E-04 -8.033511E-04  5.000000E-01  4.029579E-04 -9.258881E-04  0.000000E+00 -1.246263E-02  1.619328E-02  4.158388E-15  1.109465E+00  0.000000E+00
  1.196920E-03 -1.381404E-03  5.000000E-01  1.209013E-03 -1.509779E-03  0.000000E+00 -2.497473E-03  2.210093E-03  2.654881E-15  1.062705E+00  0.000000E+00
  2.563580E-03 -1.973784E-03  5.000000E-01  2.589475E-03 -2.108141E-03  0.000000E+00  5.491876E-03 -1.866373E-03  1.160390E-15  9.035977E-01  0.000000E+00
  4.492740E-03 -2.553761E-03  5.000000E-01  4.538118E-03 -2.693975E-03  0.000000E+00  9.538399E-03 -2.508699E-03  1.706505E-16  7.915071E-01  0.000000E+00
  6.952190E-03 -3.126398E-03  5.000000E-01  7.022407E-03 -3.272396E-03  0.000000E+00  1.129822E-02 -2.433477E-03 -2.201078E-16  7.197746E-01  0.000000E+00
  9.910730E-03 -3.717206E-03  5.000000E-01  1.001083E-02 -3.869170E-03  0.000000E+00  1.209191E-02 -2.324405E-03 -2.305739E-16  6.624948E-01  0.000000E+00
  1.334950E-02 -4.354393E-03  5.000000E-01  1.348432E-02 -4.512793E-03  0.000000E+00  1.251802E-02 -2.220270E-03 -1.194815E-16  6.051045E-01  0.000000E+00
  1.728780E-02 -5.023939E-03  5.000000E-01  1.746240E-02 -5.189101E-03  0.000000E+00  1.276548E-02 -2.027530E-03 -3.057157E-17  5.426728E-01  0.000000E+00
  2.175590E-02 -5.684431E-03  5.000000E-01  2.197562E-02 -5.856263E-03  0.000000E+00  1.288181E-02 -1.747145E-03  7.229120E-18  4.837211E-01  0.000000E+00
  2.676920E-02 -6.302314E-03  5.000000E-01  2.703955E-02 -6.480386E-03  0.000000E+00  1.291293E-02 -1.451582E-03  1.324989E-17  4.376808E-01  0.000000E+00
  3.232800E-02 -6.865994E-03  5.000000E-01  3.265449E-02 -7.049758E-03  0.000000E+00  1.290454E-02 -1.196866E-03  7.817375E-18  4.055112E-01  0.000000E+00
  3.842930E-02 -7.379065E-03  5.000000E-01  3.881741E-02 -7.568012E-03  0.000000E+00  1.288050E-02 -1.000766E-03  2.569473E-18  3.823689E-01  0.000000E+00
  4.507220E-02 -7.852791E-03  5.000000E-01  4.552740E-02 -8.046521E-03  0.000000E+00  1.286161E-02 -8.726478E-04 -4.345374E-20  3.647412E-01  0.000000E+00
  5.225680E-02 -8.314790E-03  5.000000E-01  5.278456E-02 -8.513187E-03  0.000000E+00  1.287755E-02 -8.150494E-04 -1.208841E-18  3.506629E-01  0.000000E+00
  5.998640E-02 -8.796496E-03  5.000000E-01  6.059222E-02 -8.999758E-03  0.000000E+00  1.293471E-02 -7.970133E-04 -1.181877E-18  3.353535E-01  0.000000E+00
  6.827110E-02 -9.302222E-03  5.000000E-01  6.896059E-02 -9.510591E-03  0.000000E+00  1.300986E-02 -7.810978E-04 -5.360244E-19  3.159458E-01  0.000000E+00
  7.712280E-02 -9.824800E-03  5.000000E-01  7.790168E-02 -1.003845E-02  0.000000E+00  1.308137E-02 -7.572878E-04 -4.045141E-19  2.949578E-01  0.000000E+00
  8.655260E-02 -1.035935E-02  5.000000E-01  8.742672E-02 -1.057840E-02  0.000000E+00  1.313622E-02 -7.246954E-04 -5.628821E-19  2.747395E-01  0.000000E+00
  9.657140E-02 -1.089703E-02  5.000000E-01  9.754670E-02 -1.112151E-02  0.000000E+00  1.315905E-02 -6.739336E-04 -2.476629E-19  2.548899E-01  0.000000E+00
  1.071900E-01 -1.141527E-02  5.000000E-01  1.082725E-01 -1.164498E-02  0.000000E+00  1.314160E-02 -6.027921E-04 -1.882759E-19  2.357480E-01  0.000000E+00
  1.184180E-01 -1.189679E-02  5.000000E-01  1.196139E-01 -1.213136E-02  0.000000E+00  1.309911E-02 -5.280500E-04 -4.203891E-19  2.196269E-01  0.000000E+00
  1.302610E-01 -1.234305E-02  5.000000E-01  1.315765E-01 -1.258213E-02  0.000000E+00  1.305806E-02 -4.665058E-04 -4.817396E-19  2.069523E-01  0.000000E+00
  1.427230E-01 -1.276369E-02  5.000000E-01  1.441644E-01 -1.300702E-02  0.000000E+00  1.303425E-02 -4.231766E-04 -4.437836E-19  1.959315E-01  0.000000E+00
  1.427230E-01 -1.276369E-02  5.000000E-01  1.441644E-01 -1.300702E-02  0.000000E+00  1.303425E-02 -4.231766E-04 -4.437836E-19  1.959315E-01  0.000000E+00
  1.558070E-01 -1.317187E-02  5.000000E-01  1.573805E-01 -1.341932E-02  0.000000E+00  1.302054E-02 -3.895151E-04 -5.199461E-20  1.843456E-01  0.000000E+00
  1.695140E-01 -1.356498E-02  5.000000E-01  1.712260E-01 -1.381640E-02  0.000000E+00  1.298933E-02 -3.482414E-04  2.282011E-19  1.709909E-01  0.000000E+00
  1.838420E-01 -1.392253E-02  5.000000E-01  1.856987E-01 -1.417756E-02  0.000000E+00  1.291101E-02 -2.867089E-04 -1.247213E-19  1.569843E-01  0.000000E+00
  1.987870E-01 -1.421311E-02  5.000000E-01  2.007946E-01 -1.447108E-02  0.000000E+00  1.277173E-02 -2.028511E-04 -6.689472E-20  1.444209E-01  0.000000E+00
  2.143420E-01 -1.440388E-02  5.000000E-01  2.165067E-01 -1.466377E-02  0.000000E+00  1.258688E-02 -1.127129E-04  3.385348E-21  1.356908E-01  0.000000E+00
  2.304940E-01 -1.449301E-02  5.000000E-01  2.328218E-01 -1.475380E-02  0.000000E+00  1.240032E-02 -4.631410E-05 -3.735084E-19  1.325541E-01  0.000000E+00
  2.472290E-01 -1.452416E-02  5.000000E-01  2.497258E-01 -1.478526E-02  0.000000E+00  1.225674E-02 -1.892349E-05 -7.213388E-19  1.329712E-01  0.000000E+00
  2.645310E-01 -1.454603E-02  5.000000E-01  2.672026E-01 -1.480736E-02  0.000000E+00  1.217493E-02 -1.607539E-05 -4.362054E-19  1.316862E-01  0.000000E+00
  2.823750E-01 -1.457224E-02  5.000000E-01  2.852268E-01 -1.483384E-02  0.000000E+00  1.215274E-02 -1.378620E-05  1.985098E-19  1.255091E-01  0.000000E+00
  3.007320E-01 -1.458746E-02  5.000000E-01  3.037692E-01 -1.484921E-02  0.000000E+00  1.218771E-02 -3.436625E-06  1.149421E-19  1.158416E-01  0.000000E+00
  3.195690E-01 -1.458154E-02  5.000000E-01  3.227964E-01 -1.484322E-02  0.000000E+00  1.228054E-02  9.434479E-06  4.281797E-20  1.054543E-01  0.000000E+00
  3.388440E-01 -1.455731E-02  5.000000E-01  3.422661E-01 -1.481875E-02  0.000000E+00  1.241634E-02  2.626088E-05  2.639773E-19  9.435823E-02  0.000000E+00
  3.585140E-01 -1.449998E-02  5.000000E-01  3.621347E-01 -1.476084E-02  0.000000E+00  1.255106E-02  6.373968E-05  9.593702E-20  8.047019E-02  0.000000E+00
  3.785290E-01 -1.435664E-02  5.000000E-01  3.823518E-01 -1.461606E-02  0.000000E+00  1.262504E-02  1.360972E-04 -1.180580E-19  6.423587E-02  0.000000E+00
  3.988350E-01 -1.406420E-02  5.000000E-01  4.028629E-01 -1.432066E-02  0.000000E+00  1.258671E-02  2.456816E-04 -5.775183E-21  4.929123E-02  0.000000E+00
  4.193750E-01 -1.355710E-02  5.000000E-01  4.236104E-01 -1.380844E-02  0.000000E+00  1.240647E-02  3.930368E-04  8.561729E-19  3.853271E-02  0.000000E+00
  4.400850E-01 -1.275391E-02  5.000000E-01  4.445295E-01 -1.299714E-02  0.000000E+00  1.209457E-02  5.664468E-04  1.068033E-18  3.426653E-02  0.000000E+00
  4.609060E-01 -1.160487E-02  5.000000E-01  4.655608E-01 -1.183649E-02  0.000000E+00  1.171330E-02  7.220897E-04  1.810528E-19  4.051453E-02  0.000000E+00
  4.818030E-01 -1.017321E-02  5.000000E-01  4.866688E-01 -1.039038E-02  0.000000E+00  1.133973E-02  8.108591E-04  6.230943E-19  5.862574E-02  0.000000E+00
  5.027520E-01 -8.608991E-03  5.000000E-01  5.078294E-01 -8.810359E-03  0.000000E+00  1.098792E-02  8.370189E-04  1.701211E-18  8.084284E-02  0.000000E+00
  5.237130E-01 -6.984478E-03  5.000000E-01  5.290021E-01 -7.169439E-03  0.000000E+00  1.058221E-02  8.607155E-04  1.020914E-18  9.587330E-02  0.000000E+00
  5.446170E-01 -5.207398E-03  5.000000E-01  5.501172E-01 -5.374412E-03  0.000000E+00  1.003120E-02  9.229442E-04 -2.326591E-19  1.031818E-01  0.000000E+00
  5.653940E-01 -3.138344E-03  5.000000E-01  5.711040E-01 -3.284463E-03  0.000000E+00  9.330690E-03  9.887872E-04  5.069072E-19  1.169823E-01  0.000000E+00
  4.675910E-01  7.020606E-02  5.000000E-01  4.723133E-01  7.080066E-02  0.000000E+00  1.598698E-02 -9.722899E-04 -3.875165E-20 -7.429825E-01  0.000000E+00
  4.464640E-01  7.136439E-02  5.000000E-01  4.509729E-01  7.197069E-02  0.000000E+00  1.652300E-02 -8.025166E-04  4.627052E-19 -7.712466E-01  0.000000E+00
  4.254410E-01  7.225783E-02  5.000000E-01  4.297376E-01  7.287315E-02  0.000000E+00  1.700851E-02 -6.192668E-04  8.695736E-19 -7.960721E-01  0.000000E+00
  4.045840E-01  7.289344E-02  5.000000E-01  4.086700E-01  7.351519E-02  0.000000E+00  1.744191E-02 -4.298464E-04  4.376644E-19 -8.183310E-01  0.000000E+00
  3.839530E-01  7.328431E-02  5.000000E-01  3.878306E-01  7.391000E-02  0.000000E+00  1.783179E-02 -2.364191E-04  4.631289E-20 -8.387090E-01  0.000000E+00
  3.636060E-01  7.344091E-02  5.000000E-01  3.672781E-01  7.406818E-02  0.000000E+00  1.819462E-02 -3.875171E-05  3.937225E-19 -8.579718E-01  0.000000E+00
  3.435960E-01  7.337434E-02  5.000000E-01  3.470661E-01  7.400094E-02  0.000000E+00  1.854943E-02  1.631283E-04  6.561836E-19 -8.776725E-01  0.000000E+00
  3.239710E-01  7.309594E-02  5.000000E-01  3.272429E-01  7.371972E-02  0.000000E+00  1.891729E-02  3.701922E-04 -9.457391E-20 -8.998446E-01  0.000000E+00
  3.047740E-01  7.261811E-02  5.000000E-01  3.078520E-01  7.323707E-02  0.000000E+00  1.932396E-02  5.902160E-04 -8.074653E-19 -9.250197E-01  0.000000E+00
  2.860450E-01  7.194247E-02  5.000000E-01  2.889338E-01  7.255461E-02  0.000000E+00  1.979295E-02  8.390902E-04 -9.745173E-19 -9.510263E-01  0.000000E+00
  2.678190E-01  7.105815E-02  5.000000E-01  2.705238E-01  7.166136E-02  0.000000E+00  2.032661E-02  1.126623E-03 -1.766359E-19 -9.756952E-01  0.000000E+00
  2.501300E-01  6.995927E-02  5.000000E-01  2.526561E-01  7.055138E-02  0.000000E+00  2.090526E-02  1.450758E-03  5.128897E-19 -9.993972E-01  0.000000E+00
  2.330040E-01  6.864926E-02  5.000000E-01  2.353572E-01  6.922814E-02  0.000000E+00  2.150819E-02  1.806849E-03 -1.814770E-19 -1.024336E+00  0.000000E+00
  2.164660E-01  6.713746E-02  5.000000E-01  2.186521E-01  6.770107E-02  0.000000E+00  2.213331E-02  2.196302E-03 -5.348120E-19 -1.051407E+00  0.000000E+00
  2.005340E-01  6.543513E-02  5.000000E-01  2.025592E-01  6.598154E-02  0.000000E+00  2.280320E-02  2.648043E-03 -5.776660E-19 -1.074851E+00  0.000000E+00
  1.852230E-01  6.352128E-02  5.000000E-01  1.870936E-01  6.404837E-02  0.000000E+00  2.351121E-02  3.185705E-03 -6.058509E-20 -1.087325E+00  0.000000E+00
  1.705440E-01  6.138401E-02  5.000000E-01  1.722664E-01  6.188952E-02  0.000000E+00  2.418682E-02  3.778264E-03  1.309921E-18 -1.090338E+00  0.000000E+00
  1.565000E-01  5.904404E-02  5.000000E-01  1.580805E-01  5.952591E-02  0.000000E+00  2.476474E-02  4.380482E-03  9.805772E-19 -1.091553E+00  0.000000E+00
  1.430940E-01  5.653568E-02  5.000000E-01  1.445391E-01  5.699222E-02  0.000000E+00  2.525081E-02  4.995094E-03 -1.493447E-18 -1.094027E+00  0.000000E+00
  1.303270E-01  5.387507E-02  5.000000E-01  1.316432E-01  5.430474E-02  0.000000E+00  2.569853E-02  5.683271E-03 -1.957604E-18 -1.088649E+00  0.000000E+00
  1.182110E-01  5.104502E-02  5.000000E-01  1.194048E-01  5.144611E-02  0.000000E+00  2.609994E-02  6.473921E-03  1.259184E-18 -1.061773E+00  0.000000E+00
  1.067560E-01  4.804306E-02  5.000000E-01  1.078342E-01  4.841383E-02  0.000000E+00  2.634319E-02  7.306649E-03  2.030193E-18 -1.006928E+00  0.000000E+00
  9.596750E-02  4.488782E-02  5.000000E-01  9.693670E-02  4.522673E-02  0.000000E+00  2.627974E-02  8.025906E-03 -6.929939E-19 -9.347343E-01  0.000000E+00
  8.582800E-02  4.165648E-02  5.000000E-01  8.669480E-02  4.196275E-02  0.000000E+00  2.587674E-02  8.505659E-03 -2.049594E-18 -8.649785E-01  0.000000E+00
  8.582800E-02  4.165648E-02  5.000000E-01  8.669480E-02  4.196275E-02  0.000000E+00  2.587674E-02  8.505659E-03 -2.049594E-18 -8.649785E-01  0.000000E+00
  7.631050E-02  3.842936E-02  5.000000E-01  7.708118E-02  3.870304E-02  0.000000E+00  2.528903E-02  8.830869E-03 -1.820311E-18 -8.020009E-01  0.000000E+00
  6.740780E-02  3.522886E-02  5.000000E-01  6.808857E-02  3.547021E-02  0.000000E+00  2.468550E-02  9.143549E-03  6.208235E-19 -7.394712E-01  0.000000E+00
  5.911740E-02  3.206604E-02  5.000000E-01  5.971444E-02  3.227546E-02  0.000000E+00  2.412345E-02  9.468271E-03  2.794692E-18 -6.753368E-01  0.000000E+00
  5.143150E-02  2.896327E-02  5.000000E-01  5.195092E-02  2.914135E-02  0.000000E+00  2.359069E-02  9.774397E-03  2.200809E-18 -6.106928E-01  0.000000E+00
  4.433770E-02  2.594713E-02  5.000000E-01  4.478548E-02  2.609475E-02  0.000000E+00  2.306035E-02  1.004103E-02  1.365645E-18 -5.478595E-01  0.000000E+00
  3.782240E-02  2.304195E-02  5.000000E-01  3.820438E-02  2.316023E-02  0.000000E+00  2.251950E-02  1.027236E-02  1.399308E-19 -4.900289E-01  0.000000E+00
  3.187460E-02  2.026568E-02  5.000000E-01  3.219651E-02  2.035593E-02  0.000000E+00  2.197997E-02  1.049251E-02 -2.293947E-18 -4.400605E-01  0.000000E+00
  2.648400E-02  1.763310E-02  5.000000E-01  2.675147E-02  1.769676E-02  0.000000E+00  2.146923E-02  1.075798E-02 -8.272425E-18 -3.938189E-01  0.000000E+00
  2.164990E-02  1.514893E-02  5.000000E-01  2.186855E-02  1.518749E-02  0.000000E+00  2.096856E-02  1.111267E-02 -1.970948E-17 -3.382395E-01  0.000000E+00
  1.737670E-02  1.281574E-02  5.000000E-01  1.755220E-02  1.283074E-02  0.000000E+00  2.036723E-02  1.144741E-02 -4.291999E-17 -2.689894E-01  0.000000E+00
  1.364080E-02  1.065426E-02  5.000000E-01  1.377857E-02  1.064743E-02  0.000000E+00  1.956665E-02  1.155598E-02 -8.298769E-17 -2.013467E-01  0.000000E+00
  1.039090E-02  8.692683E-03  5.000000E-01  1.049584E-02  8.666049E-03  0.000000E+00  1.861863E-02  1.141870E-02 -1.303822E-16 -1.542649E-01  0.000000E+00
  7.586340E-03  6.943341E-03  5.000000E-01  7.662961E-03  6.899039E-03  0.000000E+00  1.771445E-02  1.132344E-02 -1.542229E-16 -1.316440E-01  0.000000E+00
  5.226210E-03  5.396764E-03  5.000000E-01  5.278996E-03  5.336843E-03  0.000000E+00  1.710713E-02  1.169678E-02 -1.003316E-16 -1.289342E-01  0.000000E+00
  3.324300E-03  4.040059E-03  5.000000E-01  3.357878E-03  3.966437E-03  0.000000E+00  1.713654E-02  1.307446E-02  9.381094E-17 -1.455145E-01  0.000000E+00
  1.883580E-03  2.869564E-03  5.000000E-01  1.902608E-03  2.784120E-03  0.000000E+00  1.811509E-02  1.641193E-02  4.725314E-16 -1.663158E-01  0.000000E+00
  8.951490E-04  1.889378E-03  5.000000E-01  9.041944E-04  1.794035E-03  0.000000E+00  1.944156E-02  2.295083E-02  1.042824E-15 -1.395711E-01  0.000000E+00
  3.201820E-04  1.112172E-03  5.000000E-01  3.234207E-04  1.008981E-03  0.000000E+00  1.841115E-02  3.227504E-02  1.794340E-15 -1.858352E-03  0.000000E+00
  6.852390E-05  5.535446E-04  5.000000E-01  6.922102E-05  4.447111E-04  0.000000E+00  1.263394E-02  3.984165E-02  2.679897E-15  2.038331E-01  0.000000E+00
  4.217600E-06  2.222542E-04  5.000000E-01  4.265278E-06  1.100750E-04  0.000000E+00  5.064093E-03  4.356544E-02  3.584076E-15  2.751416E-01  0.000000E+00
 -5.032520E-09  1.132798E-04  5.000000E-01  0.000000E+00  0.000000E+00  0.000000E+00 -1.059338E-03  5.358566E-02  4.430970E-15  2.150014E-01  0.000000E+00
  5.154440E-06  4.471089E-06  5.000000E-01  5.211579E-06 -1.099076E-04  0.000000E+00 -8.365557E-03  5.870702E-02  5.070078E-15  3.757034E-01  0.000000E+00