 Title = "ADflow Slice Data"
Variables =  "CoordinateX"  "CoordinateY"  "CoordinateZ"  "XoC"  "YoC"  "ZoC" "VelocityX" "VelocityY" "VelocityZ" "CoefPressure" "Mach" 
Zone T= "Slice_0001 None Absolute Regular z = 0.50000000"
 Nodes =          192  Elements=          184  ZONETYPE=FELINESEG
 DATAPACKING=POINT
  5.653940E-01  3.735904E-03  5.000000E-01  5.711038E-01  3.832028E-03  0.000000E+00  8.669268E-03 -5.616429E-04 -9.359673E-19  3.154961E-01  0.000000E+00
  5.859770E-01  2.131120E-03  5.000000E-01  5.918947E-01  2.211037E-03  0.000000E+00  1.008905E-02 -8.328957E-04  3.758587E-19  2.549523E-01  0.000000E+00
  6.063060E-01  3.697397E-04  5.000000E-01  6.124290E-01  4.318691E-04  0.000000E+00  1.143075E-02 -9.408358E-04  1.317190E-18  1.809435E-01  0.000000E+00
  6.263240E-01 -1.198208E-03  5.000000E-01  6.326492E-01 -1.151913E-03  0.000000E+00  1.246872E-02 -8.381852E-04 -2.399452E-19  1.090929E-01  0.000000E+00
  6.459860E-01 -2.314706E-03  5.000000E-01  6.525097E-01 -2.279687E-03  0.000000E+00  1.300287E-02 -5.267175E-04 -7.558525E-19  5.032060E-02  0.000000E+00
  6.652460E-01 -2.787353E-03  5.000000E-01  6.719642E-01 -2.757107E-03  0.000000E+00  1.292766E-02 -7.703253E-05  1.094463E-20  1.272664E-02  0.000000E+00
  6.840650E-01 -2.536023E-03  5.000000E-01  6.909733E-01 -2.503238E-03  0.000000E+00  1.229070E-02  3.720968E-04 -4.429329E-19  5.178642E-03  0.000000E+00
  7.024070E-01 -1.643207E-03  5.000000E-01  7.095005E-01 -1.601406E-03  0.000000E+00  1.125708E-02  7.034987E-04 -5.774712E-19  2.799326E-02  0.000000E+00
  7.202400E-01 -2.547397E-04  5.000000E-01  7.275136E-01 -1.989169E-04  0.000000E+00  1.002237E-02  8.795640E-04  5.250266E-19  7.073982E-02  0.000000E+00
  7.375350E-01  1.456156E-03  5.000000E-01  7.449833E-01  1.529257E-03  0.000000E+00  8.760920E-03  9.181355E-04 -9.277958E-21  1.220328E-01  0.000000E+00
  7.542690E-01  3.321420E-03  5.000000E-01  7.618863E-01  3.413358E-03  0.000000E+00  7.604325E-03  8.642717E-04 -3.846757E-19  1.737474E-01  0.000000E+00
  7.704220E-01  5.195784E-03  5.000000E-01  7.782024E-01  5.306651E-03  0.000000E+00  6.638205E-03  7.633743E-04  3.891216E-19  2.208478E-01  0.000000E+00
  7.859770E-01  6.965336E-03  5.000000E-01  7.939145E-01  7.094074E-03  0.000000E+00  5.915939E-03  6.396523E-04  6.132196E-19  2.622645E-01  0.000000E+00
  8.009220E-01  8.491105E-03  5.000000E-01  8.090104E-01  8.635250E-03  0.000000E+00  5.466664E-03  5.013359E-04  9.287128E-19  2.982039E-01  0.000000E+00
  8.152480E-01  9.646414E-03  5.000000E-01  8.234811E-01  9.802228E-03  0.000000E+00  5.276426E-03  3.621748E-04  1.008297E-18  3.243376E-01  0.000000E+00
  8.289490E-01  1.041599E-02  5.000000E-01  8.373204E-01  1.057958E-02  0.000000E+00  5.290793E-03  2.345410E-04  5.682562E-19  3.377956E-01  0.000000E+00
  8.420260E-01  1.084336E-02  5.000000E-01  8.505295E-01  1.101126E-02  0.000000E+00  5.446752E-03  1.193357E-04  2.178749E-19  3.420019E-01  0.000000E+00
  8.544790E-01  1.098841E-02  5.000000E-01  8.631083E-01  1.115778E-02  0.000000E+00  5.691319E-03  1.371153E-05 -1.143895E-19  3.410961E-01  0.000000E+00
  8.663160E-01  1.091333E-02  5.000000E-01  8.750648E-01  1.108193E-02  0.000000E+00  5.982229E-03 -8.376450E-05 -4.410262E-19  3.371053E-01  0.000000E+00
  8.775420E-01  1.067448E-02  5.000000E-01  8.864042E-01  1.084068E-02  0.000000E+00  6.285738E-03 -1.723878E-04 -1.924935E-19  3.309720E-01  0.000000E+00
  8.881660E-01  1.032076E-02  5.000000E-01  8.971355E-01  1.048339E-02  0.000000E+00  6.577086E-03 -2.505006E-04  1.104847E-19  3.234717E-01  0.000000E+00
  8.981970E-01  9.892594E-03  5.000000E-01  9.072678E-01  1.005089E-02  0.000000E+00  6.842502E-03 -3.188302E-04 -2.354619E-19  3.155357E-01  0.000000E+00
  9.076460E-01  9.417010E-03  5.000000E-01  9.168122E-01  9.570507E-03  0.000000E+00  7.080682E-03 -3.823588E-04 -7.384434E-19  3.081785E-01  0.000000E+00
  9.165220E-01  8.906415E-03  5.000000E-01  9.257778E-01  9.054755E-03  0.000000E+00  7.298690E-03 -4.457330E-04 -3.084287E-19  3.015271E-01  0.000000E+00
  9.165220E-01  8.906415E-03  5.000000E-01  9.257778E-01  9.054755E-03  0.000000E+00  7.298690E-03 -4.457330E-04 -3.084287E-19  3.015271E-01  0.000000E+00
  9.248360E-01  8.369899E-03  5.000000E-01  9.341758E-01  8.512821E-03  0.000000E+00  7.504833E-03 -5.102513E-04 -1.840949E-20  2.949168E-01  0.000000E+00
  9.325990E-01  7.815846E-03  5.000000E-01  9.420172E-01  7.953172E-03  0.000000E+00  7.706205E-03 -5.764129E-04  3.376809E-19  2.880232E-01  0.000000E+00
  9.398210E-01  7.251530E-03  5.000000E-01  9.493121E-01  7.383158E-03  0.000000E+00  7.909307E-03 -6.450362E-04  8.581472E-19  2.808391E-01  0.000000E+00
  9.465130E-01  6.683498E-03  5.000000E-01  9.560717E-01  6.809389E-03  0.000000E+00  8.120036E-03 -7.169526E-04  5.382101E-19  2.733123E-01  0.000000E+00
  9.526870E-01  6.117839E-03  5.000000E-01  9.623081E-01  6.238017E-03  0.000000E+00  8.343223E-03 -7.928909E-04  3.079565E-19  2.653336E-01  0.000000E+00
  9.583540E-01  5.560442E-03  5.000000E-01  9.680323E-01  5.674991E-03  0.000000E+00  8.582596E-03 -8.734136E-04 -1.828149E-19  2.567986E-01  0.000000E+00
  9.635240E-01  5.017173E-03  5.000000E-01  9.732545E-01  5.126236E-03  0.000000E+00  8.841221E-03 -9.587532E-04 -8.205671E-19  2.476028E-01  0.000000E+00
  9.682080E-01  4.493944E-03  5.000000E-01  9.779858E-01  4.597723E-03  0.000000E+00  9.123029E-03 -1.049255E-03 -7.302696E-19  2.376989E-01  0.000000E+00
  9.724140E-01  3.996730E-03  5.000000E-01  9.822343E-01  4.095488E-03  0.000000E+00  9.435068E-03 -1.145437E-03 -2.620167E-19  2.270828E-01  0.000000E+00
  9.761510E-01  3.531530E-03  5.000000E-01  9.860090E-01  3.625590E-03  0.000000E+00  9.787682E-03 -1.247637E-03 -1.610939E-19  2.157248E-01  0.000000E+00
  9.794290E-01  3.104222E-03  5.000000E-01  9.893201E-01  3.193966E-03  0.000000E+00  1.018787E-02 -1.356276E-03 -3.818746E-19  2.036287E-01  0.000000E+00
  9.822540E-01  2.720511E-03  5.000000E-01  9.921737E-01  2.806381E-03  0.000000E+00  1.062225E-02 -1.469889E-03  1.337327E-20  1.910320E-01  0.000000E+00
  9.846330E-01  2.385720E-03  5.000000E-01  9.945767E-01  2.468208E-03  0.000000E+00  1.104028E-02 -1.578874E-03  1.410806E-18  1.791643E-01  0.000000E+00
  9.865710E-01  2.104656E-03  5.000000E-01  9.965342E-01  2.184307E-03  0.000000E+00  1.131765E-02 -1.652707E-03  2.379246E-18  1.669008E-01  0.000000E+00
  9.880740E-01  1.881481E-03  5.000000E-01  9.980524E-01  1.958877E-03  0.000000E+00  1.124717E-02 -1.687772E-03 -2.167804E-18  1.479415E-01  0.000000E+00
  9.891450E-01  1.719561E-03  5.000000E-01  9.991342E-01  1.795322E-03  0.000000E+00  1.149005E-02 -1.828575E-03 -2.527216E-17  1.485889E-01  0.000000E+00
  9.897860E-01  1.621390E-03  5.000000E-01  9.997817E-01  1.696160E-03  0.000000E+00  1.487076E-02 -1.812889E-03 -7.294429E-17  1.956820E-01  0.000000E+00
  9.900000E-01  1.588501E-03  5.000000E-01  9.999979E-01  1.662939E-03  0.000000E+00  1.039972E-02 -4.191557E-03 -7.706769E-17 -4.290731E-02  0.000000E+00
  9.900000E-01  1.667212E-03  5.000000E-01  9.999979E-01  1.742444E-03  0.000000E+00  1.042219E-03 -1.451201E-02  7.061094E-18 -1.782524E-01  0.000000E+00
  9.900000E-01  1.745932E-03  5.000000E-01  9.999979E-01  1.821959E-03  0.000000E+00 -5.190627E-04 -1.364783E-02  8.800928E-17 -4.961034E-03  0.000000E+00
  9.900000E-01  1.824652E-03  5.000000E-01  9.999979E-01  1.901475E-03  0.000000E+00 -3.001212E-04  2.534342E-03  1.036883E-16 -9.268246E-03  0.000000E+00
  9.900000E-01  1.903363E-03  5.000000E-01  9.999979E-01  1.980980E-03  0.000000E+00  7.095522E-04  3.907322E-03  1.314540E-16 -1.267453E-01  0.000000E+00
  9.900000E-01  1.982083E-03  5.000000E-01  9.999979E-01  2.060495E-03  0.000000E+00  5.852309E-03 -2.504059E-03  1.697246E-16 -3.295495E-02  0.000000E+00
  9.900000E-01  1.982083E-03  5.000000E-01  9.999979E-01  2.060495E-03  0.000000E+00  5.852309E-03 -2.504059E-03  1.697246E-16 -3.295495E-02  0.000000E+00
  9.897900E-01  2.024576E-03  5.000000E-01  9.997858E-01  2.103417E-03  0.000000E+00  7.609260E-03 -1.870763E-03  1.223757E-16  1.087174E-01  0.000000E+00
  9.891580E-01  2.151958E-03  5.000000E-01  9.991474E-01  2.232086E-03  0.000000E+00  4.735637E-03 -8.931995E-04  4.182345E-17  6.601767E-02  0.000000E+00
  9.881040E-01  2.363979E-03  5.000000E-01  9.980827E-01  2.446248E-03  0.000000E+00  4.027924E-03 -8.071182E-04  4.516141E-18  5.598089E-02  0.000000E+00
  9.866260E-01  2.660196E-03  5.000000E-01  9.965898E-01  2.745456E-03  0.000000E+00  3.882637E-03 -7.819457E-04 -3.982472E-18  5.780333E-02  0.000000E+00
  9.847200E-01  3.039964E-03  5.000000E-01  9.946646E-01  3.129060E-03  0.000000E+00  3.830463E-03 -7.600006E-04 -3.048306E-18  5.263646E-02  0.000000E+00
  9.823820E-01  3.502422E-03  5.000000E-01  9.923029E-01  3.596188E-03  0.000000E+00  3.899553E-03 -7.673950E-04 -1.537972E-18  4.476402E-02  0.000000E+00
  9.796080E-01  4.046455E-03  5.000000E-01  9.895009E-01  4.145715E-03  0.000000E+00  4.071213E-03 -7.941699E-04 -1.134944E-18  3.621109E-02  0.000000E+00
  9.763910E-01  4.670683E-03  5.000000E-01  9.862514E-01  4.776247E-03  0.000000E+00  4.306152E-03 -8.306289E-04 -9.874496E-19  2.648373E-02  0.000000E+00
  9.727270E-01  5.373376E-03  5.000000E-01  9.825504E-01  5.486037E-03  0.000000E+00  4.578228E-03 -8.717131E-04 -6.476063E-19  1.550192E-02  0.000000E+00
  9.686070E-01  6.152541E-03  5.000000E-01  9.783888E-01  6.273071E-03  0.000000E+00  4.871507E-03 -9.139011E-04 -2.672849E-19  3.527393E-03  0.000000E+00
  9.640240E-01  7.005797E-03  5.000000E-01  9.737595E-01  7.134943E-03  0.000000E+00  5.176713E-03 -9.549988E-04  1.007709E-18 -9.260368E-03  0.000000E+00
  9.589680E-01  7.930442E-03  5.000000E-01  9.686525E-01  8.068925E-03  0.000000E+00  5.489268E-03 -9.938927E-04  1.863976E-18 -2.270456E-02  0.000000E+00
  9.534310E-01  8.923431E-03  5.000000E-01  9.630596E-01  9.071942E-03  0.000000E+00  5.806602E-03 -1.029925E-03  5.970374E-19 -3.664981E-02  0.000000E+00
  9.474030E-01  9.981428E-03  5.000000E-01  9.569707E-01  1.014062E-02  0.000000E+00  6.125983E-03 -1.062261E-03 -5.890751E-19 -5.085283E-02  0.000000E+00
  9.408720E-01  1.110083E-02  5.000000E-01  9.503737E-01  1.127133E-02  0.000000E+00  6.443414E-03 -1.090220E-03 -8.327905E-19 -6.513271E-02  0.000000E+00
  9.338280E-01  1.227788E-02  5.000000E-01  9.432586E-01  1.246027E-02  0.000000E+00  6.754150E-03 -1.113226E-03 -5.564660E-19 -7.933060E-02  0.000000E+00
  9.262600E-01  1.350878E-02  5.000000E-01  9.356142E-01  1.370360E-02  0.000000E+00  7.052914E-03 -1.130507E-03 -2.563502E-20 -9.322304E-02  0.000000E+00
  9.181550E-01  1.478955E-02  5.000000E-01  9.274273E-01  1.499731E-02  0.000000E+00  7.333726E-03 -1.141499E-03  8.287782E-19 -1.066582E-01  0.000000E+00
  9.095020E-01  1.611652E-02  5.000000E-01  9.186869E-01  1.633767E-02  0.000000E+00  7.590263E-03 -1.145721E-03  9.597685E-19 -1.193934E-01  0.000000E+00
  9.002880E-01  1.748591E-02  5.000000E-01  9.093799E-01  1.772089E-02  0.000000E+00  7.815377E-03 -1.142871E-03 -9.590302E-20 -1.309922E-01  0.000000E+00
  8.905020E-01  1.889434E-02  5.000000E-01  8.994951E-01  1.914355E-02  0.000000E+00  8.001213E-03 -1.134135E-03 -4.702638E-19 -1.412265E-01  0.000000E+00
  8.801320E-01  2.034216E-02  5.000000E-01  8.890203E-01  2.060599E-02  0.000000E+00  8.142169E-03 -1.122450E-03 -3.268408E-19 -1.502869E-01  0.000000E+00
  8.691700E-01  2.183427E-02  5.000000E-01  8.779476E-01  2.211317E-02  0.000000E+00  8.238301E-03 -1.110850E-03  4.338386E-19 -1.585267E-01  0.000000E+00
  8.691700E-01  2.183427E-02  5.000000E-01  8.779476E-01  2.211317E-02  0.000000E+00  8.238301E-03 -1.110850E-03  4.338386E-19 -1.585267E-01  0.000000E+00
  8.576080E-01  2.337866E-02  5.000000E-01  8.662689E-01  2.367316E-02  0.000000E+00  8.296260E-03 -1.102024E-03 -6.209261E-20 -1.662216E-01  0.000000E+00
  8.454380E-01  2.498647E-02  5.000000E-01  8.539760E-01  2.529720E-02  0.000000E+00  8.328613E-03 -1.099446E-03 -1.103441E-18 -1.737459E-01  0.000000E+00
  8.326580E-01  2.667268E-02  5.000000E-01  8.410669E-01  2.700044E-02  0.000000E+00  8.353995E-03 -1.107099E-03  5.421329E-20 -1.819814E-01  0.000000E+00
  8.192630E-01  2.845580E-02  5.000000E-01  8.275366E-01  2.880157E-02  0.000000E+00  8.397928E-03 -1.129052E-03  1.082261E-18 -1.929174E-01  0.000000E+00
  8.052550E-01  3.035652E-02  5.000000E-01  8.133872E-01  3.072149E-02  0.000000E+00  8.493236E-03 -1.166954E-03  8.791065E-19 -2.090076E-01  0.000000E+00
  7.906370E-01  3.238845E-02  5.000000E-01  7.986215E-01  3.277394E-02  0.000000E+00  8.674326E-03 -1.214724E-03  7.886569E-19 -2.306029E-01  0.000000E+00
  7.754120E-01  3.453624E-02  5.000000E-01  7.832428E-01  3.494341E-02  0.000000E+00  8.960527E-03 -1.261131E-03 -9.769285E-20 -2.557258E-01  0.000000E+00
  7.595880E-01  3.675855E-02  5.000000E-01  7.672590E-01  3.718817E-02  0.000000E+00  9.344012E-03 -1.300608E-03  2.188696E-19 -2.833379E-01  0.000000E+00
  7.431760E-01  3.902263E-02  5.000000E-01  7.506812E-01  3.947511E-02  0.000000E+00  9.799883E-03 -1.330668E-03  1.855696E-18 -3.128828E-01  0.000000E+00
  7.261880E-01  4.129398E-02  5.000000E-01  7.335217E-01  4.176940E-02  0.000000E+00  1.029719E-02 -1.345531E-03  1.809651E-18 -3.423204E-01  0.000000E+00
  7.086430E-01  4.353657E-02  5.000000E-01  7.157995E-01  4.403464E-02  0.000000E+00  1.080072E-02 -1.340447E-03  8.001835E-19 -3.691639E-01  0.000000E+00
  6.905640E-01  4.571766E-02  5.000000E-01  6.975379E-01  4.623775E-02  0.000000E+00  1.127580E-02 -1.316835E-03  8.252033E-19 -3.925599E-01  0.000000E+00
  6.719770E-01  4.781919E-02  5.000000E-01  6.787632E-01  4.836051E-02  0.000000E+00  1.169743E-02 -1.284670E-03  1.779829E-18 -4.150832E-01  0.000000E+00
  6.529150E-01  4.985095E-02  5.000000E-01  6.595087E-01  5.041278E-02  0.000000E+00  1.206413E-02 -1.248059E-03  5.976500E-19 -4.388236E-01  0.000000E+00
  6.334180E-01  5.180824E-02  5.000000E-01  6.398148E-01  5.238984E-02  0.000000E+00  1.238900E-02 -1.195650E-03 -1.065665E-18 -4.613451E-01  0.000000E+00
  6.135280E-01  5.365326E-02  5.000000E-01  6.197239E-01  5.425349E-02  0.000000E+00  1.266793E-02 -1.122827E-03 -1.577875E-18 -4.797073E-01  0.000000E+00
  5.932910E-01  5.536568E-02  5.000000E-01  5.992826E-01  5.598321E-02  0.000000E+00  1.287880E-02 -1.040088E-03 -1.959704E-18 -4.929695E-01  0.000000E+00
  5.727570E-01  5.694683E-02  5.000000E-01  5.785412E-01  5.758033E-02  0.000000E+00  1.300474E-02 -9.620954E-04 -1.099297E-18 -5.017335E-01  0.000000E+00
  5.519810E-01  5.842199E-02  5.000000E-01  5.575554E-01  5.907038E-02  0.000000E+00  1.305126E-02 -9.039661E-04 -2.158178E-20 -5.092326E-01  0.000000E+00
  5.310180E-01  5.983738E-02  5.000000E-01  5.363807E-01  6.050007E-02  0.000000E+00  1.305924E-02 -8.732773E-04 -4.309883E-19 -5.201287E-01  0.000000E+00
  5.099250E-01  6.123321E-02  5.000000E-01  5.150747E-01  6.190999E-02  0.000000E+00  1.309994E-02 -8.679777E-04 -8.674692E-19 -5.390095E-01  0.000000E+00
  4.887640E-01  6.263565E-02  5.000000E-01  4.937000E-01  6.332659E-02  0.000000E+00  1.325851E-02 -8.764190E-04 -2.197735E-19 -5.682951E-01  0.000000E+00
  4.675910E-01  6.403148E-02  5.000000E-01  4.723131E-01  6.473652E-02  0.000000E+00  1.361032E-02 -8.795513E-04  1.401456E-19 -6.073094E-01  0.000000E+00
  7.860720E-05 -1.346920E-03  5.000000E-01  7.940613E-05 -1.302127E-03  0.000000E+00 -1.045642E-03  8.533794E-03  5.542489E-18  9.633110E-01  0.000000E+00
  3.989240E-04 -2.896245E-03  5.000000E-01  4.029578E-04 -2.867099E-03  0.000000E+00 -6.674838E-04  3.126426E-03 -4.580843E-18  1.055368E+00  0.000000E+00
  1.196920E-03 -4.829462E-03  5.000000E-01  1.209013E-03 -4.819839E-03  0.000000E+00  1.374957E-03 -1.997120E-03 -6.101795E-18  1.067566E+00  0.000000E+00
  2.563580E-03 -6.892149E-03  5.000000E-01  2.589474E-03 -6.903357E-03  0.000000E+00  4.733691E-03 -5.648092E-03 -3.926636E-18  9.778679E-01  0.000000E+00
  4.492740E-03 -8.933893E-03  5.000000E-01  4.538117E-03 -8.965720E-03  0.000000E+00  8.421784E-03 -7.589174E-03 -6.358295E-19  8.275574E-01  0.000000E+00
  6.952190E-03 -1.089669E-02  5.000000E-01  7.022404E-03 -1.094834E-02  0.000000E+00  1.175635E-02 -8.334475E-03 -1.058130E-18  6.660335E-01  0.000000E+00
  9.910730E-03 -1.278655E-02  5.000000E-01  1.001082E-02 -1.285729E-02  0.000000E+00  1.458931E-02 -8.483584E-03 -4.366969E-18  5.194260E-01  0.000000E+00
  1.334950E-02 -1.462072E-02  5.000000E-01  1.348432E-02 -1.470997E-02  0.000000E+00  1.695623E-02 -8.118187E-03 -6.408882E-18  3.743650E-01  0.000000E+00
  1.728780E-02 -1.632043E-02  5.000000E-01  1.746239E-02 -1.642685E-02  0.000000E+00  1.865413E-02 -6.998604E-03 -6.813817E-18  2.158524E-01  0.000000E+00
  2.175590E-02 -1.776234E-02  5.000000E-01  2.197561E-02 -1.788333E-02  0.000000E+00  1.938186E-02 -5.266245E-03 -5.916469E-18  7.334647E-02  0.000000E+00
  2.676920E-02 -1.886790E-02  5.000000E-01  2.703954E-02 -1.900005E-02  0.000000E+00  1.916114E-02 -3.440201E-03 -3.645688E-18 -1.246021E-02  0.000000E+00
  3.232800E-02 -1.962684E-02  5.000000E-01  3.265448E-02 -1.976666E-02  0.000000E+00  1.832872E-02 -1.933494E-03 -1.125528E-18 -3.421024E-02  0.000000E+00
  3.842930E-02 -2.006965E-02  5.000000E-01  3.881740E-02 -2.021394E-02  0.000000E+00  1.724176E-02 -8.624700E-04 -4.809030E-19 -1.460980E-02  0.000000E+00
  4.507220E-02 -2.024300E-02  5.000000E-01  4.552738E-02 -2.038904E-02  0.000000E+00  1.615180E-02 -1.894182E-04 -7.279069E-19  2.281292E-02  0.000000E+00
  5.225680E-02 -2.021754E-02  5.000000E-01  5.278454E-02 -2.036332E-02  0.000000E+00  1.520526E-02  1.792257E-04 -3.396480E-19  6.365372E-02  0.000000E+00
  5.998640E-02 -2.006053E-02  5.000000E-01  6.059220E-02 -2.020473E-02  0.000000E+00  1.441691E-02  3.795023E-04  3.166134E-20  9.631979E-02  0.000000E+00
  6.827110E-02 -1.979197E-02  5.000000E-01  6.896057E-02 -1.993345E-02  0.000000E+00  1.372627E-02  5.099244E-04  3.053238E-20  1.182402E-01  0.000000E+00
  7.712280E-02 -1.941875E-02  5.000000E-01  7.790166E-02 -1.955646E-02  0.000000E+00  1.309384E-02  5.950056E-04 -4.483143E-21  1.365019E-01  0.000000E+00
  8.655260E-02 -1.895668E-02  5.000000E-01  8.742669E-02 -1.908972E-02  0.000000E+00  1.250777E-02  6.396399E-04  1.697764E-19  1.555103E-01  0.000000E+00
  9.657140E-02 -1.842207E-02  5.000000E-01  9.754667E-02 -1.854971E-02  0.000000E+00  1.195866E-02  6.567512E-04  2.147197E-19  1.740922E-01  0.000000E+00
  1.071900E-01 -1.782221E-02  5.000000E-01  1.082725E-01 -1.794380E-02  0.000000E+00  1.145169E-02  6.510730E-04 -1.188555E-20  1.916576E-01  0.000000E+00
  1.184180E-01 -1.717897E-02  5.000000E-01  1.196139E-01 -1.729406E-02  0.000000E+00  1.102439E-02  6.130642E-04 -2.234282E-19  2.097115E-01  0.000000E+00
  1.302610E-01 -1.654028E-02  5.000000E-01  1.315765E-01 -1.664892E-02  0.000000E+00  1.072635E-02  5.372798E-04 -1.683867E-19  2.272843E-01  0.000000E+00
  1.427230E-01 -1.596492E-02  5.000000E-01  1.441643E-01 -1.606775E-02  0.000000E+00  1.059236E-02  4.265769E-04 -1.074473E-19  2.411085E-01  0.000000E+00
  1.427230E-01 -1.596492E-02  5.000000E-01  1.441643E-01 -1.606775E-02  0.000000E+00  1.059236E-02  4.265769E-04 -1.074473E-19  2.411085E-01  0.000000E+00
  1.558070E-01 -1.551589E-02  5.000000E-01  1.573805E-01 -1.561419E-02  0.000000E+00  1.063012E-02  2.893846E-04 -1.270725E-19  2.479138E-01  0.000000E+00
  1.695140E-01 -1.523961E-02  5.000000E-01  1.712259E-01 -1.533512E-02  0.000000E+00  1.082102E-02  1.391603E-04  1.573849E-19  2.456423E-01  0.000000E+00
  1.838420E-01 -1.515753E-02  5.000000E-01  1.856986E-01 -1.525221E-02  0.000000E+00  1.113258E-02 -5.826439E-06  2.385827E-19  2.343142E-01  0.000000E+00
  1.987870E-01 -1.525633E-02  5.000000E-01  2.007945E-01 -1.535201E-02  0.000000E+00  1.152850E-02 -1.172313E-04  3.744668E-19  2.142242E-01  0.000000E+00
  2.143420E-01 -1.546931E-02  5.000000E-01  2.165066E-01 -1.556714E-02  0.000000E+00  1.198587E-02 -1.775182E-04  2.762901E-19  1.872158E-01  0.000000E+00
  2.304940E-01 -1.572445E-02  5.000000E-01  2.328217E-01 -1.582485E-02  0.000000E+00  1.251272E-02 -2.109284E-04 -2.473828E-19  1.595028E-01  0.000000E+00
  2.472290E-01 -1.602112E-02  5.000000E-01  2.497257E-01 -1.612452E-02  0.000000E+00  1.310336E-02 -2.369264E-04 -2.512066E-19  1.328201E-01  0.000000E+00
  2.645310E-01 -1.634095E-02  5.000000E-01  2.672025E-01 -1.644758E-02  0.000000E+00  1.367475E-02 -2.214380E-04 -3.678133E-19  1.015162E-01  0.000000E+00
  2.823750E-01 -1.659316E-02  5.000000E-01  2.852267E-01 -1.670234E-02  0.000000E+00  1.407019E-02 -1.058067E-04 -4.101936E-19  6.370884E-02  0.000000E+00
  3.007320E-01 -1.661325E-02  5.000000E-01  3.037691E-01 -1.672263E-02  0.000000E+00  1.411388E-02  1.466830E-04 -7.569923E-20  2.591453E-02  0.000000E+00
  3.195690E-01 -1.619944E-02  5.000000E-01  3.227963E-01 -1.630464E-02  0.000000E+00  1.368004E-02  5.172750E-04 -4.018237E-19 -1.614503E-03  0.000000E+00
  3.388440E-01 -1.514797E-02  5.000000E-01  3.422659E-01 -1.524255E-02  0.000000E+00  1.277551E-02  9.001193E-04 -5.642224E-19 -5.762614E-03  0.000000E+00
  3.585140E-01 -1.341389E-02  5.000000E-01  3.621346E-01 -1.349096E-02  0.000000E+00  1.155066E-02  1.160240E-03 -5.147499E-19  2.251178E-02  0.000000E+00
  3.785290E-01 -1.112402E-02  5.000000E-01  3.823517E-01 -1.117797E-02  0.000000E+00  1.018860E-02  1.251393E-03 -4.018109E-19  7.471939E-02  0.000000E+00
  3.988350E-01 -8.437375E-03  5.000000E-01  4.028628E-01 -8.464188E-03  0.000000E+00  8.836971E-03  1.206455E-03 -5.092058E-19  1.349826E-01  0.000000E+00
  4.193750E-01 -5.536082E-03  5.000000E-01  4.236102E-01 -5.533595E-03  0.000000E+00  7.614854E-03  1.077172E-03 -1.001666E-18  1.938903E-01  0.000000E+00
  4.400850E-01 -2.603371E-03  5.000000E-01  4.445294E-01 -2.571267E-03  0.000000E+00  6.621895E-03  9.098176E-04 -8.540488E-20  2.477707E-01  0.000000E+00
  4.609060E-01  1.581236E-04  5.000000E-01  4.655606E-01  2.181159E-04  0.000000E+00  5.946776E-03  7.297583E-04  1.206827E-18  2.955631E-01  0.000000E+00
  4.818030E-01  2.500130E-03  5.000000E-01  4.866687E-01  2.583774E-03  0.000000E+00  5.663391E-03  5.408837E-04 -8.665400E-20  3.352943E-01  0.000000E+00
  5.027520E-01  4.150045E-03  5.000000E-01  5.078292E-01  4.250351E-03  0.000000E+00  5.814470E-03  3.326436E-04 -4.466998E-19  3.614215E-01  0.000000E+00
  5.237130E-01  4.921306E-03  5.000000E-01  5.290019E-01  5.029401E-03  0.000000E+00  6.400688E-03  8.519382E-05  1.839803E-19  3.674737E-01  0.000000E+00
  5.446170E-01  4.766408E-03  5.000000E-01  5.501170E-01  4.872939E-03  0.000000E+00  7.383981E-03 -2.227758E-04 -5.340133E-19  3.525775E-01  0.000000E+00
  5.653940E-01  3.735904E-03  5.000000E-01  5.711038E-01  3.832028E-03  0.000000E+00  8.669268E-03 -5.616429E-04 -9.359673E-19  3.154961E-01  0.000000E+00
  4.675910E-01  6.403148E-02  5.000000E-01  4.723131E-01  6.473652E-02  0.000000E+00  1.361032E-02 -8.795513E-04  1.401456E-19 -6.073094E-01  0.000000E+00
  4.464640E-01  6.537021E-02  5.000000E-01  4.509728E-01  6.608877E-02  0.000000E+00  1.419593E-02 -8.622146E-04 -5.150170E-19 -6.551922E-01  0.000000E+00
  4.254410E-01  6.659396E-02  5.000000E-01  4.297375E-01  6.732488E-02  0.000000E+00  1.501955E-02 -8.093015E-04 -6.214539E-19 -7.113120E-01  0.000000E+00
  4.045840E-01  6.763186E-02  5.000000E-01  4.086698E-01  6.837326E-02  0.000000E+00  1.605438E-02 -6.996392E-04 -2.905817E-19 -7.739255E-01  0.000000E+00
  3.839530E-01  6.841008E-02  5.000000E-01  3.878305E-01  6.915934E-02  0.000000E+00  1.724222E-02 -5.091251E-04 -5.461123E-19 -8.383847E-01  0.000000E+00
  3.636060E-01  6.885448E-02  5.000000E-01  3.672780E-01  6.960823E-02  0.000000E+00  1.849268E-02 -2.155500E-04 -8.413980E-19 -8.946728E-01  0.000000E+00
  3.435960E-01  6.889924E-02  5.000000E-01  3.470659E-01  6.965344E-02  0.000000E+00  1.967824E-02  1.912562E-04 -6.159590E-19 -9.290303E-01  0.000000E+00
  3.239710E-01  6.849093E-02  5.000000E-01  3.272427E-01  6.924100E-02  0.000000E+00  2.062734E-02  6.739156E-04 -7.689827E-19 -9.343366E-01  0.000000E+00
  3.047740E-01  6.764534E-02  5.000000E-01  3.078519E-01  6.838687E-02  0.000000E+00  2.117795E-02  1.132531E-03 -4.158999E-19 -9.181582E-01  0.000000E+00
  2.860450E-01  6.646856E-02  5.000000E-01  2.889337E-01  6.719821E-02  0.000000E+00  2.129645E-02  1.496148E-03 -1.951270E-19 -8.917041E-01  0.000000E+00
  2.678190E-01  6.505148E-02  5.000000E-01  2.705237E-01  6.576682E-02  0.000000E+00  2.107705E-02  1.761980E-03 -6.357051E-19 -8.616589E-01  0.000000E+00
  2.501300E-01  6.346627E-02  5.000000E-01  2.526560E-01  6.416561E-02  0.000000E+00  2.064573E-02  1.947147E-03 -2.132536E-20 -8.315768E-01  0.000000E+00
  2.330040E-01  6.176815E-02  5.000000E-01  2.353571E-01  6.245034E-02  0.000000E+00  2.010510E-02  2.074426E-03  1.398490E-19 -8.000005E-01  0.000000E+00
  2.164660E-01  5.999528E-02  5.000000E-01  2.186521E-01  6.065956E-02  0.000000E+00  1.950455E-02  2.157704E-03  3.678273E-20 -7.634295E-01  0.000000E+00
  2.005340E-01  5.817796E-02  5.000000E-01  2.025592E-01  5.882389E-02  0.000000E+00  1.884150E-02  2.168733E-03  9.446040E-19 -7.262962E-01  0.000000E+00
  1.852230E-01  5.639829E-02  5.000000E-01  1.870935E-01  5.702625E-02  0.000000E+00  1.813690E-02  2.081314E-03  1.098791E-18 -6.993539E-01  0.000000E+00
  1.705440E-01  5.473611E-02  5.000000E-01  1.722663E-01  5.534727E-02  0.000000E+00  1.749167E-02  1.933939E-03  1.164824E-18 -6.903536E-01  0.000000E+00
  1.565000E-01  5.322142E-02  5.000000E-01  1.580805E-01  5.381729E-02  0.000000E+00  1.704228E-02  1.785900E-03  1.085225E-18 -7.064546E-01  0.000000E+00
  1.430940E-01  5.185536E-02  5.000000E-01  1.445391E-01  5.243744E-02  0.000000E+00  1.692354E-02  1.689924E-03  5.967123E-19 -7.525287E-01  0.000000E+00
  1.303270E-01  5.060419E-02  5.000000E-01  1.316432E-01  5.117363E-02  0.000000E+00  1.724590E-02  1.710128E-03  1.104152E-18 -8.219175E-01  0.000000E+00
  1.182110E-01  4.938949E-02  5.000000E-01  1.194048E-01  4.994666E-02  0.000000E+00  1.802272E-02  1.893979E-03  4.437051E-19 -8.987105E-01  0.000000E+00
  1.067560E-01  4.813719E-02  5.000000E-01  1.078341E-01  4.868172E-02  0.000000E+00  1.912206E-02  2.247897E-03 -7.123288E-20 -9.684220E-01  0.000000E+00
  9.596750E-02  4.678844E-02  5.000000E-01  9.693667E-02  4.731935E-02  0.000000E+00  2.030898E-02  2.704826E-03 -3.121532E-19 -1.034951E+00  0.000000E+00
  8.582800E-02  4.535695E-02  5.000000E-01  8.669477E-02  4.587340E-02  0.000000E+00  2.144622E-02  3.180594E-03 -8.692292E-19 -1.118550E+00  0.000000E+00
  8.582800E-02  4.535695E-02  5.000000E-01  8.669477E-02  4.587340E-02  0.000000E+00  2.144622E-02  3.180594E-03 -8.692292E-19 -1.118550E+00  0.000000E+00
  7.631050E-02  4.387828E-02  5.000000E-01  7.708115E-02  4.437979E-02  0.000000E+00  2.266564E-02  3.747711E-03 -2.978532E-19 -1.225615E+00  0.000000E+00
  6.740780E-02  4.232243E-02  5.000000E-01  6.808855E-02  4.280823E-02  0.000000E+00  2.419100E-02  4.574311E-03  2.862486E-19 -1.346667E+00  0.000000E+00
  5.911740E-02  4.064408E-02  5.000000E-01  5.971442E-02  4.111293E-02  0.000000E+00  2.609959E-02  5.760994E-03  7.214165E-19 -1.472735E+00  0.000000E+00
  5.143150E-02  3.881718E-02  5.000000E-01  5.195090E-02  3.926758E-02  0.000000E+00  2.829967E-02  7.348722E-03  8.176136E-19 -1.594947E+00  0.000000E+00
  4.433770E-02  3.683051E-02  5.000000E-01  4.478547E-02  3.726085E-02  0.000000E+00  3.059182E-02  9.360564E-03  1.535360E-19 -1.700358E+00  0.000000E+00
  3.782240E-02  3.467973E-02  5.000000E-01  3.820437E-02  3.508835E-02  0.000000E+00  3.271942E-02  1.181189E-02  7.336842E-19 -1.770080E+00  0.000000E+00
  3.187460E-02  3.235923E-02  5.000000E-01  3.219650E-02  3.274442E-02  0.000000E+00  3.438056E-02  1.467679E-02  2.429714E-18 -1.781221E+00  0.000000E+00
  2.648400E-02  2.986845E-02  5.000000E-01  2.675146E-02  3.022849E-02  0.000000E+00  3.525665E-02  1.792771E-02  2.469184E-18 -1.704850E+00  0.000000E+00
  2.164990E-02  2.719297E-02  5.000000E-01  2.186854E-02  2.752598E-02  0.000000E+00  3.495589E-02  2.140763E-02  7.132743E-19 -1.515912E+00  0.000000E+00
  1.737670E-02  2.432094E-02  5.000000E-01  1.755219E-02  2.462495E-02  0.000000E+00  3.308005E-02  2.434464E-02 -3.614624E-18 -1.236362E+00  0.000000E+00
  1.364080E-02  2.131159E-02  5.000000E-01  1.377856E-02  2.158521E-02  0.000000E+00  2.976570E-02  2.572538E-02 -9.732581E-18 -9.403791E-01  0.000000E+00
  1.039090E-02  1.828111E-02  5.000000E-01  1.049584E-02  1.852413E-02  0.000000E+00  2.577425E-02  2.547961E-02 -1.567481E-17 -6.866719E-01  0.000000E+00
  7.586340E-03  1.532255E-02  5.000000E-01  7.662958E-03  1.553569E-02  0.000000E+00  2.180248E-02  2.456995E-02 -1.638856E-17 -4.701205E-01  0.000000E+00
  5.226210E-03  1.246218E-02  5.000000E-01  5.278994E-03  1.264642E-02  0.000000E+00  1.810083E-02  2.385335E-02 -1.155633E-17 -2.576127E-01  0.000000E+00
  3.324300E-03  9.712649E-03  5.000000E-01  3.357877E-03  9.869131E-03  0.000000E+00  1.463113E-02  2.344695E-02 -1.443452E-17 -3.656813E-02  0.000000E+00
  1.883580E-03  7.120421E-03  5.000000E-01  1.902607E-03  7.250725E-03  0.000000E+00  1.126354E-02  2.308998E-02 -2.646242E-17  1.906811E-01  0.000000E+00
  8.951490E-04  4.761792E-03  5.000000E-01  9.041941E-04  4.868276E-03  0.000000E+00  7.927310E-03  2.242394E-02 -3.220747E-17  4.154219E-01  0.000000E+00
  3.201820E-04  2.748830E-03  5.000000E-01  3.234206E-04  2.834986E-03  0.000000E+00  4.782837E-03  2.103953E-02 -2.577152E-17  6.184328E-01  0.000000E+00
  6.852390E-05  1.212525E-03  5.000000E-01  6.922100E-05  1.283166E-03  0.000000E+00  2.254822E-03  1.870644E-02 -1.057694E-17  7.669644E-01  0.000000E+00
  4.217600E-06  2.619060E-04  5.000000E-01  4.265276E-06  3.229464E-04  0.000000E+00  6.807744E-04  1.604728E-02  8.891418E-18  8.186994E-01  0.000000E+00
 -5.032520E-09 -5.781157E-05  5.000000E-01  0.000000E+00  0.000000E+00  0.000000E+00 -7.655462E-05  1.447059E-02  2.263367E-17  8.156729E-01  0.000000E+00
  5.154440E-06 -3.806762E-04  5.000000E-01  5.211577E-06 -3.261252E-04  0.000000E+00 -5.792312E-04  1.262497E-02  2.013212E-17  8.611692E-01  0.000000E+00