 Title = "ADflow Slice Data"
Variables =  "CoordinateX"  "CoordinateY"  "CoordinateZ"  "XoC"  "YoC"  "ZoC" "VelocityX" "VelocityY" "VelocityZ" "CoefPressure" "Mach" 
Zone T= "Slice_0001 None Relative Regular z = 0.10000000"
 Nodes =          114  Elements=          106  ZONETYPE=FELINESEG
 DATAPACKING=POINT
  7.301402E-01  6.313826E-02  1.000000E-01  7.450358E-01  5.466477E-02  1.416125E-17  2.547566E-02 -3.943311E-03 -8.304441E-05 -4.066261E-01  0.000000E+00
  7.043967E-01  6.698014E-02  1.000000E-01  7.187665E-01  5.858513E-02 -4.248375E-17  2.652764E-02 -3.837160E-03 -7.363479E-05 -4.354865E-01  0.000000E+00
  6.775455E-01  7.072373E-02  1.000000E-01  6.913668E-01  6.240518E-02  3.965150E-16  2.736527E-02 -3.708375E-03 -6.921023E-05 -4.624173E-01  0.000000E+00
  6.496792E-01  7.437314E-02  1.000000E-01  6.629313E-01  6.612914E-02  4.248375E-17  2.803814E-02 -3.589420E-03 -7.211183E-05 -4.910692E-01  0.000000E+00
  6.209097E-01  7.795669E-02  1.000000E-01  6.335742E-01  6.978588E-02 -2.832250E-17  2.866859E-02 -3.489362E-03 -8.350241E-05 -5.239747E-01  0.000000E+00
  5.913667E-01  8.146140E-02  1.000000E-01  6.034278E-01  7.336217E-02 -2.832250E-17  2.940170E-02 -3.395621E-03 -1.027273E-04 -5.616760E-01  0.000000E+00
  5.611982E-01  8.485241E-02  1.000000E-01  5.726431E-01  7.682244E-02  0.000000E+00  3.034741E-02 -3.299317E-03 -1.274854E-04 -6.052764E-01  0.000000E+00
  5.305654E-01  8.807936E-02  1.000000E-01  5.413845E-01  8.011531E-02 -5.664500E-17  3.158562E-02 -3.190336E-03 -1.544312E-04 -6.567030E-01  0.000000E+00
  4.996398E-01  9.108512E-02  1.000000E-01  5.098273E-01  8.318247E-02  0.000000E+00  3.318605E-02 -3.042579E-03 -1.797745E-04 -7.171572E-01  0.000000E+00
  4.685986E-01  9.378270E-02  1.000000E-01  4.781520E-01  8.593515E-02  1.416125E-17  3.520449E-02 -2.808340E-03 -1.997594E-04 -7.851517E-01  0.000000E+00
  4.376215E-01  9.606097E-02  1.000000E-01  4.465423E-01  8.825995E-02 -8.496751E-17  3.764285E-02 -2.436312E-03 -2.109458E-04 -8.570033E-01  0.000000E+00
  4.068895E-01  9.780982E-02  1.000000E-01  4.151825E-01  9.004452E-02  0.000000E+00  4.041733E-02 -1.884273E-03 -2.107031E-04 -9.281992E-01  0.000000E+00
  3.765814E-01  9.893993E-02  1.000000E-01  3.842553E-01  9.119771E-02 -5.664500E-17  4.335152E-02 -1.143602E-03 -1.980143E-04 -9.962101E-01  0.000000E+00
  3.468696E-01  9.942106E-02  1.000000E-01  3.539367E-01  9.168867E-02 -5.664500E-17  4.627573E-02 -2.188893E-04 -1.745610E-04 -1.059404E+00  0.000000E+00
  3.179133E-01  9.923944E-02  1.000000E-01  3.243889E-01  9.150334E-02 -2.832250E-17  4.910330E-02  8.932098E-04 -1.445993E-04 -1.116407E+00  0.000000E+00
  2.898519E-01  9.839939E-02  1.000000E-01  2.957543E-01  9.064614E-02 -4.248375E-17  5.180020E-02  2.174426E-03 -1.130009E-04 -1.169520E+00  0.000000E+00
  2.628044E-01  9.693509E-02  1.000000E-01  2.681544E-01  8.915193E-02  0.000000E+00  5.439587E-02  3.606585E-03 -8.349912E-05 -1.222381E+00  0.000000E+00
  9.800000E-01  1.081359E-02  1.000000E-01  9.999992E-01  1.271329E-03 -2.832250E-17  1.057021E-02 -1.294234E-02 -1.869413E-04 -5.444625E-02  0.000000E+00
  9.720124E-01  1.286732E-02  1.000000E-01  9.918484E-01  3.367017E-03 -2.832250E-17  1.230260E-02 -3.233822E-03 -1.764810E-04  7.110313E-02  0.000000E+00
  9.632634E-01  1.512798E-02  1.000000E-01  9.829208E-01  5.673850E-03 -2.832250E-17  9.493348E-03 -2.389468E-03 -1.508200E-04  2.402439E-02  0.000000E+00
  9.536907E-01  1.758246E-02  1.000000E-01  9.731526E-01  8.178461E-03 -2.832250E-17  7.764704E-03 -1.978087E-03 -1.332143E-04  5.356074E-03  0.000000E+00
  9.432303E-01  2.021337E-02  1.000000E-01  9.624784E-01  1.086311E-02  1.416125E-17  7.463214E-03 -1.858855E-03 -1.267834E-04 -1.502720E-02  0.000000E+00
  9.318220E-01  2.302263E-02  1.000000E-01  9.508371E-01  1.372975E-02  1.416125E-17  8.261958E-03 -2.010492E-03 -1.277708E-04 -4.107883E-02  0.000000E+00
  9.194070E-01  2.601188E-02  1.000000E-01  9.381685E-01  1.678006E-02 -8.496751E-17  9.665838E-03 -2.297949E-03 -1.317695E-04 -6.882950E-02  0.000000E+00
  9.059278E-01  2.917775E-02  1.000000E-01  9.244140E-01  2.001059E-02 -5.664500E-17  1.127808E-02 -2.612646E-03 -1.358411E-04 -9.805484E-02  0.000000E+00
  8.913299E-01  3.251295E-02  1.000000E-01  9.095179E-01  2.341392E-02  0.000000E+00  1.291492E-02 -2.908801E-03 -1.385235E-04 -1.292163E-01  0.000000E+00
  8.755643E-01  3.601103E-02  1.000000E-01  8.934304E-01  2.698344E-02 -2.832250E-17  1.455418E-02 -3.180397E-03 -1.392557E-04 -1.623760E-01  0.000000E+00
  8.585885E-01  3.966042E-02  1.000000E-01  8.761077E-01  3.070738E-02  4.106763E-16  1.622345E-02 -3.427530E-03 -1.377866E-04 -1.970437E-01  0.000000E+00
  8.403666E-01  4.343857E-02  1.000000E-01  8.575137E-01  3.456270E-02  3.965150E-16  1.791760E-02 -3.642161E-03 -1.338402E-04 -2.325501E-01  0.000000E+00
  8.208730E-01  4.731640E-02  1.000000E-01  8.376219E-01  3.851974E-02 -8.496751E-17  1.959989E-02 -3.814280E-03 -1.272478E-04 -2.685180E-01  0.000000E+00
  8.000947E-01  5.126302E-02  1.000000E-01  8.164192E-01  4.254697E-02 -2.832250E-17  2.123358E-02 -3.935991E-03 -1.181560E-04 -3.046264E-01  0.000000E+00
  7.780326E-01  5.524242E-02  1.000000E-01  7.939065E-01  4.660765E-02 -2.832250E-17  2.278509E-02 -4.000407E-03 -1.070644E-04 -3.403402E-01  0.000000E+00
  7.547032E-01  5.921488E-02  1.000000E-01  7.701006E-01  5.066125E-02  4.389988E-16  2.421489E-02 -4.002246E-03 -9.488030E-05 -3.747147E-01  0.000000E+00
  7.301402E-01  6.313826E-02  1.000000E-01  7.450358E-01  5.466477E-02  2.832250E-17  2.547566E-02 -3.943311E-03 -8.304441E-05 -4.066261E-01  0.000000E+00
  2.444131E-01 -4.227989E-03  1.000000E-01  2.493874E-01 -1.407748E-02  3.681925E-16  2.825760E-02  9.809650E-04  5.322320E-05  1.753543E-01  0.000000E+00
  2.700250E-01 -3.354398E-03  1.000000E-01  2.755225E-01 -1.318605E-02 -4.248375E-17  2.864048E-02  9.418967E-04  6.241586E-05  1.707356E-01  0.000000E+00
  2.967058E-01 -2.509726E-03  1.000000E-01  3.027483E-01 -1.232412E-02 -2.832250E-17  2.917875E-02  9.504075E-04  7.365137E-05  1.593537E-01  0.000000E+00
  3.243554E-01 -1.587338E-03  1.000000E-01  3.309626E-01 -1.138289E-02  4.248375E-16  2.950630E-02  1.095596E-03  8.617720E-05  1.423495E-01  0.000000E+00
  3.528511E-01 -4.280283E-04  1.000000E-01  3.600404E-01 -1.019990E-02 -4.248375E-17  2.920076E-02  1.410635E-03  9.823453E-05  1.260722E-01  0.000000E+00
  3.820469E-01  1.199924E-03  1.000000E-01  3.898324E-01 -8.538698E-03  5.664500E-17  2.798006E-02  1.851641E-03  1.073647E-04  1.187271E-01  0.000000E+00
  4.117740E-01  3.480764E-03  1.000000E-01  4.201668E-01 -6.211270E-03 -5.664500E-17  2.590533E-02  2.292972E-03  1.114407E-04  1.280664E-01  0.000000E+00
  4.418498E-01  6.506552E-03  1.000000E-01  4.508569E-01 -3.123679E-03 -2.832250E-17  2.340842E-02  2.579136E-03  1.097949E-04  1.548046E-01  0.000000E+00
  4.721105E-01  1.014305E-02  1.000000E-01  4.817357E-01  5.870987E-04 -5.664500E-17  2.127569E-02  2.480942E-03  1.039117E-04  2.048915E-01  0.000000E+00
  5.024968E-01  1.354212E-02  1.000000E-01  5.127427E-01  4.055591E-03  1.416125E-17  1.997786E-02  2.073598E-03  9.538005E-05  2.588744E-01  0.000000E+00
  5.328693E-01  1.639202E-02  1.000000E-01  5.437355E-01  6.963710E-03 -4.248375E-17  1.929964E-02  1.697112E-03  8.485976E-05  2.845789E-01  0.000000E+00
  5.630297E-01  1.883060E-02  1.000000E-01  5.745120E-01  9.452094E-03  1.416125E-17  1.887594E-02  1.454843E-03  7.357564E-05  2.906040E-01  0.000000E+00
  5.927917E-01  2.099302E-02  1.000000E-01  6.048819E-01  1.165869E-02  5.664500E-17  1.843645E-02  1.308387E-03  6.303694E-05  2.958028E-01  0.000000E+00
  6.219828E-01  2.300090E-02  1.000000E-01  6.346693E-01  1.370758E-02 -4.248375E-17  1.784699E-02  1.204383E-03  5.460867E-05  3.057586E-01  0.000000E+00
  6.504533E-01  2.487730E-02  1.000000E-01  6.637213E-01  1.562231E-02  5.664500E-17  1.713800E-02  1.077979E-03  4.946735E-05  3.208916E-01  0.000000E+00
  6.780742E-01  2.652832E-02  1.000000E-01  6.919064E-01  1.730705E-02  4.531600E-16  1.643560E-02  8.950082E-04  4.810363E-05  3.389895E-01  0.000000E+00
  7.047326E-01  2.783636E-02  1.000000E-01  7.191093E-01  1.864181E-02  0.000000E+00  1.586898E-02  6.640088E-04  5.004770E-05  3.559454E-01  0.000000E+00
  1.215943E-04  9.229703E-03  1.000000E-01  1.060955E-04 -3.449058E-04 -5.664500E-17 -5.273585E-02  9.422391E-02  7.182113E-05  7.034868E-01  0.000000E+00
  4.902502E-03  3.550825E-03  1.000000E-01  4.984656E-03 -6.139779E-03 -8.496751E-17 -2.207226E-02  2.445808E-02  4.961285E-05  9.574425E-01  0.000000E+00
  1.254908E-02 -1.083782E-04  1.000000E-01  1.278742E-02 -9.873723E-03 -2.832250E-17  5.097982E-03 -9.024552E-04  3.365230E-05  5.796016E-01  0.000000E+00
  2.163699E-02 -2.520583E-03  1.000000E-01  2.206096E-02 -1.233520E-02  1.416125E-17  2.070540E-02 -4.297175E-03  2.723877E-05  3.734051E-01  0.000000E+00
  3.184423E-02 -4.226609E-03  1.000000E-01  3.247669E-02 -1.407607E-02 -2.832250E-17  2.721428E-02 -3.653614E-03  2.577720E-05  3.350638E-01  0.000000E+00
  4.311596E-02 -5.437496E-03  1.000000E-01  4.397865E-02 -1.531169E-02 -8.496751E-17  2.964299E-02 -2.488207E-03  2.574362E-05  2.975132E-01  0.000000E+00
  5.546913E-02 -6.197670E-03  1.000000E-01  5.658414E-02 -1.608739E-02  1.416125E-17  3.036371E-02 -1.530574E-03  2.610194E-05  2.633640E-01  0.000000E+00
  6.891473E-02 -6.722244E-03  1.000000E-01  7.030438E-02 -1.662268E-02 -8.496751E-17  3.059913E-02 -1.011130E-03  2.664865E-05  2.496510E-01  0.000000E+00
  8.348882E-02 -7.119608E-03  1.000000E-01  8.517615E-02 -1.702816E-02  5.664500E-17  3.070821E-02 -6.755033E-04  2.735972E-05  2.360419E-01  0.000000E+00
  9.923792E-02 -7.385778E-03  1.000000E-01  1.012469E-01 -1.729977E-02 -9.912876E-17  3.066707E-02 -3.323474E-04  2.832866E-05  2.159039E-01  0.000000E+00
  1.162051E-01 -7.465474E-03  1.000000E-01  1.185607E-01 -1.738109E-02 -8.496751E-17  3.044643E-02  1.899553E-05  2.965962E-05  1.979425E-01  0.000000E+00
  1.344203E-01 -7.353961E-03  1.000000E-01  1.371479E-01 -1.726730E-02 -8.496751E-17  3.007159E-02  3.238499E-04  3.142533E-05  1.874291E-01  0.000000E+00
  1.539027E-01 -7.051536E-03  1.000000E-01  1.570283E-01 -1.695870E-02  4.389988E-16  2.956283E-02  5.839294E-04  3.372830E-05  1.810414E-01  0.000000E+00
  1.746592E-01 -6.550823E-03  1.000000E-01  1.782087E-01 -1.644776E-02  3.257088E-16  2.899571E-02  7.861123E-04  3.674629E-05  1.775956E-01  0.000000E+00
  1.966815E-01 -5.884329E-03  1.000000E-01  2.006809E-01 -1.576765E-02 -2.832250E-17  2.850299E-02  9.138135E-04  4.074968E-05  1.770604E-01  0.000000E+00
  2.199461E-01 -5.094220E-03  1.000000E-01  2.244207E-01 -1.496140E-02 -4.248375E-17  2.821890E-02  9.775987E-04  4.610544E-05  1.769310E-01  0.000000E+00
  2.444131E-01 -4.227989E-03  1.000000E-01  2.493874E-01 -1.407748E-02  3.823538E-16  2.825760E-02  9.809650E-04  5.322320E-05  1.753543E-01  0.000000E+00
  7.047326E-01  2.783636E-02  1.000000E-01  7.191093E-01  1.864181E-02 -2.832250E-17  1.586898E-02  6.640088E-04  5.004770E-05  3.559454E-01  0.000000E+00
  7.303325E-01  2.872280E-02  1.000000E-01  7.452320E-01  1.954635E-02 -2.832250E-17  1.553591E-02  4.036790E-04  5.433315E-05  3.689994E-01  0.000000E+00
  7.547951E-01  2.915147E-02  1.000000E-01  7.701944E-01  1.998378E-02  4.389988E-16  1.551241E-02  1.147592E-04  6.010275E-05  3.778898E-01  0.000000E+00
  7.780600E-01  2.909694E-02  1.000000E-01  7.939344E-01  1.992813E-02  1.416125E-17  1.585122E-02 -2.153005E-04  6.677981E-05  3.824113E-01  0.000000E+00
  8.000833E-01  2.856386E-02  1.000000E-01  8.164075E-01  1.938417E-02 -4.248375E-17  1.656021E-02 -5.999383E-04  7.400532E-05  3.818782E-01  0.000000E+00
  8.208376E-01  2.757942E-02  1.000000E-01  8.375858E-01  1.837962E-02 -2.832250E-17  1.756719E-02 -1.023832E-03  8.147383E-05  3.752403E-01  0.000000E+00
  8.403144E-01  2.624791E-02  1.000000E-01  8.574605E-01  1.702091E-02  4.389988E-16  1.870501E-02 -1.423739E-03  8.878768E-05  3.617047E-01  0.000000E+00
  8.585258E-01  2.473029E-02  1.000000E-01  8.760438E-01  1.547229E-02  3.965150E-16  1.977120E-02 -1.735364E-03  9.548906E-05  3.438505E-01  0.000000E+00
  8.754993E-01  2.316967E-02  1.000000E-01  8.933640E-01  1.387979E-02 -2.832250E-17  2.061811E-02 -1.942607E-03  1.011132E-04  3.259901E-01  0.000000E+00
  8.912718E-01  2.164947E-02  1.000000E-01  9.094587E-01  1.232855E-02 -2.832250E-17  2.123033E-02 -2.103726E-03  1.053475E-04  3.118659E-01  0.000000E+00
  9.058836E-01  2.016306E-02  1.000000E-01  9.243689E-01  1.081177E-02 -4.248375E-17  2.173457E-02 -2.303162E-03  1.082400E-04  3.020854E-01  0.000000E+00
  9.193796E-01  1.867492E-02  1.000000E-01  9.381406E-01  9.293241E-03 -5.664500E-17  2.232430E-02 -2.566578E-03  1.103771E-04  2.919249E-01  0.000000E+00
  9.318118E-01  1.718628E-02  1.000000E-01  9.508267E-01  7.774187E-03  4.248375E-17  2.320395E-02 -2.907994E-03  1.130150E-04  2.786788E-01  0.000000E+00
  9.432349E-01  1.569241E-02  1.000000E-01  9.624831E-01  6.249802E-03 -2.832250E-17  2.442184E-02 -3.344685E-03  1.171144E-04  2.629367E-01  0.000000E+00
  9.537058E-01  1.419385E-02  1.000000E-01  9.731679E-01  4.720640E-03  0.000000E+00  2.536857E-02 -3.787938E-03  1.207131E-04  2.392240E-01  0.000000E+00
  9.632829E-01  1.269585E-02  1.000000E-01  9.829406E-01  3.192039E-03 -2.832250E-17  2.449123E-02 -4.010767E-03  1.172422E-04  2.052292E-01  0.000000E+00
  9.720275E-01  1.123229E-02  1.000000E-01  9.918639E-01  1.698585E-03  0.000000E+00  2.097155E-02 -3.532881E-03  1.018675E-04  2.035191E-01  0.000000E+00
  9.800000E-01  9.826436E-03  1.000000E-01  9.999992E-01  2.640163E-04  1.416125E-17  1.390900E-02  4.408484E-03  6.427194E-05 -8.777569E-03  0.000000E+00
  1.215943E-04  9.910374E-03  1.000000E-01  1.060955E-04  3.496684E-04 -9.912876E-17  2.293125E-02  5.212081E-02  3.925566E-05  3.847826E-01  0.000000E+00
  7.278129E-05  9.795828E-03  1.000000E-01  5.628543E-05  2.327833E-04  1.416125E-17  1.537261E-02  7.585133E-02  4.893478E-05  2.094786E-01  0.000000E+00
  1.762252E-05  9.567704E-03  1.000000E-01  0.000000E+00  0.000000E+00  0.000000E+00 -1.461944E-02  1.304324E-01  7.158136E-05  2.419416E-01  0.000000E+00
  8.694958E-05  9.342376E-03  1.000000E-01  7.074311E-05 -2.299310E-04  0.000000E+00 -5.744531E-02  1.486598E-01  8.354361E-05  2.929525E-01  0.000000E+00
  1.215943E-04  9.229703E-03  1.000000E-01  1.060955E-04 -3.449058E-04 -4.248375E-17 -5.273585E-02  9.422391E-02  7.182113E-05  7.034868E-01  0.000000E+00
  9.800000E-01  9.826436E-03  1.000000E-01  9.999992E-01  2.640163E-04  0.000000E+00  1.390900E-02  4.408484E-03  6.427194E-05 -8.777569E-03  0.000000E+00
  9.800000E-01  9.990961E-03  1.000000E-01  9.999992E-01  4.319018E-04  0.000000E+00  4.429623E-03 -1.645632E-03 -1.565454E-05 -2.089134E-01  0.000000E+00
  9.800000E-01  1.032001E-02  1.000000E-01  9.999992E-01  7.676727E-04 -2.832250E-17 -4.541457E-04 -1.597495E-02 -1.063695E-04 -1.727043E-01  0.000000E+00
  9.800000E-01  1.064906E-02  1.000000E-01  9.999992E-01  1.103444E-03 -5.664500E-17  3.362423E-03 -1.944087E-02 -1.638226E-04 -1.910522E-01  0.000000E+00
  9.800000E-01  1.081359E-02  1.000000E-01  9.999992E-01  1.271329E-03  0.000000E+00  1.057021E-02 -1.294234E-02 -1.869413E-04 -5.444625E-02  0.000000E+00
  2.628044E-01  9.693509E-02  1.000000E-01  2.681544E-01  8.915193E-02 -2.832250E-17  5.439587E-02  3.606585E-03 -8.349912E-05 -1.222381E+00  0.000000E+00
  2.368706E-01  9.489314E-02  1.000000E-01  2.416909E-01  8.706826E-02  3.681925E-16  5.701356E-02  5.263532E-03 -5.814629E-05 -1.271684E+00  0.000000E+00
  2.121362E-01  9.226676E-02  1.000000E-01  2.164512E-01  8.438824E-02  1.416125E-17  5.966279E-02  7.212823E-03 -3.755622E-05 -1.310298E+00  0.000000E+00
  1.886687E-01  8.907624E-02  1.000000E-01  1.925044E-01  8.113256E-02 -4.248375E-17  6.215520E-02  9.428603E-03 -2.148515E-05 -1.333053E+00  0.000000E+00
  1.665185E-01  8.535734E-02  1.000000E-01  1.699017E-01  7.733769E-02  4.814825E-16  6.425820E-02  1.183980E-02 -9.366532E-06 -1.337458E+00  0.000000E+00
  1.457161E-01  8.117086E-02  1.000000E-01  1.486745E-01  7.306570E-02  4.531600E-16  6.581859E-02  1.436726E-02 -5.411643E-07 -1.325407E+00  0.000000E+00
  1.262764E-01  7.658031E-02  1.000000E-01  1.288377E-01  6.838139E-02  0.000000E+00  6.682579E-02  1.696955E-02  5.679798E-06 -1.302565E+00  0.000000E+00
  1.081990E-01  7.164898E-02  1.000000E-01  1.103910E-01  6.334933E-02  0.000000E+00  6.733025E-02  1.962084E-02  9.939565E-06 -1.276242E+00  0.000000E+00
  9.146971E-02  6.644242E-02  1.000000E-01  9.332006E-02  5.803642E-02  0.000000E+00  6.745849E-02  2.247823E-02  1.285949E-05 -1.241355E+00  0.000000E+00
  7.608258E-02  6.095903E-02  1.000000E-01  7.761863E-02  5.244103E-02  0.000000E+00  6.717659E-02  2.571623E-02  1.496498E-05 -1.179106E+00  0.000000E+00
  6.202881E-02  5.519053E-02  1.000000E-01  6.327781E-02  4.655470E-02 -5.664500E-17  6.614035E-02  2.919325E-02  1.659088E-05 -1.072405E+00  0.000000E+00
  4.929579E-02  4.915583E-02  1.000000E-01  5.028471E-02  4.039674E-02 -8.496751E-17  6.398549E-02  3.235236E-02  1.789093E-05 -9.273776E-01  0.000000E+00
  3.782553E-02  4.296757E-02  1.000000E-01  3.858016E-02  3.408208E-02  4.248375E-17  6.086851E-02  3.498160E-02  1.905841E-05 -7.722014E-01  0.000000E+00
  2.757469E-02  3.668107E-02  1.000000E-01  2.811994E-02  2.766717E-02 -2.832250E-17  5.733968E-02  3.735154E-02  2.038206E-05 -6.544585E-01  0.000000E+00
  1.848362E-02  3.037436E-02  1.000000E-01  1.884318E-02  2.123165E-02  5.664500E-17  5.412528E-02  4.097928E-02  2.273808E-05 -5.561542E-01  0.000000E+00
  1.064273E-02  2.392225E-02  1.000000E-01  1.084213E-02  1.464775E-02  1.416125E-17  5.050816E-02  4.750838E-02  2.780860E-05 -3.159581E-01  0.000000E+00
  4.262692E-03  1.717508E-02  1.000000E-01  4.331778E-03  7.762761E-03  1.416125E-17  4.093853E-02  5.487564E-02  3.557209E-05  1.840168E-01  0.000000E+00
  1.215943E-04  9.910374E-03  1.000000E-01  1.060955E-04  3.496684E-04 -8.496751E-17  2.293125E-02  5.212081E-02  3.925566E-05  3.847826E-01  0.000000E+00
    1    2
    2    3
    3    4
    4    5
    5    6
    6    7
    7    8
    8    9
    9   10
   10   11
   11   12
   12   13
   13   14
   14   15
   15   16
   16   17
   18   19
   19   20
   20   21
   21   22
   22   23
   23   24
   24   25
   25   26
   26   27
   27   28
   28   29
   29   30
   30   31
   31   32
   32   33
   33   34
   35   36
   36   37
   37   38
   38   39
   39   40
   40   41
   41   42
   42   43
   43   44
   44   45
   45   46
   46   47
   47   48
   48   49
   49   50
   50   51
   52   53
   53   54
   54   55
   55   56
   56   57
   57   58
   58   59
   59   60
   60   61
   61   62
   62   63
   63   64
   64   65
   65   66
   66   67
   67   68
   69   70
   70   71
   71   72
   72   73
   73   74
   74   75
   75   76
   76   77
   77   78
   78   79
   79   80
   80   81
   81   82
   82   83
   83   84
   84   85
   85   86
   87   88
   88   89
   89   90
   90   91
   92   93
   93   94
   94   95
   95   96
   97   98
   98   99
   99  100
  100  101
  101  102
  102  103
  103  104
  104  105
  105  106
  106  107
  107  108
  108  109
  109  110
  110  111
  111  112
  112  113
  113  114
Zone T= "Slice_0002 None Relative Regular z = 0.36666667"
 Nodes =          114  Elements=          106  ZONETYPE=FELINESEG
 DATAPACKING=POINT
  7.301402E-01  6.336254E-02  3.666667E-01  7.450361E-01  5.495187E-02 -5.664502E-17  2.533291E-02 -4.028314E-03 -3.757358E-04 -4.063776E-01  0.000000E+00
  7.043967E-01  6.732442E-02  3.666667E-01  7.187667E-01  5.899468E-02 -1.132900E-16  2.651283E-02 -3.941879E-03 -3.534429E-04 -4.385841E-01  0.000000E+00
  6.775455E-01  7.118093E-02  3.666667E-01  6.913670E-01  6.292996E-02  3.058831E-14  2.752658E-02 -3.821802E-03 -3.400911E-04 -4.692468E-01  0.000000E+00
  6.496792E-01  7.491682E-02  3.666667E-01  6.629315E-01  6.674216E-02 -1.699351E-16  2.840820E-02 -3.692264E-03 -3.404439E-04 -5.007765E-01  0.000000E+00
  6.209097E-01  7.853460E-02  3.666667E-01  6.335744E-01  7.043384E-02  0.000000E+00  2.924540E-02 -3.561666E-03 -3.569106E-04 -5.347456E-01  0.000000E+00
  5.913667E-01  8.200906E-02  3.666667E-01  6.034280E-01  7.397927E-02  1.132900E-16  3.014267E-02 -3.425268E-03 -3.881606E-04 -5.716381E-01  0.000000E+00
  5.611982E-01  8.530855E-02  3.666667E-01  5.726433E-01  7.734616E-02  2.265801E-16  3.118522E-02 -3.280842E-03 -4.293928E-04 -6.126840E-01  0.000000E+00
  5.305654E-01  8.839269E-02  3.666667E-01  5.413847E-01  8.049329E-02  1.132900E-16  3.244617E-02 -3.123380E-03 -4.736210E-04 -6.599812E-01  0.000000E+00
  4.996398E-01  9.122064E-02  3.666667E-01  5.098274E-01  8.337900E-02 -1.699351E-16  3.400017E-02 -2.933000E-03 -5.130866E-04 -7.150712E-01  0.000000E+00
  4.685986E-01  9.372626E-02  3.666667E-01  4.781522E-01  8.593580E-02  1.132900E-16  3.591425E-02 -2.668339E-03 -5.404014E-04 -7.769252E-01  0.000000E+00
  4.376215E-01  9.582068E-02  3.666667E-01  4.465424E-01  8.807300E-02 -5.664502E-17  3.820079E-02 -2.284134E-03 -5.491585E-04 -8.425533E-01  0.000000E+00
  4.068895E-01  9.741394E-02  3.666667E-01  4.151826E-01  8.969881E-02 -5.664502E-17  4.078801E-02 -1.743550E-03 -5.348194E-04 -9.085008E-01  0.000000E+00
  3.765814E-01  9.843204E-02  3.666667E-01  3.842554E-01  9.073770E-02  5.664502E-17  4.352562E-02 -1.041166E-03 -4.960759E-04 -9.734891E-01  0.000000E+00
  3.468696E-01  9.885366E-02  3.666667E-01  3.539368E-01  9.116793E-02 -5.664502E-17  4.629019E-02 -1.741535E-04 -4.367724E-04 -1.036378E+00  0.000000E+00
  3.179133E-01  9.865990E-02  3.666667E-01  3.243890E-01  9.097021E-02  0.000000E+00  4.903901E-02  8.797873E-04 -3.655149E-04 -1.095054E+00  0.000000E+00
  2.898519E-01  9.783945E-02  3.666667E-01  2.957544E-01  9.013301E-02  5.664502E-17  5.174489E-02  2.116402E-03 -2.918312E-04 -1.150840E+00  0.000000E+00
  2.628044E-01  9.641352E-02  3.666667E-01  2.681545E-01  8.867795E-02  5.664502E-17  5.440997E-02  3.520999E-03 -2.229376E-04 -1.206752E+00  0.000000E+00
  9.800000E-01  1.049754E-02  3.666667E-01  9.999995E-01  1.007049E-03  5.664502E-17  1.058812E-02 -1.287501E-02 -6.234176E-04 -5.492761E-02  0.000000E+00
  9.720124E-01  1.254233E-02  3.666667E-01  9.918487E-01  3.093604E-03  0.000000E+00  1.234185E-02 -3.228632E-03 -5.857258E-04  7.223066E-02  0.000000E+00
  9.632634E-01  1.479514E-02  3.666667E-01  9.829211E-01  5.392438E-03  1.132900E-16  9.579914E-03 -2.401636E-03 -5.014727E-04  2.555419E-02  0.000000E+00
  9.536907E-01  1.724344E-02  3.666667E-01  9.731528E-01  7.890741E-03 -5.664502E-17  7.870004E-03 -1.998498E-03 -4.434007E-04  7.358244E-03  0.000000E+00
  9.432303E-01  1.987050E-02  3.666667E-01  9.624787E-01  1.057147E-02 -1.699351E-16  7.553816E-03 -1.877527E-03 -4.222359E-04 -1.249145E-02  0.000000E+00
  9.318220E-01  2.267908E-02  3.666667E-01  9.508374E-01  1.343741E-02 -5.664502E-17  8.318219E-03 -2.022593E-03 -4.261601E-04 -3.796060E-02  0.000000E+00
  9.194070E-01  2.567178E-02  3.666667E-01  9.381688E-01  1.649124E-02  0.000000E+00  9.679506E-03 -2.302722E-03 -4.409195E-04 -6.508494E-02  0.000000E+00
  9.059278E-01  2.884642E-02  3.666667E-01  9.244143E-01  1.973072E-02 -1.132900E-16  1.124679E-02 -2.611392E-03 -4.570286E-04 -9.368178E-02  0.000000E+00
  8.913299E-01  3.219705E-02  3.666667E-01  9.095182E-01  2.314980E-02  0.000000E+00  1.283835E-02 -2.903613E-03 -4.698745E-04 -1.242496E-01  0.000000E+00
  8.755643E-01  3.571874E-02  3.666667E-01  8.934306E-01  2.674342E-02 -1.132900E-16  1.443192E-02 -3.173571E-03 -4.778439E-04 -1.568852E-01  0.000000E+00
  8.585885E-01  3.940162E-02  3.666667E-01  8.761080E-01  3.050152E-02  3.098483E-14  1.605553E-02 -3.421715E-03 -4.803613E-04 -1.911616E-01  0.000000E+00
  8.403666E-01  4.322485E-02  3.666667E-01  8.575139E-01  3.440285E-02  3.098483E-14  1.770739E-02 -3.640845E-03 -4.767068E-04 -2.264885E-01  0.000000E+00
  8.208730E-01  4.716107E-02  3.666667E-01  8.376222E-01  3.841947E-02 -5.664502E-17  1.935619E-02 -3.821820E-03 -4.663451E-04 -2.625761E-01  0.000000E+00
  8.000947E-01  5.118077E-02  3.666667E-01  8.164195E-01  4.252127E-02 -5.664502E-17  2.097145E-02 -3.957181E-03 -4.495421E-04 -2.992033E-01  0.000000E+00
  7.780326E-01  5.524861E-02  3.666667E-01  7.939067E-01  4.667221E-02 -1.132900E-16  2.252727E-02 -4.039960E-03 -4.273847E-04 -3.359440E-01  0.000000E+00
  7.547032E-01  5.932424E-02  3.666667E-01  7.701008E-01  5.083108E-02  3.075825E-14  2.399354E-02 -4.063916E-03 -4.017924E-04 -3.719868E-01  0.000000E+00
  7.301402E-01  6.336254E-02  3.666667E-01  7.450361E-01  5.495187E-02 -5.664502E-17  2.533291E-02 -4.028314E-03 -3.757358E-04 -4.063776E-01  0.000000E+00
  2.444131E-01 -4.717195E-03  3.666667E-01  2.493875E-01 -1.451846E-02  3.092818E-14  2.866181E-02  9.424036E-04  1.562229E-04  1.698876E-01  0.000000E+00
  2.700250E-01 -3.888254E-03  3.666667E-01  2.755226E-01 -1.367259E-02  5.664502E-17  2.908847E-02  9.129765E-04  1.784666E-04  1.640822E-01  0.000000E+00
  2.967058E-01 -3.077268E-03  3.666667E-01  3.027484E-01 -1.284504E-02 -5.664502E-17  2.966310E-02  9.387256E-04  2.058264E-04  1.513883E-01  0.000000E+00
  3.243554E-01 -2.168079E-03  3.666667E-01  3.309627E-01 -1.191727E-02  3.070160E-14  2.999692E-02  1.112888E-03  2.367976E-04  1.331098E-01  0.000000E+00
  3.528511E-01 -9.885986E-04  3.666667E-01  3.600405E-01 -1.071370E-02 -5.664502E-17  2.964603E-02  1.468548E-03  2.676019E-04  1.158794E-01  0.000000E+00
  3.820469E-01  7.070385E-04  3.666667E-01  3.898326E-01 -8.983431E-03 -1.132900E-16  2.832854E-02  1.950555E-03  2.928368E-04  1.084916E-01  0.000000E+00
  4.117740E-01  3.104594E-03  3.666667E-01  4.201669E-01 -6.536903E-03  1.132900E-16  2.612909E-02  2.416994E-03  3.076175E-04  1.191353E-01  0.000000E+00
  4.418498E-01  6.286610E-03  3.666667E-01  4.508570E-01 -3.289891E-03 -1.699351E-16  2.350569E-02  2.706136E-03  3.099333E-04  1.482255E-01  0.000000E+00
  4.721105E-01  1.010395E-02  3.666667E-01  4.817359E-01  6.054265E-04 -1.132900E-16  2.126551E-02  2.595575E-03  3.026205E-04  2.010703E-01  0.000000E+00
  5.024968E-01  1.369010E-02  3.666667E-01  5.127428E-01  4.264824E-03  5.664502E-17  1.989170E-02  2.170847E-03  2.893689E-04  2.577446E-01  0.000000E+00
  5.328693E-01  1.671263E-02  3.666667E-01  5.437357E-01  7.349094E-03 -2.265801E-16  1.917327E-02  1.774590E-03  2.721843E-04  2.858911E-01  0.000000E+00
  5.630297E-01  1.928950E-02  3.666667E-01  5.745122E-01  9.978595E-03  1.132900E-16  1.874701E-02  1.508318E-03  2.538523E-04  2.939606E-01  0.000000E+00
  5.927917E-01  2.154022E-02  3.666667E-01  6.048820E-01  1.227529E-02  0.000000E+00  1.834311E-02  1.333755E-03  2.371755E-04  3.005865E-01  0.000000E+00
  6.219828E-01  2.357673E-02  3.666667E-01  6.346695E-01  1.435340E-02  5.664502E-17  1.782349E-02  1.200039E-03  2.244630E-04  3.111931E-01  0.000000E+00
  6.504533E-01  2.541885E-02  3.666667E-01  6.637215E-01  1.623314E-02 -1.132900E-16  1.720571E-02  1.047581E-03  2.177962E-04  3.260380E-01  0.000000E+00
  6.780742E-01  2.698479E-02  3.666667E-01  6.919066E-01  1.783107E-02  3.092818E-14  1.659589E-02  8.475985E-04  2.182135E-04  3.428772E-01  0.000000E+00
  7.047326E-01  2.818177E-02  3.666667E-01  7.191095E-01  1.905250E-02 -5.664502E-17  1.610716E-02  6.080775E-04  2.251326E-04  3.581479E-01  0.000000E+00
  1.215943E-04  9.172543E-03  3.666667E-01  1.060956E-04 -3.450093E-04 -2.265801E-16 -5.209283E-02  9.316674E-02  2.121845E-04  7.054862E-01  0.000000E+00
  4.902502E-03  3.488886E-03  3.666667E-01  4.984658E-03 -6.144761E-03  5.664502E-17 -2.164152E-02  2.407697E-02  1.574303E-04  9.563393E-01  0.000000E+00
  1.254908E-02 -1.783697E-04  3.666667E-01  1.278743E-02 -9.886924E-03  2.265801E-16  5.353208E-03 -1.009788E-03  1.102600E-04  5.775739E-01  0.000000E+00
  2.163699E-02 -2.600782E-03  3.666667E-01  2.206097E-02 -1.235882E-02  5.664502E-17  2.090265E-02 -4.363139E-03  8.939323E-05  3.716300E-01  0.000000E+00
  3.184423E-02 -4.319085E-03  3.666667E-01  3.247670E-02 -1.411222E-02  0.000000E+00  2.743160E-02 -3.715679E-03  8.486686E-05  3.336966E-01  0.000000E+00
  4.311596E-02 -5.544520E-03  3.666667E-01  4.397866E-02 -1.536268E-02 -1.132900E-16  2.988896E-02 -2.547078E-03  8.508953E-05  2.963163E-01  0.000000E+00
  5.546913E-02 -6.321813E-03  3.666667E-01  5.658416E-02 -1.615585E-02 -5.664502E-17  3.062614E-02 -1.585888E-03  8.648366E-05  2.621700E-01  0.000000E+00
  6.891473E-02 -6.866389E-03  3.666667E-01  7.030440E-02 -1.671155E-02  1.699351E-16  3.087118E-02 -1.065643E-03  8.844073E-05  2.484267E-01  0.000000E+00
  8.348882E-02 -7.287001E-03  3.666667E-01  8.517618E-02 -1.714076E-02  2.832251E-16  3.098884E-02 -7.305676E-04  9.075804E-05  2.347541E-01  0.000000E+00
  9.923792E-02 -7.580047E-03  3.666667E-01  1.012470E-01 -1.743979E-02 -1.132900E-16  3.095627E-02 -3.875860E-04  9.363545E-05  2.144747E-01  0.000000E+00
  1.162051E-01 -7.690606E-03  3.666667E-01  1.185607E-01 -1.755261E-02  5.664502E-17  3.074365E-02 -3.582091E-05  9.739050E-05  1.962788E-01  0.000000E+00
  1.344203E-01 -7.614212E-03  3.666667E-01  1.371480E-01 -1.747465E-02  0.000000E+00  3.037629E-02  2.697268E-04  1.022134E-04  1.854434E-01  0.000000E+00
  1.539027E-01 -7.351273E-03  3.666667E-01  1.570284E-01 -1.720634E-02  3.064496E-14  2.987524E-02  5.310498E-04  1.082757E-04  1.786371E-01  0.000000E+00
  1.746592E-01 -6.894241E-03  3.666667E-01  1.782088E-01 -1.673997E-02  3.109812E-14  2.931857E-02  7.351182E-04  1.159700E-04  1.746538E-01  0.000000E+00
  1.966815E-01 -6.274988E-03  3.666667E-01  2.006809E-01 -1.610807E-02 -1.132900E-16  2.884287E-02  8.654287E-04  1.259306E-04  1.734419E-01  0.000000E+00
  2.199461E-01 -5.534307E-03  3.666667E-01  2.244208E-01 -1.535226E-02 -1.699351E-16  2.858563E-02  9.331023E-04  1.390066E-04  1.724762E-01  0.000000E+00
  2.444131E-01 -4.717195E-03  3.666667E-01  2.493875E-01 -1.451846E-02  3.092818E-14  2.866181E-02  9.424036E-04  1.562229E-04  1.698876E-01  0.000000E+00
  7.047326E-01  2.818177E-02  3.666667E-01  7.191095E-01  1.905250E-02 -5.664502E-17  1.610716E-02  6.080775E-04  2.251326E-04  3.581479E-01  0.000000E+00