 Title= "ADflow Lift Distribution Data"
Variables = "eta" "CoordinateX" "CoordinateY" "CoordinateZ" "Lift" "Drag" "Moment" "Normalized Lift" "Normalized Drag" "Normalized Moment" "CL" "CD" "CM" "CLp" "CDp" "CMp" "CLv" "CDv" "CMv" "Elliptical" "thickness" "twist" "chord" "fx" "fy" "fz" 
Zone T= "LiftDist_01 allWalls: : z normal"
 I=          150
 DATAPACKING=BLOCK
  0.000000E+00
  6.711405E-03
  1.342281E-02
  2.013422E-02
  2.684563E-02
  3.355704E-02
  4.026845E-02
  4.697986E-02
  5.369127E-02
  6.040268E-02
  6.711409E-02
  7.382550E-02
  8.053691E-02
  8.724832E-02
  9.395973E-02
  1.006711E-01
  1.073825E-01
  1.140940E-01
  1.208054E-01
  1.275168E-01
  1.342282E-01
  1.409396E-01
  1.476510E-01
  1.543624E-01
  1.610738E-01
  1.677852E-01
  1.744966E-01
  1.812081E-01
  1.879195E-01
  1.946309E-01
  2.013423E-01
  2.080537E-01
  2.147651E-01
  2.214765E-01
  2.281879E-01
  2.348993E-01
  2.416107E-01
  2.483221E-01
  2.550336E-01
  2.617450E-01
  2.684564E-01
  2.751678E-01
  2.818792E-01
  2.885906E-01
  2.953020E-01
  3.020134E-01
  3.087248E-01
  3.154362E-01
  3.221476E-01
  3.288591E-01
  3.355705E-01
  3.422819E-01
  3.489933E-01
  3.557047E-01
  3.624161E-01
  3.691275E-01
  3.758389E-01
  3.825503E-01
  3.892617E-01
  3.959732E-01
  4.026846E-01
  4.093960E-01
  4.161074E-01
  4.228188E-01
  4.295302E-01
  4.362416E-01
  4.429530E-01
  4.496644E-01
  4.563758E-01
  4.630872E-01
  4.697987E-01
  4.765101E-01
  4.832215E-01
  4.899329E-01
  4.966443E-01
  5.033557E-01
  5.100671E-01
  5.167785E-01
  5.234899E-01
  5.302013E-01
  5.369128E-01
  5.436242E-01
  5.503356E-01
  5.570470E-01
  5.637584E-01
  5.704698E-01
  5.771812E-01
  5.838926E-01
  5.906040E-01
  5.973154E-01
  6.040268E-01
  6.107383E-01
  6.174497E-01
  6.241611E-01
  6.308725E-01
  6.375839E-01
  6.442953E-01
  6.510067E-01
  6.577181E-01
  6.644295E-01
  6.711409E-01
  6.778524E-01
  6.845638E-01
  6.912752E-01
  6.979866E-01
  7.046980E-01
  7.114094E-01
  7.181208E-01
  7.248322E-01
  7.315436E-01
  7.382550E-01
  7.449664E-01
  7.516779E-01
  7.583893E-01
  7.651007E-01
  7.718121E-01
  7.785235E-01
  7.852349E-01
  7.919463E-01
  7.986577E-01
  8.053691E-01
  8.120805E-01
  8.187919E-01
  8.255034E-01
  8.322148E-01
  8.389262E-01
  8.456376E-01
  8.523490E-01
  8.590604E-01
  8.657718E-01
  8.724832E-01
  8.791946E-01
  8.859060E-01
  8.926175E-01
  8.993289E-01
  9.060403E-01
  9.127517E-01
  9.194631E-01
  9.261745E-01
  9.328859E-01
  9.395973E-01
  9.463087E-01
  9.530201E-01
  9.597315E-01
  9.664430E-01
  9.731544E-01
  9.798658E-01
  9.865772E-01
  9.932886E-01
  1.000000E+00
  0.000000E+00
  0.000000E+00
  0.000000E+00
  0.000000E+00
  0.000000E+00
  0.000000E+00
  0.000000E+00
  0.000000E+00
  0.000000E+00
  0.000000E+00
  0.000000E+00
  0.000000E+00
  0.000000E+00
  0.000000E+00
  0.000000E+00
  0.000000E+00
  0.000000E+00
  0.000000E+00
  0.000000E+00
  0.000000E+00
  0.000000E+00
  0.000000E+00
  0.000000E+00
  0.000000E+00
  0.000000E+00
  0.000000E+00
  0.000000E+00
  0.000000E+00
  0.000000E+00
  0.000000E+00
  0.000000E+00
  0.000000E+00
  0.000000E+00
  0.000000E+00
  0.000000E+00
  0.000000E+00
  0.000000E+00
  0.000000E+00
  0.000000E+00
  0.000000E+00
  0.000000E+00
  0.000000E+00
  0.000000E+00
  0.000000E+00
  0.000000E+00
  0.000000E+00
  0.000000E+00
  0.000000E+00
  0.000000E+00
  0.000000E+00
  0.000000E+00
  0.000000E+00
  0.000000E+00
  0.000000E+00
  0.000000E+00
  0.000000E+00
  0.000000E+00
  0.000000E+00
  0.000000E+00
  0.000000E+00
  0.000000E+00
  0.000000E+00
  0.000000E+00
  0.000000E+00
  0.000000E+00
  0.000000E+00
  0.000000E+00
  0.000000E+00
  0.000000E+00
  0.000000E+00
  0.000000E+00
  0.000000E+00
  0.000000E+00
  0.000000E+00
  0.000000E+00
  0.000000E+00
  0.000000E+00
  0.000000E+00
  0.000000E+00
  0.000000E+00
  0.000000E+00
  0.000000E+00
  0.000000E+00
  0.000000E+00
  0.000000E+00
  0.000000E+00
  0.000000E+00
  0.000000E+00
  0.000000E+00
  0.000000E+00
  0.000000E+00
  0.000000E+00
  0.000000E+00
  0.000000E+00
  0.000000E+00
  0.000000E+00
  0.000000E+00
  0.000000E+00
  0.000000E+00
  0.000000E+00
  0.000000E+00
  0.000000E+00
  0.000000E+00
  0.000000E+00
  0.000000E+00
  0.000000E+00
  0.000000E+00
  0.000000E+00
  0.000000E+00
  0.000000E+00
  0.000000E+00
  0.000000E+00
  0.000000E+00
  0.000000E+00
  0.000000E+00
  0.000000E+00
  0.000000E+00
  0.000000E+00
  0.000000E+00
  0.000000E+00
  0.000000E+00
  0.000000E+00
  0.000000E+00
  0.000000E+00
  0.000000E+00
  0.000000E+00
  0.000000E+00
  0.000000E+00
  0.000000E+00
  0.000000E+00
  0.000000E+00
  0.000000E+00
  0.000000E+00
  0.000000E+00
  0.000000E+00
  0.000000E+00
  0.000000E+00
  0.000000E+00
  0.000000E+00
  0.000000E+00
  0.000000E+00
  0.000000E+00
  0.000000E+00
  0.000000E+00
  0.000000E+00
  0.000000E+00
  0.000000E+00
  0.000000E+00
  0.000000E+00
  0.000000E+00
  0.000000E+00
  0.000000E+00
  0.000000E+00
  0.000000E+00
  0.000000E+00
  0.000000E+00
  0.000000E+00
  0.000000E+00
  0.000000E+00
  0.000000E+00
  0.000000E+00
  0.000000E+00
  0.000000E+00
  0.000000E+00
  0.000000E+00
  0.000000E+00
  0.000000E+00
  0.000000E+00
  0.000000E+00
  0.000000E+00
  0.000000E+00
  0.000000E+00
  0.000000E+00
  0.000000E+00
  0.000000E+00
  0.000000E+00
  0.000000E+00
  0.000000E+00
  0.000000E+00
  0.000000E+00
  0.000000E+00
  0.000000E+00
  0.000000E+00
  0.000000E+00
  0.000000E+00
  0.000000E+00
  0.000000E+00
  0.000000E+00
  0.000000E+00
  0.000000E+00
  0.000000E+00
  0.000000E+00
  0.000000E+00
  0.000000E+00
  0.000000E+00
  0.000000E+00
  0.000000E+00
  0.000000E+00
  0.000000E+00
  0.000000E+00
  0.000000E+00
  0.000000E+00
  0.000000E+00
  0.000000E+00
  0.000000E+00
  0.000000E+00
  0.000000E+00
  0.000000E+00
  0.000000E+00
  0.000000E+00
  0.000000E+00
  0.000000E+00
  0.000000E+00
  0.000000E+00
  0.000000E+00
  0.000000E+00
  0.000000E+00
  0.000000E+00
  0.000000E+00
  0.000000E+00
  0.000000E+00
  0.000000E+00
  0.000000E+00
  0.000000E+00
  0.000000E+00
  0.000000E+00
  0.000000E+00
  0.000000E+00
  0.000000E+00
  0.000000E+00
  0.000000E+00
  0.000000E+00
  0.000000E+00
  0.000000E+00
  0.000000E+00
  0.000000E+00
  0.000000E+00
  0.000000E+00
  0.000000E+00
  0.000000E+00
  0.000000E+00
  0.000000E+00
  0.000000E+00
  0.000000E+00
  0.000000E+00
  0.000000E+00
  0.000000E+00
  0.000000E+00
  0.000000E+00
  0.000000E+00
  0.000000E+00
  0.000000E+00
  0.000000E+00
  0.000000E+00
  0.000000E+00
  0.000000E+00
  0.000000E+00
  0.000000E+00
  0.000000E+00
  0.000000E+00
  0.000000E+00
  0.000000E+00
  0.000000E+00
  0.000000E+00
  0.000000E+00
  0.000000E+00
  0.000000E+00
  0.000000E+00
  0.000000E+00
  0.000000E+00
  0.000000E+00
  0.000000E+00
  0.000000E+00
  0.000000E+00
  0.000000E+00
  0.000000E+00
  0.000000E+00
  0.000000E+00
  0.000000E+00
  0.000000E+00
  0.000000E+00
  0.000000E+00
  0.000000E+00
  0.000000E+00
  0.000000E+00
  0.000000E+00
  0.000000E+00
  0.000000E+00
  0.000000E+00
  0.000000E+00
  0.000000E+00
  0.000000E+00
  0.000000E+00
  0.000000E+00
  0.000000E+00
  0.000000E+00
  0.000000E+00
  0.000000E+00
  0.000000E+00
  0.000000E+00
  1.000000E-08
  1.695085E-02
  3.390169E-02
  5.085254E-02
  6.780338E-02
  8.475423E-02
  1.017051E-01
  1.186559E-01
  1.356068E-01
  1.525576E-01
  1.695085E-01
  1.864593E-01
  2.034101E-01
  2.203610E-01
  2.373118E-01
  2.542627E-01
  2.712135E-01
  2.881644E-01
  3.051152E-01
  3.220661E-01
  3.390169E-01
  3.559678E-01
  3.729186E-01
  3.898694E-01
  4.068203E-01
  4.237711E-01
  4.407220E-01
  4.576728E-01
  4.746237E-01
  4.915745E-01
  5.085254E-01
  5.254762E-01
  5.424271E-01
  5.593779E-01
  5.763287E-01
  5.932796E-01
  6.102304E-01
  6.271813E-01
  6.441321E-01
  6.610830E-01
  6.780338E-01
  6.949847E-01
  7.119355E-01
  7.288864E-01
  7.458372E-01
  7.627880E-01
  7.797389E-01
  7.966897E-01
  8.136406E-01
  8.305914E-01
  8.475423E-01
  8.644931E-01
  8.814440E-01
  8.983948E-01
  9.153457E-01
  9.322965E-01
  9.492473E-01
  9.661982E-01
  9.831490E-01
  1.000100E+00
  1.017051E+00
  1.034002E+00
  1.050952E+00
  1.067903E+00
  1.084854E+00
  1.101805E+00
  1.118756E+00
  1.135707E+00
  1.152657E+00
  1.169608E+00
  1.186559E+00
  1.203510E+00
  1.220461E+00
  1.237412E+00
  1.254363E+00
  1.271313E+00
  1.288264E+00
  1.305215E+00
  1.322166E+00
  1.339117E+00
  1.356068E+00
  1.373018E+00
  1.389969E+00
  1.406920E+00
  1.423871E+00
  1.440822E+00
  1.457773E+00
  1.474724E+00
  1.491674E+00
  1.508625E+00
  1.525576E+00
  1.542527E+00
  1.559478E+00
  1.576429E+00
  1.593379E+00
  1.610330E+00
  1.627281E+00
  1.644232E+00
  1.661183E+00
  1.678134E+00
  1.695085E+00
  1.712035E+00
  1.728986E+00
  1.745937E+00
  1.762888E+00
  1.779839E+00
  1.796790E+00
  1.813740E+00
  1.830691E+00
  1.847642E+00
  1.864593E+00
  1.881544E+00
  1.898495E+00
  1.915446E+00
  1.932396E+00
  1.949347E+00
  1.966298E+00
  1.983249E+00
  2.000200E+00
  2.017151E+00
  2.034101E+00
  2.051052E+00
  2.068003E+00
  2.084954E+00
  2.101905E+00
  2.118856E+00
  2.135807E+00
  2.152757E+00
  2.169708E+00
  2.186659E+00
  2.203610E+00
  2.220561E+00
  2.237512E+00
  2.254462E+00
  2.271413E+00
  2.288364E+00
  2.305315E+00
  2.322266E+00
  2.339217E+00
  2.356168E+00
  2.373118E+00
  2.390069E+00
  2.407020E+00
  2.423971E+00
  2.440922E+00
  2.457873E+00
  2.474823E+00
  2.491774E+00
  2.508725E+00
  2.525676E+00
  1.106270E+04
  1.106084E+04
  1.105898E+04
  1.105712E+04
  1.105527E+04
  1.105341E+04
  1.105155E+04
  1.104969E+04
  1.104783E+04
  1.104234E+04
  1.103676E+04
  1.103119E+04
  1.102561E+04
  1.102003E+04
  1.101445E+04
  1.100887E+04
  1.100211E+04
  1.099317E+04
  1.098424E+04
  1.097530E+04
  1.096637E+04
  1.095743E+04
  1.094850E+04
  1.093920E+04
  1.092705E+04
  1.091490E+04
  1.090275E+04
  1.089060E+04
  1.087846E+04
  1.086631E+04
  1.085337E+04
  1.083784E+04
  1.082231E+04
  1.080677E+04
  1.079124E+04
  1.077571E+04
  1.076017E+04
  1.074226E+04
  1.072330E+04
  1.070435E+04
  1.068539E+04
  1.066644E+04
  1.064748E+04
  1.062691E+04
  1.060464E+04
  1.058237E+04
  1.056010E+04
  1.053783E+04
  1.051556E+04
  1.049135E+04
  1.046577E+04
  1.044020E+04
  1.041463E+04
  1.038907E+04
  1.036350E+04
  1.033467E+04
  1.030580E+04
  1.027692E+04
  1.024805E+04
  1.021917E+04
  1.018818E+04
  1.015609E+04
  1.012401E+04
  1.009192E+04
  1.005985E+04
  1.002581E+04
  9.990497E+03
  9.955185E+03
  9.919875E+03
  9.884569E+03
  9.846484E+03
  9.807705E+03
  9.768929E+03
  9.730155E+03
  9.690526E+03
  9.648111E+03
  9.605697E+03
  9.563285E+03
  9.520876E+03
  9.475124E+03
  9.429001E+03
  9.382878E+03
  9.336757E+03
  9.287695E+03
  9.237806E+03
  9.187919E+03
  9.138034E+03
  9.085131E+03
  9.031769E+03
  8.978409E+03
  8.924614E+03
  8.868324E+03
  8.812041E+03
  8.755763E+03
  8.697831E+03
  8.638882E+03
  8.579946E+03
  8.520327E+03
  8.458781E+03
  8.397260E+03
  8.335583E+03
  8.271722E+03
  8.207899E+03
  8.143990E+03
  8.077646E+03
  8.011346E+03
  7.944517E+03
  7.874955E+03
  7.805437E+03
  7.734214E+03
  7.660790E+03
  7.587406E+03
  7.510430E+03
  7.432807E+03
  7.353562E+03
  7.271600E+03
  7.189519E+03
  7.103252E+03
  7.017005E+03
  6.927344E+03
  6.836878E+03
  6.743527E+03
  6.648903E+03
  6.551460E+03
  6.452719E+03
  6.350904E+03
  6.248206E+03
  6.141972E+03
  6.034805E+03
  5.925103E+03
  5.813569E+03
  5.700692E+03
  5.585114E+03
  5.467929E+03
  5.349044E+03
  5.227715E+03
  5.103761E+03
  4.977517E+03
  4.849173E+03
  4.720034E+03
  4.594425E+03
  4.482721E+03
  4.402670E+03
  4.389570E+03
  4.480585E+03
  4.444343E+03
  4.003918E+03
  4.499079E+03
  1.346013E+03
 -1.131288E-04
  6.308657E+02
  6.308020E+02
  6.307383E+02
  6.306746E+02
  6.306109E+02
  6.305471E+02
  6.304834E+02
  6.304197E+02
  6.303560E+02
  6.302129E+02
  6.300677E+02
  6.299226E+02
  6.297775E+02
  6.296323E+02
  6.294872E+02
  6.293421E+02
  6.291966E+02
  6.290504E+02
  6.289042E+02
  6.287580E+02
  6.286118E+02
  6.284655E+02
  6.283193E+02
  6.281706E+02
  6.280014E+02
  6.278322E+02
  6.276630E+02
  6.274937E+02
  6.273245E+02
  6.271553E+02
  6.269655E+02
  6.267078E+02
  6.264501E+02
  6.261924E+02
  6.259346E+02
  6.256767E+02
  6.254189E+02
  6.250862E+02
  6.247206E+02
  6.243550E+02
  6.239894E+02
  6.236237E+02
  6.232579E+02
  6.228213E+02
  6.223097E+02
  6.217982E+02
  6.212865E+02
  6.207747E+02
  6.202629E+02
  6.195997E+02
  6.188305E+02
  6.180613E+02
  6.172919E+02
  6.165225E+02
  6.157529E+02
  6.146253E+02
  6.134919E+02
  6.123585E+02
  6.112251E+02
  6.100916E+02
  6.087264E+02
  6.072424E+02
  6.057583E+02
  6.042743E+02
  6.027902E+02
  6.011496E+02
  5.994063E+02
  5.976630E+02
  5.959196E+02
  5.941761E+02
  5.923340E+02
  5.904669E+02
  5.885996E+02
  5.867322E+02
  5.848804E+02
  5.830802E+02
  5.812797E+02
  5.794789E+02
  5.776777E+02
  5.759655E+02
  5.742631E+02
  5.725603E+02
  5.708573E+02
  5.690594E+02
  5.672347E+02
  5.654096E+02
  5.635842E+02
  5.614614E+02
  5.592929E+02
  5.571240E+02
  5.548824E+02
  5.522282E+02
  5.495744E+02
  5.469210E+02
  5.438099E+02
  5.404177E+02
  5.370279E+02
  5.334041E+02
  5.291216E+02
  5.248456E+02
  5.205272E+02
  5.156227E+02
  5.107281E+02
  5.058314E+02
  5.007058E+02
  4.955911E+02
  4.904883E+02
  4.854020E+02
  4.803252E+02
  4.753539E+02
  4.705137E+02
  4.656801E+02
  4.611879E+02
  4.567622E+02
  4.525315E+02
  4.486205E+02
  4.447289E+02
  4.413903E+02
  4.380500E+02
  4.352027E+02
  4.324707E+02
  4.301469E+02
  4.280023E+02
  4.262168E+02
  4.245963E+02
  4.233586E+02
  4.222323E+02
  4.215929E+02
  4.211078E+02
  4.210457E+02
  4.213695E+02
  4.219906E+02
  4.233247E+02
  4.251801E+02
  4.276117E+02
  4.309375E+02
  4.353532E+02
  4.409294E+02
  4.480678E+02
  4.575046E+02
  4.707157E+02
  4.905444E+02
  5.216441E+02
  5.722054E+02
  6.502308E+02
  7.190013E+02
  7.319414E+02
  8.837790E+02
  2.135589E+02
  3.893755E-04
  1.804344E+03
  1.803799E+03
  1.803254E+03
  1.802708E+03
  1.802163E+03
  1.801618E+03
  1.801073E+03
  1.800528E+03
  1.799983E+03
  1.798591E+03
  1.797178E+03
  1.795766E+03
  1.794353E+03
  1.792940E+03
  1.791528E+03
  1.790115E+03
  1.788506E+03
  1.786535E+03
  1.784565E+03
  1.782595E+03
  1.780625E+03
  1.778655E+03
  1.776685E+03
  1.774646E+03
  1.772052E+03
  1.769458E+03
  1.766864E+03
  1.764270E+03
  1.761677E+03
  1.759083E+03
  1.756326E+03
  1.753027E+03
  1.749729E+03
  1.746430E+03
  1.743131E+03
  1.739833E+03
  1.736534E+03
  1.732765E+03
  1.728790E+03
  1.724815E+03
  1.720841E+03
  1.716866E+03
  1.712891E+03
  1.708635E+03
  1.704082E+03
  1.699528E+03
  1.694975E+03
  1.690423E+03
  1.685870E+03
  1.681056E+03
  1.676058E+03
  1.671061E+03
  1.666065E+03
  1.661068E+03
  1.656073E+03
  1.650799E+03
  1.645522E+03
  1.640245E+03
  1.634969E+03
  1.629694E+03
  1.624297E+03
  1.618839E+03
  1.613381E+03
  1.607925E+03
  1.602469E+03
  1.596847E+03
  1.591116E+03
  1.585386E+03
  1.579656E+03
  1.573928E+03
  1.567879E+03
  1.561751E+03
  1.555623E+03
  1.549496E+03
  1.543299E+03
  1.536877E+03
  1.530455E+03
  1.524034E+03
  1.517613E+03
  1.510993E+03
  1.504350E+03
  1.497707E+03
  1.491065E+03
  1.484124E+03
  1.477098E+03
  1.470072E+03
  1.463047E+03
  1.455771E+03
  1.448456E+03
  1.441142E+03
  1.433840E+03
  1.426597E+03
  1.419357E+03
  1.412118E+03
  1.404894E+03
  1.397680E+03
  1.390472E+03
  1.383165E+03
  1.375576E+03
  1.367998E+03
  1.360394E+03
  1.352356E+03
  1.344335E+03
  1.336305E+03
  1.327772E+03
  1.319260E+03
  1.310595E+03
  1.301108E+03
  1.291642E+03
  1.281547E+03
  1.270638E+03
  1.259749E+03
  1.247457E+03
  1.234913E+03
  1.221731E+03
  1.207476E+03
  1.193174E+03
  1.177233E+03
  1.161297E+03
  1.144126E+03
  1.126663E+03
  1.108349E+03
  1.089658E+03
  1.070359E+03
  1.050779E+03
  1.030785E+03
  1.010674E+03
  9.904358E+02
  9.702678E+02
  9.503288E+02
  9.308314E+02
  9.116820E+02
  8.935869E+02
  8.763052E+02
  8.599116E+02
  8.448853E+02
  8.314342E+02
  8.196192E+02
  8.100935E+02
  8.042833E+02
  8.054835E+02
  8.207991E+02
  8.621521E+02
  9.480105E+02
  1.092677E+03
  1.203302E+03
  1.135425E+03
  1.286252E+03
  2.075971E+02
 -8.244452E-11
  1.244859E+00
  1.244650E+00
  1.244441E+00
  1.244232E+00
  1.244023E+00
  1.243813E+00
  1.243604E+00
  1.243395E+00
  1.243186E+00
  1.242568E+00
  1.241941E+00
  1.241313E+00
  1.240685E+00
  1.240058E+00
  1.239430E+00
  1.238802E+00
  1.238041E+00
  1.237036E+00
  1.236030E+00
  1.235024E+00
  1.234019E+00
  1.233013E+00
  1.232008E+00
  1.230962E+00
  1.229595E+00
  1.228228E+00
  1.226861E+00
  1.225494E+00
  1.224127E+00
  1.222759E+00
  1.221304E+00
  1.219556E+00
  1.217808E+00
  1.216060E+00
  1.214312E+00
  1.212564E+00
  1.210817E+00
  1.208801E+00
  1.206668E+00
  1.204534E+00
  1.202402E+00
  1.200269E+00
  1.198136E+00
  1.195821E+00
  1.193315E+00
  1.190809E+00
  1.188302E+00
  1.185796E+00
  1.183290E+00
  1.180566E+00
  1.177688E+00
  1.174811E+00
  1.171934E+00
  1.169057E+00
  1.166180E+00
  1.162936E+00
  1.159687E+00
  1.156437E+00
  1.153188E+00
  1.149939E+00
  1.146451E+00
  1.142840E+00
  1.139230E+00
  1.135620E+00
  1.132011E+00
  1.128181E+00
  1.124207E+00
  1.120233E+00
  1.116260E+00
  1.112287E+00
  1.108001E+00
  1.103638E+00
  1.099274E+00
  1.094911E+00
  1.090452E+00
  1.085679E+00
  1.080906E+00
  1.076134E+00
  1.071361E+00
  1.066213E+00
  1.061023E+00
  1.055833E+00
  1.050643E+00
  1.045122E+00
  1.039508E+00
  1.033895E+00
  1.028281E+00
  1.022328E+00
  1.016323E+00
  1.010319E+00
  1.004265E+00
  9.979313E-01
  9.915979E-01
  9.852651E-01
  9.787461E-01
  9.721127E-01
  9.654808E-01
  9.587721E-01
  9.518464E-01
  9.449236E-01
  9.379832E-01
  9.307971E-01
  9.236153E-01
  9.164238E-01
  9.089582E-01
  9.014976E-01
  8.939775E-01
  8.861498E-01
  8.783272E-01
  8.703126E-01
  8.620504E-01
  8.537926E-01
  8.451307E-01
  8.363960E-01
  8.274788E-01
  8.182557E-01
  8.090194E-01
  7.993120E-01
  7.896068E-01
  7.795174E-01
  7.693375E-01
  7.588330E-01
  7.481852E-01
  7.372201E-01
  7.261090E-01
  7.146520E-01
  7.030956E-01
  6.911414E-01
  6.790822E-01
  6.667377E-01
  6.541870E-01
  6.414852E-01
  6.284795E-01
  6.152930E-01
  6.019151E-01
  5.882623E-01
  5.743140E-01
  5.601081E-01
  5.456659E-01
  5.311341E-01
  5.169996E-01
  5.044298E-01
  4.954219E-01
  4.939478E-01
  5.041896E-01
  5.001113E-01
  4.505513E-01
  5.062706E-01
  1.514636E-01
 -1.273011E-08
  1.126391E+00
  1.126277E+00
  1.126164E+00
  1.126050E+00
  1.125936E+00
  1.125822E+00
  1.125708E+00
  1.125595E+00
  1.125481E+00
  1.125225E+00
  1.124966E+00
  1.124707E+00
  1.124448E+00
  1.124189E+00
  1.123930E+00
  1.123671E+00
  1.123411E+00
  1.123150E+00
  1.122889E+00
  1.122628E+00
  1.122367E+00
  1.122106E+00
  1.121845E+00
  1.121579E+00
  1.121277E+00
  1.120975E+00
  1.120673E+00
  1.120370E+00
  1.120068E+00
  1.119766E+00
  1.119427E+00
  1.118967E+00
  1.118507E+00
  1.118047E+00
  1.117587E+00
  1.117126E+00
  1.116666E+00
  1.116072E+00
  1.115419E+00
  1.114766E+00
  1.114114E+00
  1.113461E+00
  1.112808E+00
  1.112028E+00
  1.111115E+00
  1.110201E+00
  1.109288E+00
  1.108374E+00
  1.107460E+00
  1.106276E+00
  1.104903E+00
  1.103529E+00
  1.102155E+00
  1.100782E+00
  1.099408E+00
  1.097394E+00
  1.095371E+00
  1.093347E+00
  1.091323E+00
  1.089300E+00
  1.086862E+00
  1.084212E+00
  1.081563E+00
  1.078913E+00
  1.076263E+00
  1.073334E+00
  1.070221E+00
  1.067109E+00
  1.063996E+00
  1.060883E+00
  1.057594E+00
  1.054260E+00
  1.050926E+00
  1.047592E+00
  1.044286E+00
  1.041072E+00
  1.037857E+00
  1.034641E+00
  1.031425E+00
  1.028368E+00
  1.025329E+00
  1.022289E+00
  1.019248E+00
  1.016038E+00
  1.012780E+00
  1.009521E+00
  1.006262E+00
  1.002472E+00
  9.985999E-01
  9.947276E-01
  9.907252E-01
  9.859862E-01
  9.812479E-01
  9.765103E-01
  9.709557E-01
  9.648989E-01
  9.588466E-01
  9.523764E-01
  9.447302E-01
  9.370954E-01
  9.293851E-01
  9.206282E-01
  9.118892E-01
  9.031462E-01
  8.939945E-01
  8.848624E-01
  8.757516E-01
  8.666701E-01
  8.576056E-01
  8.487296E-01
  8.400875E-01
  8.314573E-01
  8.234366E-01
  8.155346E-01
  8.079809E-01
  8.009980E-01
  7.940496E-01
  7.880886E-01
  7.821245E-01
  7.770409E-01
  7.721629E-01
  7.680139E-01
  7.641848E-01
  7.609968E-01
  7.581034E-01
  7.558935E-01
  7.538826E-01
  7.527409E-01
  7.518749E-01
  7.517640E-01
  7.523421E-01
  7.534510E-01
  7.558330E-01
  7.591457E-01
  7.634873E-01
  7.694255E-01
  7.773095E-01
  7.872656E-01
  8.000110E-01
  8.168601E-01
  8.404482E-01
  8.758518E-01
  9.313792E-01
  1.021655E+00
  1.160967E+00
  1.283754E+00
  1.306858E+00
  1.577960E+00
  3.813028E-01
  6.952178E-07
  1.241765E+00
  1.241390E+00
  1.241015E+00
  1.240640E+00
  1.240264E+00
  1.239889E+00
  1.239514E+00
  1.239139E+00
  1.238764E+00
  1.237806E+00
  1.236834E+00
  1.235862E+00
  1.234889E+00
  1.233917E+00
  1.232945E+00
  1.231973E+00
  1.230865E+00
  1.229509E+00
  1.228153E+00
  1.226798E+00
  1.225442E+00
  1.224086E+00
  1.222730E+00
  1.221327E+00
  1.219542E+00
  1.217756E+00
  1.215971E+00
  1.214186E+00
  1.212401E+00
  1.210616E+00
  1.208719E+00
  1.206449E+00
  1.204178E+00
  1.201908E+00
  1.199638E+00
  1.197368E+00
  1.195098E+00
  1.192504E+00
  1.189768E+00
  1.187033E+00
  1.184297E+00
  1.181562E+00
  1.178827E+00
  1.175898E+00
  1.172764E+00
  1.169630E+00
  1.166497E+00
  1.163364E+00
  1.160230E+00
  1.156917E+00
  1.153478E+00
  1.150039E+00
  1.146600E+00
  1.143162E+00
  1.139724E+00
  1.136094E+00
  1.132462E+00
  1.128831E+00
  1.125200E+00
  1.121569E+00
  1.117855E+00
  1.114099E+00
  1.110343E+00
  1.106588E+00
  1.102833E+00
  1.098964E+00
  1.095020E+00
  1.091076E+00
  1.087133E+00
  1.083191E+00
  1.079028E+00
  1.074810E+00
  1.070593E+00
  1.066376E+00
  1.062112E+00
  1.057692E+00
  1.053273E+00
  1.048854E+00
  1.044435E+00
  1.039878E+00
  1.035307E+00
  1.030735E+00
  1.026164E+00
  1.021387E+00
  1.016552E+00
  1.011717E+00
  1.006882E+00
  1.001874E+00
  9.968401E-01
  9.918068E-01
  9.867811E-01
  9.817967E-01
  9.768137E-01
  9.718321E-01
  9.668599E-01
  9.618957E-01
  9.569349E-01
  9.519062E-01
  9.466834E-01
  9.414680E-01
  9.362348E-01
  9.307029E-01
  9.251829E-01
  9.196566E-01
  9.137843E-01
  9.079264E-01
  9.019631E-01
  8.954337E-01
  8.889189E-01
  8.819715E-01
  8.744644E-01
  8.669700E-01
  8.585106E-01
  8.498781E-01
  8.408059E-01
  8.309953E-01
  8.211528E-01
  8.101817E-01
  7.992146E-01
  7.873977E-01
  7.753792E-01
  7.627754E-01
  7.499124E-01
  7.366302E-01
  7.231551E-01
  7.093952E-01
  6.955547E-01
  6.816266E-01
  6.677468E-01
  6.540245E-01
  6.406062E-01
  6.274275E-01
  6.149743E-01
  6.030809E-01
  5.917987E-01
  5.814574E-01
  5.722002E-01
  5.640691E-01
  5.575134E-01
  5.535148E-01
  5.543407E-01
  5.648811E-01
  5.933406E-01
  6.524291E-01
  7.519901E-01
  8.281227E-01
  7.814091E-01
  8.852100E-01
  1.428701E-01
 -5.673903E-14
  9.891757E-01
  9.890095E-01
  9.888434E-01
  9.886772E-01
  9.885110E-01
  9.883449E-01
  9.881787E-01
  9.880126E-01
  9.878464E-01
  9.873557E-01
  9.868569E-01
  9.863582E-01
  9.858594E-01
  9.853606E-01
  9.848619E-01
  9.843632E-01
  9.837585E-01
  9.829595E-01
  9.821605E-01
  9.813616E-01
  9.805626E-01
  9.797637E-01
  9.789648E-01
  9.781340E-01
  9.770476E-01
  9.759613E-01
  9.748750E-01
  9.737887E-01
  9.727024E-01
  9.716162E-01
  9.704599E-01
  9.690709E-01
  9.676820E-01
  9.662931E-01
  9.649042E-01
  9.635154E-01
  9.621266E-01
  9.605248E-01
  9.588299E-01
  9.571350E-01
  9.554402E-01
  9.537454E-01
  9.520508E-01
  9.502116E-01
  9.482200E-01
  9.462285E-01
  9.442371E-01
  9.422459E-01
  9.402547E-01
  9.380898E-01
  9.358033E-01
  9.335169E-01
  9.312307E-01
  9.289447E-01
  9.266588E-01
  9.240810E-01
  9.214987E-01
  9.189167E-01
  9.163349E-01
  9.137534E-01
  9.109816E-01
  9.081124E-01
  9.052435E-01
  9.023748E-01
  8.995065E-01
  8.964632E-01
  8.933052E-01
  8.901476E-01
  8.869902E-01
  8.838331E-01
  8.804276E-01
  8.769600E-01
  8.734927E-01
  8.700255E-01
  8.664820E-01
  8.626893E-01
  8.588968E-01
  8.551045E-01
  8.513123E-01
  8.472215E-01
  8.430973E-01
  8.389733E-01
  8.348494E-01
  8.304626E-01
  8.260018E-01
  8.215412E-01
  8.170807E-01
  8.123503E-01
  8.075788E-01
  8.028076E-01
  7.979974E-01
  7.929639E-01
  7.879310E-01
  7.828987E-01
  7.777181E-01
  7.724465E-01
  7.671759E-01
  7.618442E-01
  7.563396E-01
  7.508372E-01
  7.453206E-01
  7.396082E-01
  7.338989E-01
  7.281818E-01
  7.222465E-01
  7.163150E-01
  7.103360E-01
  7.041126E-01
  6.978931E-01
  6.915211E-01
  6.849525E-01
  6.783874E-01
  6.715019E-01
  6.645586E-01
  6.574707E-01
  6.501405E-01
  6.427997E-01
  6.350859E-01
  6.273738E-01
  6.193575E-01
  6.112694E-01
  6.029243E-01
  5.944656E-01
  5.857554E-01
  5.769295E-01
  5.678292E-01
  5.586500E-01
  5.491551E-01
  5.395766E-01
  5.297716E-01
  5.198027E-01
  5.097134E-01
  4.993826E-01
  4.889076E-01
  4.782803E-01
  4.674341E-01
  4.563528E-01
  4.450662E-01
  4.335914E-01
  4.220449E-01
  4.108132E-01
  4.008243E-01
  3.936651E-01
  3.924917E-01
  4.006272E-01
  3.973833E-01
  3.579999E-01
  4.022687E-01
  1.653095E-01
 -2.460684E-03
  5.640911E-02
  5.640342E-02
  5.639772E-02
  5.639202E-02
  5.638633E-02
  5.638063E-02
  5.637494E-02
  5.636924E-02
  5.636355E-02
  5.635075E-02
  5.633777E-02
  5.632480E-02
  5.631182E-02
  5.629885E-02
  5.628587E-02
  5.627290E-02
  5.625989E-02
  5.624682E-02
  5.623375E-02
  5.622068E-02
  5.620761E-02
  5.619453E-02
  5.618146E-02
  5.616816E-02
  5.615304E-02
  5.613791E-02
  5.612279E-02
  5.610766E-02
  5.609253E-02
  5.607740E-02
  5.606044E-02
  5.603740E-02
  5.601436E-02
  5.599131E-02
  5.596827E-02
  5.594522E-02
  5.592216E-02
  5.589242E-02
  5.585973E-02
  5.582705E-02
  5.579436E-02
  5.576166E-02
  5.572896E-02
  5.568992E-02
  5.564418E-02
  5.559844E-02
  5.555269E-02
  5.550693E-02
  5.546117E-02
  5.540187E-02
  5.533310E-02
  5.526431E-02
  5.519552E-02
  5.512672E-02
  5.505791E-02
  5.495708E-02
  5.485574E-02
  5.475439E-02
  5.465304E-02
  5.455169E-02
  5.442961E-02
  5.429691E-02
  5.416421E-02
  5.403150E-02
  5.389880E-02
  5.375210E-02
  5.359621E-02
  5.344032E-02
  5.328443E-02
  5.312852E-02
  5.296380E-02
  5.279684E-02
  5.262987E-02
  5.246288E-02
  5.229730E-02
  5.213633E-02
  5.197533E-02
  5.181430E-02
  5.165325E-02
  5.150016E-02
  5.134793E-02
  5.119568E-02
  5.104341E-02
  5.088265E-02
  5.071949E-02
  5.055631E-02
  5.039309E-02
  5.020328E-02
  5.000937E-02
  4.981544E-02
  4.961500E-02
  4.937765E-02
  4.914034E-02
  4.890307E-02
  4.862486E-02
  4.832150E-02
  4.801836E-02
  4.769427E-02
  4.731127E-02
  4.692882E-02
  4.654260E-02
  4.610391E-02
  4.566611E-02
  4.522810E-02
  4.476960E-02
  4.431207E-02
  4.385559E-02
  4.340059E-02
  4.294642E-02
  4.250170E-02
  4.206871E-02
  4.163630E-02
  4.123446E-02
  4.083857E-02
  4.046015E-02
  4.011034E-02
  3.976227E-02
  3.946372E-02
  3.916501E-02
  3.891045E-02
  3.866620E-02
  3.845851E-02
  3.826686E-02
  3.810735E-02
  3.796262E-02
  3.785215E-02
  3.775165E-02
  3.769471E-02
  3.765158E-02
  3.764628E-02
  3.767548E-02
  3.773126E-02
  3.785078E-02
  3.801691E-02
  3.823454E-02
  3.853211E-02
  3.892710E-02
  3.942583E-02
  4.006421E-02
  4.090807E-02
  4.208932E-02
  4.386223E-02
  4.664285E-02
  5.116353E-02
  5.813975E-02
  6.428827E-02
  6.544463E-02
  7.901986E-02
  2.622807E-02
  8.469372E-03
  1.613361E-01
  1.612874E-01
  1.612386E-01
  1.611899E-01
  1.611412E-01
  1.610924E-01
  1.610437E-01
  1.609950E-01
  1.609462E-01
  1.608218E-01
  1.606955E-01
  1.605691E-01
  1.604428E-01
  1.603165E-01
  1.601902E-01
  1.600639E-01
  1.599200E-01
  1.597439E-01
  1.595677E-01
  1.593916E-01
  1.592154E-01
  1.590393E-01
  1.588631E-01
  1.586808E-01
  1.584489E-01
  1.582169E-01
  1.579850E-01
  1.577531E-01
  1.575212E-01
  1.572893E-01
  1.570428E-01
  1.567478E-01
  1.564529E-01
  1.561579E-01
  1.558630E-01
  1.555681E-01
  1.552731E-01
  1.549361E-01
  1.545807E-01
  1.542253E-01
  1.538699E-01
  1.535145E-01
  1.531591E-01
  1.527786E-01
  1.523714E-01
  1.519643E-01
  1.515572E-01
  1.511501E-01
  1.507431E-01
  1.503126E-01
  1.498657E-01
  1.494189E-01
  1.489722E-01
  1.485254E-01
  1.480787E-01
  1.476072E-01
  1.471353E-01
  1.466635E-01
  1.461917E-01
  1.457200E-01
  1.452374E-01
  1.447494E-01
  1.442614E-01
  1.437735E-01
  1.432856E-01
  1.427829E-01
  1.422704E-01
  1.417580E-01
  1.412457E-01
  1.407335E-01
  1.401926E-01
  1.396446E-01
  1.390966E-01
  1.385487E-01
  1.379947E-01
  1.374204E-01
  1.368462E-01
  1.362720E-01
  1.356979E-01
  1.351059E-01
  1.345120E-01
  1.339180E-01
  1.333241E-01
  1.327034E-01
  1.320752E-01
  1.314471E-01
  1.308189E-01
  1.301683E-01
  1.295142E-01
  1.288603E-01
  1.282073E-01
  1.275596E-01
  1.269122E-01
  1.262649E-01
  1.256188E-01
  1.249737E-01
  1.243291E-01
  1.236756E-01
  1.229968E-01
  1.223189E-01
  1.216387E-01
  1.209196E-01
  1.202020E-01
  1.194835E-01
  1.187201E-01
  1.179585E-01
  1.171831E-01
  1.163342E-01
  1.154871E-01
  1.145839E-01
  1.136080E-01
  1.126337E-01
  1.115342E-01
  1.104122E-01
  1.092331E-01
  1.079582E-01
  1.066792E-01
  1.052537E-01
  1.038288E-01
  1.022936E-01
  1.007323E-01
  9.909509E-02
  9.742424E-02
  9.569904E-02
  9.394880E-02
  9.216166E-02
  9.036404E-02
  8.855509E-02
  8.675241E-02
  8.497020E-02
  8.322747E-02
  8.151582E-02
  7.989840E-02
  7.835367E-02
  7.688829E-02
  7.554510E-02
  7.434269E-02
  7.328650E-02
  7.243494E-02
  7.191552E-02
  7.202278E-02
  7.339208E-02
  7.708940E-02
  8.476600E-02
  9.770069E-02
  1.075912E-01
  1.015210E-01
  1.150055E-01
  2.549588E-02
 -1.793264E-09
  9.893065E-01
  9.891404E-01
  9.889743E-01
  9.888081E-01
  9.886420E-01
  9.884760E-01
  9.883099E-01
  9.881438E-01
  9.879777E-01
  9.874871E-01
  9.869885E-01
  9.864899E-01
  9.859914E-01
  9.854928E-01
  9.849942E-01
  9.844957E-01
  9.838912E-01
  9.830925E-01
  9.822939E-01
  9.814952E-01
  9.806965E-01
  9.798979E-01
  9.790993E-01
  9.782688E-01
  9.771829E-01