 Title = "ADflow Slice Data"
Variables =  "CoordinateX"  "CoordinateY"  "CoordinateZ"  "XoC"  "YoC"  "ZoC" "VelocityX" "VelocityY" "VelocityZ" "CoefPressure" "Mach" 
Zone T= "Slice_0001 None Relative Regular z = 0.10000000"
 Nodes =          114  Elements=          106  ZONETYPE=FELINESEG
 DATAPACKING=POINT
  7.301402E-01  6.872705E-02  1.000000E-01  7.450347E-01  6.024655E-02  1.416123E-17  2.607735E-02 -4.589845E-03 -1.313024E-04 -4.583174E-01  0.000000E+00
  7.043967E-01  7.312556E-02  1.000000E-01  7.187654E-01  6.473489E-02 -4.248369E-17  2.771248E-02 -4.557977E-03 -1.599276E-04 -5.007504E-01  0.000000E+00
  6.775455E-01  7.739895E-02  1.000000E-01  6.913657E-01  6.909556E-02  3.965144E-16  2.925327E-02 -4.464272E-03 -1.863728E-04 -5.422439E-01  0.000000E+00
  6.496792E-01  8.149995E-02  1.000000E-01  6.629303E-01  7.328032E-02  4.248369E-17  3.070684E-02 -4.319663E-03 -2.069738E-04 -5.836794E-01  0.000000E+00
  6.209097E-01  8.539061E-02  1.000000E-01  6.335732E-01  7.725045E-02 -2.832246E-17  3.211237E-02 -4.127788E-03 -2.192174E-04 -6.252680E-01  0.000000E+00
  5.913667E-01  8.901816E-02  1.000000E-01  6.034268E-01  8.095208E-02 -2.832246E-17  3.351928E-02 -3.889440E-03 -2.225766E-04 -6.669491E-01  0.000000E+00
  5.611982E-01  9.233858E-02  1.000000E-01  5.726422E-01  8.434032E-02  0.000000E+00  3.497468E-02 -3.608561E-03 -2.180114E-04 -7.095624E-01  0.000000E+00
  5.305654E-01  9.530703E-02  1.000000E-01  5.413837E-01  8.736940E-02 -5.664492E-17  3.653224E-02 -3.286313E-03 -2.072720E-04 -7.548967E-01  0.000000E+00
  4.996398E-01  9.788801E-02  1.000000E-01  5.098265E-01  9.000309E-02  0.000000E+00  3.825653E-02 -2.910238E-03 -1.924026E-04 -8.043874E-01  0.000000E+00
  4.685986E-01  1.000308E-01  1.000000E-01  4.781513E-01  9.218961E-02  1.416123E-17  4.020481E-02 -2.445676E-03 -1.754688E-04 -8.569721E-01  0.000000E+00
  4.376215E-01  1.016699E-01  1.000000E-01  4.465416E-01  9.386223E-02 -8.496738E-17  4.237246E-02 -1.855903E-03 -1.583136E-04 -9.097405E-01  0.000000E+00
  4.068895E-01  1.027434E-01  1.000000E-01  4.151819E-01  9.495765E-02  0.000000E+00  4.467688E-02 -1.117087E-03 -1.424158E-04 -9.594341E-01  0.000000E+00
  3.765814E-01  1.032054E-01  1.000000E-01  3.842547E-01  9.542912E-02 -5.664492E-17  4.697943E-02 -2.419012E-04 -1.286539E-04 -1.005160E+00  0.000000E+00
  3.468696E-01  1.030600E-01  1.000000E-01  3.539361E-01  9.528075E-02 -5.664492E-17  4.918888E-02  7.538964E-04 -1.172693E-04 -1.046734E+00  0.000000E+00
  3.179133E-01  1.023139E-01  1.000000E-01  3.243884E-01  9.451941E-02 -2.832246E-17  5.130606E-02  1.879430E-03 -1.079810E-04 -1.083483E+00  0.000000E+00
  2.898519E-01  1.009787E-01  1.000000E-01  2.957539E-01  9.315689E-02 -4.248369E-17  5.335386E-02  3.128594E-03 -1.001027E-04 -1.117760E+00  0.000000E+00
  2.628044E-01  9.908805E-02  1.000000E-01  2.681540E-01  9.122764E-02  0.000000E+00  5.537712E-02  4.495754E-03 -9.288490E-05 -1.153023E+00  0.000000E+00
  9.800000E-01  1.181335E-02  1.000000E-01  9.999976E-01  2.170433E-03 -2.832246E-17  1.041140E-02 -1.306081E-02  2.723964E-05 -5.372771E-02  0.000000E+00
  9.720124E-01  1.396260E-02  1.000000E-01  9.918469E-01  4.363578E-03 -2.832246E-17  1.194990E-02 -3.294534E-03 -2.394578E-05  6.905391E-02  0.000000E+00
  9.632634E-01  1.633212E-02  1.000000E-01  9.829193E-01  6.781499E-03 -2.832246E-17  8.962523E-03 -2.371305E-03 -1.984748E-05  2.170425E-02  0.000000E+00
  9.536907E-01  1.891082E-02  1.000000E-01  9.731510E-01  9.412868E-03 -2.832246E-17  7.114291E-03 -1.911257E-03 -1.578177E-05  3.678027E-03  0.000000E+00
  9.432303E-01  2.168360E-02  1.000000E-01  9.624769E-01  1.224227E-02  1.416123E-17  6.725608E-03 -1.771834E-03 -1.309867E-05 -1.654048E-02  0.000000E+00
  9.318220E-01  2.465490E-02  1.000000E-01  9.508356E-01  1.527426E-02  1.416123E-17  7.469771E-03 -1.929372E-03 -1.133631E-05 -4.279368E-02  0.000000E+00
  9.194070E-01  2.782918E-02  1.000000E-01  9.381671E-01  1.851337E-02 -8.496738E-17  8.853181E-03 -2.243081E-03 -1.058634E-05 -7.101894E-02  0.000000E+00
  9.059278E-01  3.120622E-02  1.000000E-01  9.244126E-01  2.195939E-02 -5.664492E-17  1.046739E-02 -2.595924E-03 -1.101346E-05 -1.011277E-01  0.000000E+00
  8.913299E-01  3.478213E-02  1.000000E-01  9.095165E-01  2.560833E-02  0.000000E+00  1.211069E-02 -2.934928E-03 -1.278861E-05 -1.336771E-01  0.000000E+00
  8.755643E-01  3.855401E-02  1.000000E-01  8.934290E-01  2.945725E-02 -2.832246E-17  1.375309E-02 -3.251908E-03 -1.623677E-05 -1.688212E-01  0.000000E+00
  8.585885E-01  4.251395E-02  1.000000E-01  8.761064E-01  3.349807E-02  4.106756E-16  1.543985E-02 -3.551737E-03 -2.192029E-05 -2.061966E-01  0.000000E+00
  8.403666E-01  4.664282E-02  1.000000E-01  8.575124E-01  3.771126E-02  3.965144E-16  1.719381E-02 -3.832105E-03 -3.051613E-05 -2.452919E-01  0.000000E+00
  8.208730E-01  5.091440E-02  1.000000E-01  8.376207E-01  4.207008E-02 -8.496738E-17  1.899039E-02 -4.083119E-03 -4.264323E-05 -2.859269E-01  0.000000E+00
  8.000947E-01  5.529932E-02  1.000000E-01  8.164180E-01  4.654457E-02 -2.832246E-17  2.079724E-02 -4.293835E-03 -5.879022E-05 -3.280120E-01  0.000000E+00
  7.780326E-01  5.976082E-02  1.000000E-01  7.939052E-01  5.109719E-02 -2.832246E-17  2.259376E-02 -4.454365E-03 -7.920881E-05 -3.712514E-01  0.000000E+00
  7.547032E-01  6.425446E-02  1.000000E-01  7.700994E-01  5.568260E-02  4.389981E-16  2.436213E-02 -4.555168E-03 -1.037037E-04 -4.149622E-01  0.000000E+00
  7.301402E-01  6.872705E-02  1.000000E-01  7.450347E-01  6.024655E-02  2.832246E-17  2.607735E-02 -4.589845E-03 -1.313024E-04 -4.583174E-01  0.000000E+00
  2.444131E-01 -2.336189E-03  1.000000E-01  2.493870E-01 -1.226810E-02  3.681920E-16  2.742406E-02  1.329949E-03  6.801672E-05  1.401123E-01  0.000000E+00
  2.700250E-01 -1.091827E-03  1.000000E-01  2.755220E-01 -1.099832E-02 -4.248369E-17  2.768892E-02  1.339468E-03  7.095370E-05  1.404010E-01  0.000000E+00
  2.967058E-01  1.869606E-04  1.000000E-01  3.027478E-01 -9.693414E-03 -2.832246E-17  2.804363E-02  1.397760E-03  7.433929E-05  1.346746E-01  0.000000E+00
  3.243554E-01  1.610731E-03  1.000000E-01  3.309620E-01 -8.240565E-03  4.248369E-16  2.811270E-02  1.578308E-03  7.819641E-05  1.244386E-01  0.000000E+00
  3.528511E-01  3.337852E-03  1.000000E-01  3.600398E-01 -6.478168E-03 -4.248369E-17  2.748588E-02  1.891821E-03  8.245937E-05  1.163164E-01  0.000000E+00
  3.820469E-01  5.591148E-03  1.000000E-01  3.898318E-01 -4.178851E-03  5.664492E-17  2.591271E-02  2.272514E-03  8.692813E-05  1.184252E-01  0.000000E+00
  4.117740E-01  8.532187E-03  1.000000E-01  4.201661E-01 -1.177744E-03 -5.664492E-17  2.349977E-02  2.590109E-03  9.132185E-05  1.377611E-01  0.000000E+00
  4.418498E-01  1.221823E-02  1.000000E-01  4.508562E-01  2.583583E-03 -2.832246E-17  2.072553E-02  2.715334E-03  9.544093E-05  1.738650E-01  0.000000E+00
  4.721105E-01  1.647302E-02  1.000000E-01  4.817350E-01  6.925269E-03 -5.664492E-17  1.838107E-02  2.489792E-03  9.977973E-05  2.311029E-01  0.000000E+00
  5.024968E-01  2.040505E-02  1.000000E-01  5.127419E-01  1.093762E-02  1.416123E-17  1.694108E-02  2.019174E-03  1.044386E-04  2.902131E-01  0.000000E+00
  5.328693E-01  2.365953E-02  1.000000E-01  5.437347E-01  1.425856E-02 -4.248369E-17  1.622551E-02  1.599405E-03  1.086800E-04  3.207330E-01  0.000000E+00
  5.630297E-01  2.633902E-02  1.000000E-01  5.745111E-01  1.699278E-02  1.416123E-17  1.588691E-02  1.304553E-03  1.119028E-04  3.310239E-01  0.000000E+00
  5.927917E-01  2.855777E-02  1.000000E-01  6.048809E-01  1.925685E-02  5.664492E-17  1.565685E-02  1.094960E-03  1.131907E-04  3.385743E-01  0.000000E+00
  6.219828E-01  3.043215E-02  1.000000E-01  6.346683E-01  2.116951E-02 -4.248369E-17  1.538852E-02  9.265312E-04  1.115220E-04  3.482904E-01  0.000000E+00
  6.504533E-01  3.199432E-02  1.000000E-01  6.637202E-01  2.276358E-02  5.664492E-17  1.507095E-02  7.513039E-04  1.065523E-04  3.604772E-01  0.000000E+00
  6.780742E-01  3.319042E-02  1.000000E-01  6.919053E-01  2.398411E-02  4.531593E-16  1.477031E-02  5.469855E-04  9.870980E-05  3.733095E-01  0.000000E+00
  7.047326E-01  3.396777E-02  1.000000E-01  7.191082E-01  2.477734E-02  0.000000E+00  1.456576E-02  3.170144E-04  8.904758E-05  3.841698E-01  0.000000E+00
  1.215943E-04  9.348613E-03  1.000000E-01  1.060954E-04 -3.446430E-04 -5.664492E-17 -2.289691E-02  4.085631E-02  6.126308E-05  8.872221E-01  0.000000E+00
  4.902502E-03  3.681896E-03  1.000000E-01  4.984648E-03 -6.127097E-03 -8.496738E-17  4.216970E-04  3.840524E-03  4.981633E-05  8.757843E-01  0.000000E+00
  1.254908E-02  4.353713E-05  1.000000E-01  1.278740E-02 -9.839767E-03 -2.832246E-17  1.701754E-02 -5.893514E-03  4.106130E-05  4.289151E-01  0.000000E+00
  2.163699E-02 -2.341616E-03  1.000000E-01  2.206093E-02 -1.227363E-02  1.416123E-17  2.449692E-02 -5.148962E-03  3.907104E-05  2.473493E-01  0.000000E+00
  3.184423E-02 -4.014214E-03  1.000000E-01  3.247664E-02 -1.398039E-02 -2.832246E-17  2.750718E-02 -3.618537E-03  4.113775E-05  2.305421E-01  0.000000E+00
  4.311596E-02 -5.184313E-03  1.000000E-01  4.397858E-02 -1.517439E-02 -8.496738E-17  2.883870E-02 -2.312538E-03  4.369222E-05  2.045595E-01  0.000000E+00
  5.546913E-02 -5.894922E-03  1.000000E-01  5.658405E-02 -1.589951E-02  1.416123E-17  2.930918E-02 -1.351625E-03  4.609229E-05  1.781329E-01  0.000000E+00
  6.891473E-02 -6.359508E-03  1.000000E-01  7.030427E-02 -1.637359E-02 -8.496738E-17  2.955435E-02 -8.338266E-04  4.845427E-05  1.721470E-01  0.000000E+00
  8.348882E-02 -6.684384E-03  1.000000E-01  8.517602E-02 -1.670510E-02  5.664492E-17  2.974823E-02 -4.939717E-04  5.065635E-05  1.654303E-01  0.000000E+00
  9.923792E-02 -6.863010E-03  1.000000E-01  1.012468E-01 -1.688737E-02 -9.912860E-17  2.979948E-02 -1.437464E-04  5.272414E-05  1.506607E-01  0.000000E+00
  1.162051E-01 -6.837047E-03  1.000000E-01  1.185605E-01 -1.686088E-02 -8.496738E-17  2.965320E-02  2.180499E-04  5.478745E-05  1.371913E-01  0.000000E+00
  1.344203E-01 -6.598154E-03  1.000000E-01  1.371477E-01 -1.661711E-02 -8.496738E-17  2.932934E-02  5.375397E-04  5.688385E-05  1.309786E-01  0.000000E+00
  1.539027E-01 -6.142389E-03  1.000000E-01  1.570281E-01 -1.615203E-02  4.389981E-16  2.884913E-02  8.151822E-04  5.895959E-05  1.288363E-01  0.000000E+00
  1.746592E-01 -5.457430E-03  1.000000E-01  1.782085E-01 -1.545309E-02  3.257083E-16  2.828868E-02  1.038096E-03  6.103682E-05  1.295444E-01  0.000000E+00
  1.966815E-01 -4.570103E-03  1.000000E-01  2.006805E-01 -1.454764E-02 -2.832246E-17  2.778040E-02  1.191213E-03  6.318613E-05  1.331347E-01  0.000000E+00
  2.199461E-01 -3.516175E-03  1.000000E-01  2.244203E-01 -1.347218E-02 -4.248369E-17  2.745657E-02  1.286630E-03  6.547362E-05  1.372251E-01  0.000000E+00
  2.444131E-01 -2.336189E-03  1.000000E-01  2.493870E-01 -1.226810E-02  3.823532E-16  2.742406E-02  1.329949E-03  6.801672E-05  1.401123E-01  0.000000E+00
  7.047326E-01  3.396777E-02  1.000000E-01  7.191082E-01  2.477734E-02 -2.832246E-17  1.456576E-02  3.170144E-04  8.904758E-05  3.841698E-01  0.000000E+00
  7.303325E-01  3.429789E-02  1.000000E-01  7.452309E-01  2.511420E-02 -2.832246E-17  1.452937E-02  6.669551E-05  7.882762E-05  3.917637E-01  0.000000E+00
  7.547951E-01  3.417812E-02  1.000000E-01  7.701932E-01  2.499198E-02  4.389981E-16  1.473112E-02 -2.120864E-04  6.907652E-05  3.961330E-01  0.000000E+00
  7.780600E-01  3.360330E-02  1.000000E-01  7.939332E-01  2.440543E-02  1.416123E-17  1.523062E-02 -5.360151E-04  6.042638E-05  3.969276E-01  0.000000E+00
  8.000833E-01  3.258904E-02  1.000000E-01  8.164063E-01  2.337045E-02 -4.248369E-17  1.604915E-02 -9.196243E-04  5.316425E-05  3.933709E-01  0.000000E+00
  8.208376E-01  3.116723E-02  1.000000E-01  8.375845E-01  2.191960E-02 -2.832246E-17  1.712997E-02 -1.346713E-03  4.717586E-05  3.843603E-01  0.000000E+00
  8.403144E-01  2.944297E-02  1.000000E-01  8.574591E-01  2.016012E-02  4.389981E-16  1.832137E-02 -1.751939E-03  4.194604E-05  3.689964E-01  0.000000E+00
  8.585258E-01  2.757563E-02  1.000000E-01  8.760424E-01  1.825464E-02  3.965144E-16  1.943310E-02 -2.068117E-03  3.701191E-05  3.496596E-01  0.000000E+00
  8.754993E-01  2.570544E-02  1.000000E-01  8.933626E-01  1.634626E-02 -2.832246E-17  2.032427E-02 -2.276738E-03  3.227831E-05  3.304740E-01  0.000000E+00
  8.912718E-01  2.391235E-02  1.000000E-01  9.094573E-01  1.451655E-02 -2.832246E-17  2.098042E-02 -2.435365E-03  2.813521E-05  3.150879E-01  0.000000E+00
  9.058836E-01  2.218609E-02  1.000000E-01  9.243675E-01  1.275503E-02 -4.248369E-17  2.152646E-02 -2.630221E-03  2.513399E-05  3.041347E-01  0.000000E+00
  9.193796E-01  2.048758E-02  1.000000E-01  9.381391E-01  1.102183E-02 -5.664492E-17  2.215485E-02 -2.890469E-03  2.347300E-05  2.929952E-01  0.000000E+00
  9.318118E-01  1.881463E-02  1.000000E-01  9.508252E-01  9.314714E-03  4.248369E-17  2.306613E-02 -3.232857E-03  2.341171E-05  2.790143E-01  0.000000E+00
  9.432349E-01  1.715942E-02  1.000000E-01  9.624816E-01  7.625696E-03 -2.832246E-17  2.429199E-02 -3.672243E-03  2.526481E-05  2.627123E-01  0.000000E+00
  9.537058E-01  1.551966E-02  1.000000E-01  9.731664E-01  5.952444E-03  0.000000E+00  2.518461E-02 -4.104580E-03  2.822788E-05  2.385360E-01  0.000000E+00
  9.632829E-01  1.389806E-02  1.000000E-01  9.829391E-01  4.297719E-03 -2.832246E-17  2.415244E-02 -4.273515E-03  2.930371E-05  2.045986E-01  0.000000E+00
  9.720275E-01  1.232625E-02  1.000000E-01  9.918624E-01  2.693809E-03  0.000000E+00  2.043058E-02 -3.702285E-03  2.183596E-05  2.030009E-01  0.000000E+00
  9.800000E-01  1.082552E-02  1.000000E-01  9.999976E-01  1.162429E-03  1.416123E-17  1.353846E-02  4.395030E-03 -3.475798E-05 -7.504400E-03  0.000000E+00
  1.215943E-04  1.002928E-02  1.000000E-01  1.060954E-04  3.499305E-04 -9.912860E-17  2.419484E-02  5.873076E-02  2.701775E-05  6.594808E-01  0.000000E+00
  7.278129E-05  9.914618E-03  1.000000E-01  5.628534E-05  2.329222E-04  1.416123E-17  1.666285E-02  7.743227E-02  5.134786E-05  5.470780E-01  0.000000E+00
  1.762252E-05  9.686358E-03  1.000000E-01  0.000000E+00  0.000000E+00  0.000000E+00 -4.393174E-03  9.500181E-02  7.391668E-05  6.096430E-01  0.000000E+00
  8.694958E-05  9.461200E-03  1.000000E-01  7.074300E-05 -2.297558E-04  0.000000E+00 -3.117459E-02  8.129901E-02  7.355958E-05  6.497300E-01  0.000000E+00
  1.215943E-04  9.348613E-03  1.000000E-01  1.060954E-04 -3.446430E-04 -4.248369E-17 -2.289691E-02  4.085631E-02  6.126308E-05  8.872221E-01  0.000000E+00
  9.800000E-01  1.082552E-02  1.000000E-01  9.999976E-01  1.162429E-03  0.000000E+00  1.353846E-02  4.395030E-03 -3.475798E-05 -7.504400E-03  0.000000E+00
  9.800000E-01  1.099016E-02  1.000000E-01  9.999976E-01  1.330430E-03  0.000000E+00  4.382276E-03 -1.313406E-03 -1.562785E-05 -2.065065E-01  0.000000E+00
  9.800000E-01  1.131943E-02  1.000000E-01  9.999976E-01  1.666431E-03 -2.832246E-17 -4.340355E-04 -1.568640E-02  5.091594E-05 -1.717244E-01  0.000000E+00
  9.800000E-01  1.164871E-02  1.000000E-01  9.999976E-01  2.002433E-03 -5.664492E-17  3.340877E-03 -1.950347E-02  6.438050E-05 -1.894734E-01  0.000000E+00
  9.800000E-01  1.181335E-02  1.000000E-01  9.999976E-01  2.170433E-03  0.000000E+00  1.041140E-02 -1.306081E-02  2.723964E-05 -5.372771E-02  0.000000E+00
  2.628044E-01  9.908805E-02  1.000000E-01  2.681540E-01  9.122764E-02 -2.832246E-17  5.537712E-02  4.495754E-03 -9.288490E-05 -1.153023E+00  0.000000E+00
  2.368706E-01  9.668383E-02  1.000000E-01  2.416905E-01  8.877432E-02  3.681920E-16  5.748825E-02  6.066102E-03 -8.592780E-05 -1.185975E+00  0.000000E+00
  2.121362E-01  9.375248E-02  1.000000E-01  2.164509E-01  8.578309E-02  1.416123E-17  5.968569E-02  7.912285E-03 -7.906809E-05 -1.209886E+00  0.000000E+00
  1.886687E-01  9.030690E-02  1.000000E-01  1.925041E-01  8.226715E-02 -4.248369E-17  6.178096E-02  1.000934E-02 -7.220186E-05 -1.220091E+00  0.000000E+00
  1.665185E-01  8.637573E-02  1.000000E-01  1.699015E-01  7.825569E-02  4.814818E-16  6.355150E-02  1.229004E-02 -6.535232E-05 -1.214139E+00  0.000000E+00
  1.457161E-01  8.201325E-02  1.000000E-01  1.486743E-01  7.380410E-02  4.531593E-16  6.485383E-02  1.468196E-02 -5.860674E-05 -1.193239E+00  0.000000E+00
  1.262764E-01  7.727722E-02  1.000000E-01  1.288375E-01  6.897134E-02  0.000000E+00  6.567008E-02  1.714868E-02 -5.202815E-05 -1.162049E+00  0.000000E+00
  1.081990E-01  7.222592E-02  1.000000E-01  1.103909E-01  6.381688E-02  0.000000E+00  6.602775E-02  1.966405E-02 -4.554638E-05 -1.127581E+00  0.000000E+00
  9.146971E-02  6.692066E-02  1.000000E-01  9.331991E-02  5.840326E-02  0.000000E+00  6.602271E-02  2.237613E-02 -3.915735E-05 -1.085853E+00  0.000000E+00
  7.608258E-02  6.135632E-02  1.000000E-01  7.761851E-02  5.272527E-02  0.000000E+00  6.561375E-02  2.545189E-02 -3.298686E-05 -1.019843E+00  0.000000E+00
  6.202881E-02  5.552164E-02  1.000000E-01  6.327771E-02  4.677143E-02 -5.664492E-17  6.448882E-02  2.875961E-02 -2.719211E-05 -9.127739E-01  0.000000E+00
  4.929579E-02  4.943309E-02  1.000000E-01  5.028463E-02  4.055853E-02 -8.496738E-17  6.231858E-02  3.176904E-02 -2.184783E-05 -7.678277E-01  0.000000E+00
  3.782553E-02  4.320104E-02  1.000000E-01  3.858010E-02  3.419919E-02  4.248369E-17  5.921947E-02  3.425754E-02 -1.695366E-05 -6.087325E-01  0.000000E+00
  2.757469E-02  3.687905E-02  1.000000E-01  2.811990E-02  2.774808E-02 -2.832246E-17  5.562896E-02  3.642029E-02 -1.209558E-05 -4.835241E-01  0.000000E+00
  1.848362E-02  3.054365E-02  1.000000E-01  1.884315E-02  2.128328E-02  5.664492E-17  5.218694E-02  3.964962E-02 -6.373083E-06 -3.828324E-01  0.000000E+00
  1.064273E-02  2.406880E-02  1.000000E-01  1.084212E-02  1.467620E-02  1.416123E-17  4.848650E-02  4.577208E-02  1.517428E-06 -1.418417E-01  0.000000E+00
  4.262692E-03  1.730449E-02  1.000000E-01  4.331771E-03  7.773724E-03  1.416123E-17  3.995168E-02  5.395744E-02  1.245697E-05  4.049439E-01  0.000000E+00
  1.215943E-04  1.002928E-02  1.000000E-01  1.060954E-04  3.499305E-04 -8.496738E-17  2.419484E-02  5.873076E-02  2.701775E-05  6.594808E-01  0.000000E+00
    1    2
    2    3
    3    4
    4    5
    5    6
    6    7
    7    8
    8    9
    9   10
   10   11
   11   12
   12   13
   13   14
   14   15
   15   16
   16   17
   18   19
   19   20
   20   21
   21   22
   22   23
   23   24
   24   25
   25   26
   26   27
   27   28
   28   29
   29   30
   30   31
   31   32
   32   33
   33   34
   35   36
   36   37
   37   38
   38   39
   39   40
   40   41
   41   42
   42   43
   43   44
   44   45
   45   46
   46   47
   47   48
   48   49
   49   50
   50   51
   52   53
   53   54
   54   55
   55   56
   56   57
   57   58
   58   59
   59   60
   60   61
   61   62
   62   63
   63   64
   64   65
   65   66
   66   67
   67   68
   69   70
   70   71
   71   72
   72   73
   73   74
   74   75
   75   76
   76   77
   77   78
   78   79
   79   80
   80   81
   81   82
   82   83
   83   84
   84   85
   85   86
   87   88
   88   89
   89   90
   90   91
   92   93
   93   94
   94   95
   95   96
   97   98
   98   99
   99  100
  100  101
  101  102
  102  103
  103  104
  104  105
  105  106
  106  107
  107  108
  108  109
  109  110
  110  111
  111  112
  112  113
  113  114
Zone T= "Slice_0002 None Relative Regular z = 0.36666667"
 Nodes =          114  Elements=          106  ZONETYPE=FELINESEG
 DATAPACKING=POINT
  7.301402E-01  7.034183E-02  3.666667E-01  7.450317E-01  6.189406E-02 -5.664469E-17  2.704250E-02 -4.583604E-03 -4.065282E-04 -4.676052E-01  0.000000E+00
  7.043967E-01  7.453849E-02  3.666667E-01  7.187624E-01  6.617641E-02 -1.132894E-16  2.865693E-02 -4.497576E-03 -4.592135E-04 -5.057349E-01  0.000000E+00
  6.775455E-01  7.857623E-02  3.666667E-01  6.913630E-01  7.029660E-02  3.058813E-14  3.011154E-02 -4.353393E-03 -5.066093E-04 -5.416495E-01  0.000000E+00
  6.496792E-01  8.242636E-02  3.666667E-01  6.629276E-01  7.422536E-02 -1.699341E-16  3.141800E-02 -4.176068E-03 -5.427109E-04 -5.776215E-01  0.000000E+00
  6.209097E-01  8.608092E-02  3.666667E-01  6.335707E-01  7.795454E-02  0.000000E+00  3.264586E-02 -3.974691E-03 -5.635857E-04 -6.149913E-01  0.000000E+00
  5.913667E-01  8.950529E-02  3.666667E-01  6.034244E-01  8.144883E-02  1.132894E-16  3.388649E-02 -3.743397E-03 -5.685610E-04 -6.537366E-01  0.000000E+00
  5.611982E-01  9.265979E-02  3.666667E-01  5.726399E-01  8.466775E-02  2.265788E-16  3.521191E-02 -3.480443E-03 -5.593090E-04 -6.945737E-01  0.000000E+00
  5.305654E-01  9.550121E-02  3.666667E-01  5.413815E-01  8.756719E-02  1.132894E-16  3.668249E-02 -3.183881E-03 -5.387890E-04 -7.392363E-01  0.000000E+00
  4.996398E-01  9.799255E-02  3.666667E-01  5.098244E-01  9.010941E-02 -1.699341E-16  3.836173E-02 -2.837037E-03 -5.105029E-04 -7.889979E-01  0.000000E+00
  4.685986E-01  1.000785E-01  3.666667E-01  4.781493E-01  9.223793E-02  1.132894E-16  4.030244E-02 -2.400726E-03 -4.780216E-04 -8.426061E-01  0.000000E+00
  4.376215E-01  1.016866E-01  3.666667E-01  4.465398E-01  9.387894E-02 -5.664469E-17  4.249401E-02 -1.834241E-03 -4.444617E-04 -8.968987E-01  0.000000E+00
  4.068895E-01  1.027469E-01  3.666667E-01  4.151802E-01  9.496086E-02 -5.664469E-17  4.484614E-02 -1.110589E-03 -4.122400E-04 -9.482661E-01  0.000000E+00
  3.765814E-01  1.032056E-01  3.666667E-01  3.842532E-01  9.542889E-02  5.664469E-17  4.720996E-02 -2.406846E-04 -3.826914E-04 -9.954256E-01  0.000000E+00
  3.468696E-01  1.030600E-01  3.666667E-01  3.539347E-01  9.528037E-02 -5.664469E-17  4.948140E-02  7.584176E-04 -3.562557E-04 -1.037985E+00  0.000000E+00
  3.179133E-01  1.023139E-01  3.666667E-01  3.243871E-01  9.451904E-02  0.000000E+00  5.164992E-02  1.891887E-03 -3.327487E-04 -1.075331E+00  0.000000E+00
  2.898519E-01  1.009787E-01  3.666667E-01  2.957527E-01  9.315651E-02  5.664469E-17  5.373356E-02  3.150671E-03 -3.111960E-04 -1.109926E+00  0.000000E+00
  2.628044E-01  9.908805E-02  3.666667E-01  2.681529E-01  9.122727E-02  5.664469E-17  5.577934E-02  4.528178E-03 -2.903451E-04 -1.145302E+00  0.000000E+00
  9.800000E-01  1.319061E-02  3.666667E-01  9.999936E-01  3.575810E-03  5.664469E-17  1.039584E-02 -1.312954E-02 -1.558006E-04 -5.804329E-02  0.000000E+00
  9.720124E-01  1.540749E-02  3.666667E-01  9.918429E-01  5.837963E-03  0.000000E+00  1.188708E-02 -3.366937E-03 -1.852129E-04  6.483890E-02  0.000000E+00
  9.632634E-01  1.784719E-02  3.666667E-01  9.829153E-01  8.327472E-03  1.132894E-16  8.873601E-03 -2.410093E-03 -1.548731E-04  1.687785E-02  0.000000E+00
  9.536907E-01  2.049786E-02  3.666667E-01  9.731471E-01  1.103228E-02 -5.664469E-17  7.036061E-03 -1.936968E-03 -1.323706E-04 -1.631201E-03  0.000000E+00
  9.432303E-01  2.334342E-02  3.666667E-01  9.624730E-01  1.393594E-02 -1.699341E-16  6.674170E-03 -1.798687E-03 -1.224577E-04 -2.257623E-02  0.000000E+00
  9.318220E-01  2.638695E-02  3.666667E-01  9.508318E-01  1.704162E-02 -5.664469E-17  7.459740E-03 -1.967253E-03 -1.216938E-04 -4.971393E-02  0.000000E+00
  9.194070E-01  2.963115E-02  3.666667E-01  9.381633E-01  2.035207E-02  0.000000E+00  8.898799E-03 -2.296895E-03 -1.264169E-04 -7.891534E-02  0.000000E+00
  9.059278E-01  3.307357E-02  3.666667E-01  9.244088E-01  2.386478E-02 -1.132894E-16  1.058141E-02 -2.666491E-03 -1.343856E-04 -1.100969E-01  0.000000E+00
  8.913299E-01  3.670757E-02  3.666667E-01  9.095128E-01  2.757299E-02  0.000000E+00  1.230861E-02 -3.021795E-03 -1.448720E-04 -1.437759E-01  0.000000E+00
  8.755643E-01  4.052691E-02  3.666667E-01  8.934254E-01  3.147031E-02 -1.132894E-16  1.405525E-02 -3.354692E-03 -1.583620E-04 -1.800439E-01  0.000000E+00
  8.585885E-01  4.451968E-02  3.666667E-01  8.761028E-01  3.554462E-02  3.098464E-14  1.586198E-02 -3.667851E-03 -1.759981E-04 -2.184663E-01  0.000000E+00
  8.403666E-01  4.866216E-02  3.666667E-01  8.575089E-01  3.977169E-02  3.098464E-14  1.773729E-02 -3.954435E-03 -1.988579E-04 -2.584327E-01  0.000000E+00
  8.208730E-01  5.292293E-02  3.666667E-01  8.376173E-01  4.411946E-02 -5.664469E-17  1.964805E-02 -4.201705E-03 -2.277345E-04 -2.996416E-01  0.000000E+00
  8.000947E-01  5.726706E-02  3.666667E-01  8.164147E-01  4.855230E-02 -5.664469E-17  2.156107E-02 -4.398109E-03 -2.632435E-04 -3.418586E-01  0.000000E+00
  7.780326E-01  6.165222E-02  3.666667E-01  7.939020E-01  5.302700E-02 -1.132894E-16  2.345222E-02 -4.533235E-03 -3.055761E-04 -3.846069E-01  0.000000E+00
  7.547032E-01  6.602913E-02  3.666667E-01  7.700963E-01  5.749329E-02  3.075807E-14  2.529303E-02 -4.596895E-03 -3.540344E-04 -4.269318E-01  0.000000E+00
  7.301402E-01  7.034183E-02  3.666667E-01  7.450317E-01  6.189406E-02 -5.664469E-17  2.704250E-02 -4.583604E-03 -4.065282E-04 -4.676052E-01  0.000000E+00
  2.444131E-01 -2.336186E-03  3.666667E-01  2.493860E-01 -1.226804E-02  3.092800E-14  2.763950E-02  1.340303E-03  2.154562E-04  1.367557E-01  0.000000E+00
  2.700250E-01 -1.091823E-03  3.666667E-01  2.755209E-01 -1.099827E-02  5.664469E-17  2.791560E-02  1.350330E-03  2.241221E-04  1.369852E-01  0.000000E+00
  2.967058E-01  1.869665E-04  3.666667E-01  3.027466E-01 -9.693369E-03 -5.664469E-17  2.828573E-02  1.409737E-03  2.337985E-04  1.311246E-01  0.000000E+00
  3.243554E-01  1.610739E-03  3.666667E-01  3.309607E-01 -8.240523E-03  3.070142E-14  2.837087E-02  1.592728E-03  2.442162E-04  1.206482E-01  0.000000E+00
  3.528511E-01  3.337863E-03  3.666667E-01  3.600384E-01 -6.478131E-03 -5.664469E-17  2.775665E-02  1.910572E-03  2.547742E-04  1.121636E-01  0.000000E+00
  3.820469E-01  5.591511E-03  3.666667E-01  3.898303E-01 -4.178463E-03 -1.132894E-16  2.618920E-02  2.298617E-03  2.645549E-04  1.137504E-01  0.000000E+00
  4.117740E-01  8.536973E-03  3.666667E-01  4.201644E-01 -1.172855E-03  1.132894E-16  2.377229E-02  2.626871E-03  2.727252E-04  1.324036E-01  0.000000E+00
  4.418498E-01  1.223799E-02  3.666667E-01  4.508544E-01  2.603733E-03 -1.699341E-16  2.098395E-02  2.763819E-03  2.791167E-04  1.678072E-01  0.000000E+00
  4.721105E-01  1.652573E-02  3.666667E-01  4.817330E-01  6.979033E-03 -1.132894E-16  1.861996E-02  2.547088E-03  2.858376E-04  2.245377E-01  0.000000E+00
  5.024968E-01  2.051640E-02  3.666667E-01  5.127398E-01  1.105120E-02  5.664469E-17  1.715701E-02  2.082892E-03  2.938302E-04  2.834043E-01  0.000000E+00
  5.328693E-01  2.386189E-02  3.666667E-01  5.437325E-01  1.446499E-02 -2.265788E-16  1.640945E-02  1.671272E-03  3.014807E-04  3.138767E-01  0.000000E+00
  5.630297E-01  2.666913E-02  3.666667E-01  5.745088E-01  1.732956E-02  1.132894E-16  1.602305E-02  1.387069E-03  3.075604E-04  3.243565E-01  0.000000E+00
  5.927917E-01  2.905377E-02  3.666667E-01  6.048785E-01  1.976289E-02  0.000000E+00  1.572603E-02  1.189145E-03  3.101257E-04  3.325110E-01  0.000000E+00
  6.219828E-01  3.113059E-02  3.666667E-01  6.346657E-01  2.188213E-02  5.664469E-17  1.537449E-02  1.031763E-03  3.069570E-04  3.433323E-01  0.000000E+00
  6.504533E-01  3.292752E-02  3.666667E-01  6.637175E-01  2.371575E-02 -1.132894E-16  1.496891E-02  8.637119E-04  2.974850E-04  3.572067E-01  0.000000E+00
  6.780742E-01  3.437242E-02  3.666667E-01  6.919025E-01  2.519015E-02  3.092800E-14  1.459258E-02  6.586327E-04  2.828595E-04  3.723638E-01  0.000000E+00
  7.047326E-01  3.538334E-02  3.666667E-01  7.191053E-01  2.622171E-02 -5.664469E-17  1.433654E-02  4.206120E-04  2.652282E-04  3.856826E-01  0.000000E+00
  1.215943E-04  9.348613E-03  3.666667E-01  1.060949E-04 -3.446416E-04 -2.265788E-16 -2.152827E-02  3.839867E-02  1.877776E-04  8.939377E-01  0.000000E+00
  4.902502E-03  3.681896E-03  3.666667E-01  4.984628E-03 -6.127073E-03  5.664469E-17  1.580679E-03  2.800716E-03  1.541509E-04  8.712905E-01  0.000000E+00
  1.254908E-02  4.353716E-05  3.666667E-01  1.278735E-02 -9.839727E-03  2.265788E-16  1.773956E-02 -6.185983E-03  1.281111E-04  4.205561E-01  0.000000E+00
  2.163699E-02 -2.341616E-03  3.666667E-01  2.206084E-02 -1.227358E-02  5.664469E-17  2.488101E-02 -5.235306E-03  1.227877E-04  2.399645E-01  0.000000E+00
  3.184423E-02 -4.014214E-03  3.666667E-01  3.247650E-02 -1.398034E-02  0.000000E+00  2.776039E-02 -3.652902E-03  1.300612E-04  2.244938E-01  0.000000E+00
  4.311596E-02 -5.184312E-03  3.666667E-01  4.397840E-02 -1.517433E-02 -1.132894E-16  2.906086E-02 -2.330538E-03  1.386646E-04  1.992640E-01  0.000000E+00
  5.546913E-02 -5.894922E-03  3.666667E-01  5.658383E-02 -1.589945E-02 -5.664469E-17  2.952641E-02 -1.361740E-03  1.466002E-04  1.732162E-01  0.000000E+00
  6.891473E-02 -6.359508E-03  3.666667E-01  7.030399E-02 -1.637352E-02  1.699341E-16  2.977248E-02 -8.400548E-04  1.543312E-04  1.675750E-01  0.000000E+00
  8.348882E-02 -6.684383E-03  3.666667E-01  8.517568E-02 -1.670503E-02  2.832234E-16  2.996949E-02 -4.976913E-04  1.614917E-04  1.611841E-01  0.000000E+00
  9.923792E-02 -6.863010E-03  3.666667E-01  1.012464E-01 -1.688731E-02 -1.132894E-16  3.002340E-02 -1.448684E-04  1.681605E-04  1.466574E-01  0.000000E+00
  1.162051E-01 -6.837046E-03  3.666667E-01  1.185600E-01 -1.686081E-02  5.664469E-17  2.987718E-02  2.196401E-04  1.747538E-04  1.333590E-01  0.000000E+00
  1.344203E-01 -6.598153E-03  3.666667E-01  1.371472E-01 -1.661704E-02  0.000000E+00  2.955047E-02  5.415214E-04  1.813925E-04  1.272895E-01  0.000000E+00
  1.539027E-01 -6.142388E-03  3.666667E-01  1.570274E-01 -1.615197E-02  3.064478E-14  2.906538E-02  8.212173E-04  1.878949E-04  1.252758E-01  0.000000E+00
  1.746592E-01 -5.457429E-03  3.666667E-01  1.782077E-01 -1.545302E-02  3.109793E-14  2.849997E-02  1.045772E-03  1.943249E-04  1.260876E-01  0.000000E+00
  1.966815E-01 -4.570101E-03  3.666667E-01  2.006797E-01 -1.454758E-02 -1.132894E-16  2.798897E-02  1.200073E-03  2.009049E-04  1.297491E-01  0.000000E+00
  2.199461E-01 -3.516172E-03  3.666667E-01  2.244194E-01 -1.347213E-02 -1.699341E-16  2.766617E-02  1.296365E-03  2.078343E-04  1.338751E-01  0.000000E+00
  2.444131E-01 -2.336186E-03  3.666667E-01  2.493860E-01 -1.226804E-02  3.092800E-14  2.763950E-02  1.340303E-03  2.154562E-04  1.367557E-01  0.000000E+00
  7.047326E-01  3.538334E-02  3.666667E-01  7.191053E-01  2.622171E-02 -5.664469E-17  1.433654E-02  4.206120E-04  2.652282E-04  3.856826E-01  0.000000E+00