 Title= "ADflow Lift Distribution Data"
Variables = "eta" "CoordinateX" "CoordinateY" "CoordinateZ" "Lift" "Drag" "Moment" "Normalized Lift" "Normalized Drag" "Normalized Moment" "CL" "CD" "CM" "CLp" "CDp" "CMp" "CLv" "CDv" "CMv" "Elliptical" "thickness" "twist" "chord" "fx" "fy" "fz" 
Zone T= "LiftDist_01 allWalls: : z normal"
 I=          150
 DATAPACKING=BLOCK
  0.000000E+00
  6.711405E-03
  1.342281E-02
  2.013422E-02
  2.684563E-02
  3.355704E-02
  4.026845E-02
  4.697986E-02
  5.369127E-02
  6.040268E-02
  6.711409E-02
  7.382550E-02
  8.053691E-02
  8.724832E-02
  9.395973E-02
  1.006711E-01
  1.073825E-01
  1.140940E-01
  1.208054E-01
  1.275168E-01
  1.342282E-01
  1.409396E-01
  1.476510E-01
  1.543624E-01
  1.610738E-01
  1.677852E-01
  1.744966E-01
  1.812081E-01
  1.879195E-01
  1.946309E-01
  2.013423E-01
  2.080537E-01
  2.147651E-01
  2.214765E-01
  2.281879E-01
  2.348993E-01
  2.416107E-01
  2.483221E-01
  2.550336E-01
  2.617450E-01
  2.684564E-01
  2.751678E-01
  2.818792E-01
  2.885906E-01
  2.953020E-01
  3.020134E-01
  3.087248E-01
  3.154362E-01
  3.221476E-01
  3.288591E-01
  3.355705E-01
  3.422819E-01
  3.489933E-01
  3.557047E-01
  3.624161E-01
  3.691275E-01
  3.758389E-01
  3.825503E-01
  3.892617E-01
  3.959732E-01
  4.026846E-01
  4.093960E-01
  4.161074E-01
  4.228188E-01
  4.295302E-01
  4.362416E-01
  4.429530E-01
  4.496644E-01
  4.563758E-01
  4.630872E-01
  4.697987E-01
  4.765101E-01
  4.832215E-01
  4.899329E-01
  4.966443E-01
  5.033557E-01
  5.100671E-01
  5.167785E-01
  5.234899E-01
  5.302013E-01
  5.369128E-01
  5.436242E-01
  5.503356E-01
  5.570470E-01
  5.637584E-01
  5.704698E-01
  5.771812E-01
  5.838926E-01
  5.906040E-01
  5.973154E-01
  6.040268E-01
  6.107383E-01
  6.174497E-01
  6.241611E-01
  6.308725E-01
  6.375839E-01
  6.442953E-01
  6.510067E-01
  6.577181E-01
  6.644295E-01
  6.711409E-01
  6.778524E-01
  6.845638E-01
  6.912752E-01
  6.979866E-01
  7.046980E-01
  7.114094E-01
  7.181208E-01
  7.248322E-01
  7.315436E-01
  7.382550E-01
  7.449664E-01
  7.516779E-01
  7.583893E-01
  7.651007E-01
  7.718121E-01
  7.785235E-01
  7.852349E-01
  7.919463E-01
  7.986577E-01
  8.053691E-01
  8.120805E-01
  8.187919E-01
  8.255034E-01
  8.322148E-01
  8.389262E-01
  8.456376E-01
  8.523490E-01
  8.590604E-01
  8.657718E-01
  8.724832E-01
  8.791946E-01
  8.859060E-01
  8.926175E-01
  8.993289E-01
  9.060403E-01
  9.127517E-01
  9.194631E-01
  9.261745E-01
  9.328859E-01
  9.395973E-01
  9.463087E-01
  9.530201E-01
  9.597315E-01
  9.664430E-01
  9.731544E-01
  9.798658E-01
  9.865772E-01
  9.932886E-01
  1.000000E+00
  0.000000E+00
  0.000000E+00
  0.000000E+00
  0.000000E+00
  0.000000E+00
  0.000000E+00
  0.000000E+00
  0.000000E+00
  0.000000E+00
  0.000000E+00
  0.000000E+00
  0.000000E+00
  0.000000E+00
  0.000000E+00
  0.000000E+00
  0.000000E+00
  0.000000E+00
  0.000000E+00
  0.000000E+00
  0.000000E+00
  0.000000E+00
  0.000000E+00
  0.000000E+00
  0.000000E+00
  0.000000E+00
  0.000000E+00
  0.000000E+00
  0.000000E+00
  0.000000E+00
  0.000000E+00
  0.000000E+00
  0.000000E+00
  0.000000E+00
  0.000000E+00
  0.000000E+00
  0.000000E+00
  0.000000E+00
  0.000000E+00
  0.000000E+00
  0.000000E+00
  0.000000E+00
  0.000000E+00
  0.000000E+00
  0.000000E+00
  0.000000E+00
  0.000000E+00
  0.000000E+00
  0.000000E+00
  0.000000E+00
  0.000000E+00
  0.000000E+00
  0.000000E+00
  0.000000E+00
  0.000000E+00
  0.000000E+00
  0.000000E+00
  0.000000E+00
  0.000000E+00
  0.000000E+00
  0.000000E+00
  0.000000E+00
  0.000000E+00
  0.000000E+00
  0.000000E+00
  0.000000E+00
  0.000000E+00
  0.000000E+00
  0.000000E+00
  0.000000E+00
  0.000000E+00
  0.000000E+00
  0.000000E+00
  0.000000E+00
  0.000000E+00
  0.000000E+00
  0.000000E+00
  0.000000E+00
  0.000000E+00
  0.000000E+00
  0.000000E+00
  0.000000E+00
  0.000000E+00
  0.000000E+00
  0.000000E+00
  0.000000E+00
  0.000000E+00
  0.000000E+00
  0.000000E+00
  0.000000E+00
  0.000000E+00
  0.000000E+00
  0.000000E+00
  0.000000E+00
  0.000000E+00
  0.000000E+00
  0.000000E+00
  0.000000E+00
  0.000000E+00
  0.000000E+00
  0.000000E+00
  0.000000E+00
  0.000000E+00
  0.000000E+00
  0.000000E+00
  0.000000E+00
  0.000000E+00
  0.000000E+00
  0.000000E+00
  0.000000E+00
  0.000000E+00
  0.000000E+00
  0.000000E+00
  0.000000E+00
  0.000000E+00
  0.000000E+00
  0.000000E+00
  0.000000E+00
  0.000000E+00
  0.000000E+00
  0.000000E+00
  0.000000E+00
  0.000000E+00
  0.000000E+00
  0.000000E+00
  0.000000E+00
  0.000000E+00
  0.000000E+00
  0.000000E+00
  0.000000E+00
  0.000000E+00
  0.000000E+00
  0.000000E+00
  0.000000E+00
  0.000000E+00
  0.000000E+00
  0.000000E+00
  0.000000E+00
  0.000000E+00
  0.000000E+00
  0.000000E+00
  0.000000E+00
  0.000000E+00
  0.000000E+00
  0.000000E+00
  0.000000E+00
  0.000000E+00
  0.000000E+00
  0.000000E+00
  0.000000E+00
  0.000000E+00
  0.000000E+00
  0.000000E+00
  0.000000E+00
  0.000000E+00
  0.000000E+00
  0.000000E+00
  0.000000E+00
  0.000000E+00
  0.000000E+00
  0.000000E+00
  0.000000E+00
  0.000000E+00
  0.000000E+00
  0.000000E+00
  0.000000E+00
  0.000000E+00
  0.000000E+00
  0.000000E+00
  0.000000E+00
  0.000000E+00
  0.000000E+00
  0.000000E+00
  0.000000E+00
  0.000000E+00
  0.000000E+00
  0.000000E+00
  0.000000E+00
  0.000000E+00
  0.000000E+00
  0.000000E+00
  0.000000E+00
  0.000000E+00
  0.000000E+00
  0.000000E+00
  0.000000E+00
  0.000000E+00
  0.000000E+00
  0.000000E+00
  0.000000E+00
  0.000000E+00
  0.000000E+00
  0.000000E+00
  0.000000E+00
  0.000000E+00
  0.000000E+00
  0.000000E+00
  0.000000E+00
  0.000000E+00
  0.000000E+00
  0.000000E+00
  0.000000E+00
  0.000000E+00
  0.000000E+00
  0.000000E+00
  0.000000E+00
  0.000000E+00
  0.000000E+00
  0.000000E+00
  0.000000E+00
  0.000000E+00
  0.000000E+00
  0.000000E+00
  0.000000E+00
  0.000000E+00
  0.000000E+00
  0.000000E+00
  0.000000E+00
  0.000000E+00
  0.000000E+00
  0.000000E+00
  0.000000E+00
  0.000000E+00
  0.000000E+00
  0.000000E+00
  0.000000E+00
  0.000000E+00
  0.000000E+00
  0.000000E+00
  0.000000E+00
  0.000000E+00
  0.000000E+00
  0.000000E+00
  0.000000E+00
  0.000000E+00
  0.000000E+00
  0.000000E+00
  0.000000E+00
  0.000000E+00
  0.000000E+00
  0.000000E+00
  0.000000E+00
  0.000000E+00
  0.000000E+00
  0.000000E+00
  0.000000E+00
  0.000000E+00
  0.000000E+00
  0.000000E+00
  0.000000E+00
  0.000000E+00
  0.000000E+00
  0.000000E+00
  0.000000E+00
  0.000000E+00
  0.000000E+00
  0.000000E+00
  0.000000E+00
  0.000000E+00
  0.000000E+00
  0.000000E+00
  0.000000E+00
  0.000000E+00
  0.000000E+00
  0.000000E+00
  0.000000E+00
  0.000000E+00
  0.000000E+00
  0.000000E+00
  0.000000E+00
  0.000000E+00
  0.000000E+00
  0.000000E+00
  0.000000E+00
  0.000000E+00
  0.000000E+00
  0.000000E+00
  0.000000E+00
  0.000000E+00
  0.000000E+00
  0.000000E+00
  0.000000E+00
  0.000000E+00
  0.000000E+00
  0.000000E+00
  0.000000E+00
  0.000000E+00
  0.000000E+00
  0.000000E+00
  0.000000E+00
  0.000000E+00
  0.000000E+00
  0.000000E+00
  0.000000E+00
  0.000000E+00
  0.000000E+00
  0.000000E+00
  0.000000E+00
  0.000000E+00
  0.000000E+00
  0.000000E+00
  1.000000E-08
  1.695085E-02
  3.390169E-02
  5.085254E-02
  6.780338E-02
  8.475423E-02
  1.017051E-01
  1.186559E-01
  1.356068E-01
  1.525576E-01
  1.695085E-01
  1.864593E-01
  2.034101E-01
  2.203610E-01
  2.373118E-01
  2.542627E-01
  2.712135E-01
  2.881644E-01
  3.051152E-01
  3.220661E-01
  3.390169E-01
  3.559678E-01
  3.729186E-01
  3.898694E-01
  4.068203E-01
  4.237711E-01
  4.407220E-01
  4.576728E-01
  4.746237E-01
  4.915745E-01
  5.085254E-01
  5.254762E-01
  5.424271E-01
  5.593779E-01
  5.763287E-01
  5.932796E-01
  6.102304E-01
  6.271813E-01
  6.441321E-01
  6.610830E-01
  6.780338E-01
  6.949847E-01
  7.119355E-01
  7.288864E-01
  7.458372E-01
  7.627880E-01
  7.797389E-01
  7.966897E-01
  8.136406E-01
  8.305914E-01
  8.475423E-01
  8.644931E-01
  8.814440E-01
  8.983948E-01
  9.153457E-01
  9.322965E-01
  9.492473E-01
  9.661982E-01
  9.831490E-01
  1.000100E+00
  1.017051E+00
  1.034002E+00
  1.050952E+00
  1.067903E+00
  1.084854E+00
  1.101805E+00
  1.118756E+00
  1.135707E+00
  1.152657E+00
  1.169608E+00
  1.186559E+00
  1.203510E+00
  1.220461E+00
  1.237412E+00
  1.254363E+00
  1.271313E+00
  1.288264E+00
  1.305215E+00
  1.322166E+00
  1.339117E+00
  1.356068E+00
  1.373018E+00
  1.389969E+00
  1.406920E+00
  1.423871E+00
  1.440822E+00
  1.457773E+00
  1.474724E+00
  1.491674E+00
  1.508625E+00
  1.525576E+00
  1.542527E+00
  1.559478E+00
  1.576429E+00
  1.593379E+00
  1.610330E+00
  1.627281E+00
  1.644232E+00
  1.661183E+00
  1.678134E+00
  1.695085E+00
  1.712035E+00
  1.728986E+00
  1.745937E+00
  1.762888E+00
  1.779839E+00
  1.796790E+00
  1.813740E+00
  1.830691E+00
  1.847642E+00
  1.864593E+00
  1.881544E+00
  1.898495E+00
  1.915446E+00
  1.932396E+00
  1.949347E+00
  1.966298E+00
  1.983249E+00
  2.000200E+00
  2.017151E+00
  2.034101E+00
  2.051052E+00
  2.068003E+00
  2.084954E+00
  2.101905E+00
  2.118856E+00
  2.135807E+00
  2.152757E+00
  2.169708E+00
  2.186659E+00
  2.203610E+00
  2.220561E+00
  2.237512E+00
  2.254462E+00
  2.271413E+00
  2.288364E+00
  2.305315E+00
  2.322266E+00
  2.339217E+00
  2.356168E+00
  2.373118E+00
  2.390069E+00
  2.407020E+00
  2.423971E+00
  2.440922E+00
  2.457873E+00
  2.474823E+00
  2.491774E+00
  2.508725E+00
  2.525676E+00
  1.106408E+04
  1.106212E+04
  1.106017E+04
  1.105822E+04
  1.105627E+04
  1.105432E+04
  1.105237E+04
  1.105042E+04
  1.104847E+04
  1.104275E+04
  1.103694E+04
  1.103113E+04
  1.102533E+04
  1.101952E+04
  1.101371E+04
  1.100790E+04
  1.100090E+04
  1.099170E+04
  1.098250E+04
  1.097331E+04
  1.096411E+04
  1.095491E+04
  1.094572E+04
  1.093619E+04
  1.092397E+04
  1.091175E+04
  1.089954E+04
  1.088732E+04
  1.087510E+04
  1.086289E+04
  1.084994E+04
  1.083456E+04
  1.081918E+04
  1.080380E+04
  1.078842E+04
  1.077304E+04
  1.075766E+04
  1.074000E+04
  1.072134E+04
  1.070268E+04
  1.068402E+04
  1.066536E+04
  1.064670E+04
  1.062644E+04
  1.060448E+04
  1.058253E+04
  1.056057E+04
  1.053862E+04
  1.051667E+04
  1.049275E+04
  1.046745E+04
  1.044216E+04
  1.041686E+04
  1.039157E+04
  1.036628E+04
  1.033762E+04
  1.030891E+04
  1.028020E+04
  1.025149E+04
  1.022278E+04
  1.019177E+04
  1.015958E+04
  1.012740E+04
  1.009522E+04
  1.006304E+04
  1.002872E+04
  9.992995E+03
  9.957276E+03
  9.921560E+03
  9.885847E+03
  9.847235E+03
  9.807898E+03
  9.768564E+03
  9.729233E+03
  9.689039E+03
  9.646037E+03
  9.603038E+03
  9.560042E+03
  9.517050E+03
  9.470771E+03
  9.424127E+03
  9.377487E+03
  9.330850E+03
  9.281429E+03
  9.231228E+03
  9.181031E+03
  9.130837E+03
  9.077770E+03
  9.024268E+03
  8.970770E+03
  8.916835E+03
  8.860394E+03
  8.803960E+03
  8.747534E+03
  8.689411E+03
  8.630248E+03
  8.571098E+03
  8.511241E+03
  8.449384E+03
  8.387552E+03
  8.325538E+03
  8.261051E+03
  8.196597E+03
  8.132035E+03
  8.064685E+03
  7.997373E+03
  7.929501E+03
  7.858770E+03
  7.788075E+03
  7.715702E+03
  7.641164E+03
  7.566658E+03
  7.488734E+03
  7.410189E+03
  7.330127E+03
  7.247528E+03
  7.164818E+03
  7.078244E+03
  6.991687E+03
  6.901997E+03
  6.811571E+03
  6.718490E+03
  6.624240E+03
  6.527328E+03
  6.429192E+03
  6.328059E+03
  6.226068E+03
  6.120556E+03
  6.014107E+03
  5.905107E+03
  5.794246E+03
  5.682022E+03
  5.567036E+03
  5.450396E+03
  5.332007E+03
  5.211104E+03
  5.087521E+03
  4.961625E+03
  4.833640E+03
  4.704918E+03
  4.579835E+03
  4.468758E+03
  4.389278E+03
  4.376486E+03
  4.467519E+03
  4.430581E+03
  3.990613E+03
  4.493058E+03
  1.329669E+03
 -1.361745E-04
  6.308628E+02
  6.307767E+02
  6.306905E+02
  6.306044E+02
  6.305183E+02
  6.304323E+02
  6.303463E+02
  6.302603E+02
  6.301744E+02
  6.300009E+02
  6.298253E+02
  6.296497E+02
  6.294742E+02
  6.292987E+02
  6.291233E+02
  6.289479E+02
  6.287751E+02
  6.286068E+02
  6.284386E+02
  6.282703E+02
  6.281022E+02
  6.279340E+02
  6.277659E+02
  6.275933E+02
  6.273845E+02
  6.271757E+02
  6.269670E+02
  6.267582E+02
  6.265495E+02
  6.263409E+02
  6.261082E+02
  6.257960E+02
  6.254838E+02
  6.251716E+02
  6.248594E+02
  6.245472E+02
  6.242350E+02
  6.238504E+02
  6.234340E+02
  6.230176E+02
  6.226011E+02
  6.221847E+02
  6.217682E+02
  6.213016E+02
  6.207821E+02
  6.202624E+02
  6.197428E+02
  6.192230E+02
  6.187032E+02
  6.181044E+02
  6.174501E+02
  6.167958E+02
  6.161413E+02
  6.154867E+02
  6.148321E+02
  6.139958E+02
  6.131565E+02
  6.123170E+02
  6.114774E+02
  6.106377E+02
  6.096454E+02
  6.085747E+02
  6.075038E+02
  6.064328E+02
  6.053615E+02
  6.041192E+02
  6.027645E+02
  6.014097E+02
  6.000545E+02
  5.986991E+02
  5.970824E+02
  5.954000E+02
  5.937173E+02
  5.920343E+02
  5.902753E+02
  5.882704E+02
  5.862651E+02
  5.842596E+02
  5.822539E+02
  5.799622E+02
  5.776385E+02
  5.753146E+02
  5.729907E+02
  5.704003E+02
  5.677349E+02
  5.650698E+02
  5.624048E+02
  5.594577E+02
  5.564679E+02
  5.534788E+02
  5.504462E+02
  5.471639E+02
  5.438831E+02
  5.406039E+02
  5.371058E+02
  5.334741E+02
  5.298455E+02
  5.261114E+02
  5.220773E+02
  5.180483E+02
  5.140023E+02
  5.096917E+02
  5.053878E+02
  5.010846E+02
  4.966735E+02
  4.922691E+02
  4.878699E+02
  4.834712E+02
  4.790780E+02
  4.747387E+02
  4.704660E+02
  4.661968E+02
  4.621254E+02
  4.580921E+02
  4.541801E+02
  4.504671E+02
  4.467663E+02
  4.434299E+02
  4.400917E+02
  4.371177E+02
  4.342280E+02
  4.316792E+02
  4.292789E+02
  4.272070E+02
  4.252848E+02
  4.237377E+02
  4.222976E+02
  4.213597E+02
  4.205822E+02
  4.202522E+02
  4.203329E+02
  4.207275E+02
  4.218788E+02
  4.235726E+02
  4.258635E+02
  4.290756E+02
  4.333984E+02
  4.388965E+02
  4.459713E+02
  4.553584E+02
  4.685286E+02
  4.883062E+02
  5.192976E+02
  5.695914E+02
  6.470302E+02
  7.148843E+02
  7.274712E+02
  8.782285E+02
  2.076168E+02
  3.874344E-04
  1.802522E+03
  1.801719E+03
  1.800916E+03
  1.800113E+03
  1.799311E+03
  1.798508E+03
  1.797705E+03
  1.796903E+03
  1.796100E+03
  1.794311E+03
  1.792497E+03
  1.790684E+03
  1.788871E+03
  1.787057E+03
  1.785244E+03
  1.783431E+03
  1.781504E+03
  1.779369E+03
  1.777234E+03
  1.775099E+03
  1.772965E+03
  1.770830E+03
  1.768695E+03
  1.766508E+03
  1.763905E+03
  1.761301E+03
  1.758697E+03
  1.756094E+03
  1.753490E+03
  1.750887E+03
  1.748150E+03
  1.744968E+03
  1.741786E+03
  1.738604E+03
  1.735422E+03
  1.732241E+03
  1.729059E+03
  1.725479E+03
  1.721726E+03
  1.717972E+03
  1.714218E+03
  1.710465E+03
  1.706712E+03
  1.702684E+03
  1.698366E+03
  1.694049E+03
  1.689731E+03
  1.685414E+03
  1.681098E+03
  1.676448E+03
  1.671566E+03
  1.666684E+03
  1.661802E+03
  1.656921E+03
  1.652039E+03
  1.646639E+03
  1.641231E+03
  1.635824E+03
  1.630417E+03
  1.625010E+03
  1.619292E+03
  1.613415E+03
  1.607538E+03
  1.601661E+03
  1.595785E+03
  1.589634E+03
  1.583302E+03
  1.576970E+03
  1.570639E+03
  1.564309E+03
  1.557644E+03
  1.550895E+03
  1.544146E+03
  1.537399E+03
  1.530591E+03
  1.523584E+03
  1.516578E+03
  1.509573E+03
  1.502569E+03
  1.495427E+03
  1.488271E+03
  1.481115E+03
  1.473961E+03
  1.466635E+03
  1.459262E+03
  1.451891E+03
  1.444520E+03
  1.436988E+03
  1.429433E+03
  1.421879E+03
  1.414324E+03
  1.406748E+03
  1.399175E+03
  1.391605E+03
  1.383967E+03
  1.376288E+03
  1.368615E+03
  1.360834E+03
  1.352745E+03
  1.344664E+03
  1.336553E+03
  1.327955E+03
  1.319371E+03
  1.310770E+03
  1.301580E+03
  1.292406E+03
  1.283077E+03
  1.272941E+03
  1.262821E+03
  1.252134E+03
  1.240715E+03
  1.229309E+03
  1.216681E+03
  1.203833E+03
  1.190431E+03
  1.176104E+03
  1.161735E+03
  1.145932E+03
  1.130133E+03
  1.113240E+03
  1.096088E+03
  1.078199E+03
  1.059986E+03
  1.041264E+03
  1.022309E+03
  1.003022E+03
  9.836408E+02
  9.641926E+02
  9.448237E+02
  9.257065E+02
  9.070310E+02
  8.887016E+02
  8.714001E+02
  8.548810E+02
  8.392153E+02
  8.248606E+02
  8.120274E+02
  8.007985E+02
  7.918471E+02
  7.866339E+02
  7.884988E+02
  8.045748E+02
  8.467614E+02
  9.335043E+02
  1.079224E+03
  1.191429E+03
  1.126917E+03
  1.281481E+03
  2.029459E+02
 -1.032516E-10
  1.246011E+00
  1.245791E+00
  1.245571E+00
  1.245352E+00
  1.245132E+00
  1.244912E+00
  1.244693E+00
  1.244473E+00
  1.244253E+00
  1.243610E+00
  1.242955E+00
  1.242301E+00
  1.241647E+00
  1.240993E+00
  1.240339E+00
  1.239684E+00
  1.238896E+00
  1.237860E+00
  1.236824E+00
  1.235789E+00
  1.234753E+00
  1.233717E+00
  1.232682E+00
  1.231608E+00
  1.230232E+00
  1.228857E+00
  1.227481E+00
  1.226105E+00
  1.224729E+00
  1.223354E+00
  1.221895E+00
  1.220163E+00
  1.218431E+00
  1.216699E+00
  1.214967E+00
  1.213235E+00
  1.211503E+00
  1.209514E+00
  1.207412E+00
  1.205311E+00
  1.203209E+00
  1.201108E+00
  1.199007E+00
  1.196725E+00
  1.194252E+00
  1.191780E+00
  1.189308E+00
  1.186835E+00
  1.184363E+00
  1.181670E+00
  1.178821E+00
  1.175972E+00
  1.173123E+00
  1.170275E+00
  1.167427E+00
  1.164199E+00
  1.160965E+00
  1.157732E+00
  1.154499E+00
  1.151266E+00
  1.147774E+00
  1.144149E+00
  1.140524E+00
  1.136900E+00
  1.133276E+00
  1.129411E+00
  1.125388E+00
  1.121366E+00
  1.117343E+00
  1.113321E+00
  1.108973E+00
  1.104543E+00
  1.100113E+00
  1.095684E+00
  1.091157E+00
  1.086315E+00
  1.081472E+00
  1.076630E+00
  1.071788E+00
  1.066576E+00
  1.061324E+00
  1.056071E+00
  1.050819E+00
  1.045253E+00
  1.039600E+00
  1.033947E+00
  1.028294E+00
  1.022318E+00
  1.016292E+00
  1.010268E+00
  1.004194E+00
  9.978372E-01
  9.914818E-01
  9.851272E-01
  9.785816E-01
  9.719187E-01
  9.652574E-01
  9.585164E-01
  9.515503E-01
  9.445869E-01
  9.376030E-01
  9.303406E-01
  9.230820E-01
  9.158112E-01
  9.082264E-01
  9.006458E-01
  8.930022E-01
  8.850366E-01
  8.770751E-01
  8.689246E-01
  8.605304E-01
  8.521397E-01
  8.433640E-01
  8.345185E-01
  8.255021E-01
  8.162000E-01
  8.068853E-01
  7.971356E-01
  7.873877E-01
  7.772871E-01
  7.671035E-01
  7.566210E-01
  7.460067E-01
  7.350927E-01
  7.240408E-01
  7.126515E-01
  7.011655E-01
  6.892829E-01
  6.772950E-01
  6.650196E-01
  6.525347E-01
  6.398963E-01
  6.269468E-01
  6.138111E-01
  6.004784E-01
  5.868626E-01
  5.729449E-01
  5.587668E-01
  5.443535E-01
  5.298571E-01
  5.157705E-01
  5.032612E-01
  4.943104E-01
  4.928698E-01
  5.031217E-01
  4.989618E-01
  4.494137E-01
  5.059978E-01
  1.497442E-01
 -1.533566E-08
  1.127695E+00
  1.127541E+00
  1.127387E+00
  1.127233E+00
  1.127079E+00
  1.126926E+00
  1.126772E+00
  1.126618E+00
  1.126465E+00
  1.126155E+00
  1.125841E+00
  1.125527E+00
  1.125213E+00
  1.124899E+00
  1.124586E+00
  1.124272E+00
  1.123963E+00
  1.123663E+00
  1.123362E+00
  1.123061E+00
  1.122760E+00
  1.122460E+00
  1.122159E+00
  1.121851E+00
  1.121478E+00
  1.121104E+00
  1.120731E+00
  1.120358E+00
  1.119985E+00
  1.119612E+00
  1.119196E+00
  1.118638E+00
  1.118080E+00
  1.117522E+00
  1.116964E+00
  1.116406E+00
  1.115848E+00
  1.115160E+00
  1.114416E+00
  1.113672E+00
  1.112927E+00
  1.112183E+00
  1.111438E+00
  1.110604E+00
  1.109675E+00
  1.108747E+00
  1.107818E+00
  1.106889E+00
  1.105959E+00
  1.104889E+00
  1.103720E+00
  1.102550E+00
  1.101380E+00
  1.100210E+00
  1.099040E+00
  1.097545E+00
  1.096044E+00
  1.094544E+00
  1.093043E+00
  1.091542E+00
  1.089768E+00
  1.087854E+00
  1.085940E+00
  1.084025E+00
  1.082110E+00
  1.079890E+00
  1.077468E+00
  1.075046E+00
  1.072624E+00
  1.070201E+00
  1.067311E+00
  1.064304E+00
  1.061296E+00
  1.058288E+00
  1.055143E+00
  1.051559E+00
  1.047975E+00
  1.044390E+00
  1.040805E+00
  1.036708E+00
  1.032554E+00
  1.028400E+00
  1.024246E+00
  1.019616E+00
  1.014851E+00
  1.010087E+00
  1.005324E+00
  1.000055E+00
  9.947110E-01
  9.893679E-01
  9.839470E-01
  9.780797E-01
  9.722152E-01
  9.663534E-01
  9.601004E-01
  9.536086E-01
  9.471223E-01
  9.404474E-01
  9.332362E-01
  9.260343E-01
  9.188020E-01
  9.110965E-01
  9.034030E-01
  8.957109E-01
  8.878259E-01
  8.799528E-01
  8.720891E-01
  8.642263E-01
  8.563731E-01
  8.486164E-01
  8.409788E-01
  8.333475E-01
  8.260696E-01
  8.188600E-01
  8.118670E-01
  8.052299E-01
  7.986145E-01
  7.926506E-01
  7.866834E-01
  7.813673E-01
  7.762018E-01
  7.716457E-01
  7.673551E-01
  7.636515E-01
  7.602154E-01
  7.574499E-01
  7.548756E-01
  7.531991E-01
  7.518093E-01
  7.512194E-01
  7.513637E-01
  7.520690E-01
  7.541271E-01
  7.571549E-01
  7.612499E-01
  7.669916E-01
  7.747189E-01
  7.845469E-01
  7.971936E-01
  8.139733E-01
  8.375156E-01
  8.728690E-01
  9.282676E-01
  1.018170E+00
  1.156595E+00
  1.277887E+00
  1.300387E+00
  1.569872E+00
  3.711242E-01
  6.925562E-07
  1.252701E+00
  1.252143E+00
  1.251585E+00
  1.251027E+00
  1.250469E+00
  1.249911E+00
  1.249353E+00
  1.248796E+00
  1.248238E+00
  1.246994E+00
  1.245734E+00
  1.244474E+00
  1.243214E+00
  1.241953E+00
  1.240693E+00
  1.239433E+00
  1.238094E+00
  1.236610E+00
  1.235127E+00
  1.233643E+00
  1.232159E+00
  1.230676E+00
  1.229192E+00
  1.227672E+00
  1.225863E+00
  1.224053E+00
  1.222244E+00
  1.220435E+00
  1.218625E+00
  1.216816E+00
  1.214914E+00
  1.212702E+00
  1.210491E+00
  1.208280E+00
  1.206069E+00
  1.203857E+00
  1.201646E+00
  1.199159E+00
  1.196550E+00
  1.193941E+00
  1.191332E+00
  1.188724E+00
  1.186116E+00
  1.183316E+00
  1.180316E+00
  1.177315E+00
  1.174315E+00
  1.171314E+00
  1.168314E+00
  1.165083E+00
  1.161690E+00
  1.158297E+00
  1.154905E+00
  1.151512E+00
  1.148120E+00
  1.144367E+00
  1.140609E+00
  1.136851E+00
  1.133093E+00
  1.129335E+00
  1.125362E+00
  1.121277E+00
  1.117193E+00
  1.113109E+00
  1.109025E+00
  1.104750E+00
  1.100349E+00
  1.095949E+00
  1.091549E+00
  1.087150E+00
  1.082517E+00
  1.077827E+00
  1.073137E+00
  1.068448E+00
  1.063717E+00
  1.058847E+00
  1.053978E+00
  1.049110E+00
  1.044242E+00
  1.039279E+00
  1.034305E+00
  1.029333E+00
  1.024360E+00
  1.019269E+00
  1.014145E+00
  1.009022E+00
  1.003900E+00
  9.986654E-01
  9.934147E-01
  9.881653E-01
  9.829144E-01
  9.776494E-01
  9.723864E-01
  9.671257E-01
  9.618169E-01
  9.564806E-01
  9.511481E-01
  9.457407E-01
  9.401186E-01
  9.345031E-01
  9.288659E-01
  9.228906E-01
  9.169249E-01
  9.109475E-01
  9.045607E-01
  8.981847E-01
  8.917016E-01
  8.846576E-01
  8.776242E-01
  8.701970E-01
  8.622612E-01
  8.543344E-01
  8.455586E-01
  8.366290E-01
  8.273155E-01
  8.173585E-01
  8.073723E-01
  7.963894E-01
  7.854098E-01
  7.736697E-01
  7.617494E-01
  7.493176E-01
  7.366595E-01
  7.236486E-01
  7.104755E-01
  6.970714E-01
  6.836021E-01
  6.700861E-01
  6.566253E-01
  6.433393E-01
  6.303604E-01
  6.176220E-01
  6.055980E-01
  5.941177E-01
  5.832305E-01
  5.732544E-01
  5.643357E-01
  5.565319E-01
  5.503109E-01
  5.466879E-01
  5.479840E-01
  5.591563E-01
  5.884748E-01
  6.487586E-01
  7.500293E-01
  8.280089E-01
  7.831750E-01
  8.905921E-01
  1.410416E-01
 -7.175690E-14
  9.892992E-01
  9.891247E-01
  9.889503E-01
  9.887759E-01
  9.886014E-01
  9.884271E-01
  9.882527E-01
  9.880784E-01
  9.879040E-01
  9.873929E-01
  9.868734E-01
  9.863540E-01
  9.858346E-01
  9.853152E-01
  9.847958E-01
  9.842765E-01
  9.836502E-01
  9.828279E-01
  9.820056E-01
  9.811833E-01
  9.803611E-01
  9.795388E-01
  9.787166E-01
  9.778645E-01
  9.767721E-01
  9.756797E-01
  9.745873E-01
  9.734950E-01
  9.724028E-01
  9.713106E-01
  9.701529E-01
  9.687775E-01
  9.674023E-01
  9.660270E-01
  9.646519E-01
  9.632767E-01
  9.619017E-01
  9.603224E-01
  9.586539E-01
  9.569854E-01
  9.553170E-01
  9.536486E-01
  9.519803E-01
  9.501686E-01
  9.482054E-01
  9.462424E-01
  9.442794E-01
  9.423166E-01
  9.403538E-01
  9.382151E-01
  9.359532E-01
  9.336914E-01
  9.314298E-01
  9.291683E-01
  9.269070E-01
  9.243442E-01
  9.217768E-01
  9.192096E-01
  9.166426E-01
  9.140757E-01
  9.113031E-01
  9.084250E-01
  9.055472E-01
  9.026695E-01
  8.997922E-01
  8.967235E-01
  8.935294E-01
  8.903356E-01
  8.871420E-01
  8.839487E-01
  8.804961E-01
  8.769787E-01
  8.734616E-01
  8.699448E-01
  8.663509E-01
  8.625058E-01
  8.586610E-01
  8.548165E-01
  8.509722E-01
  8.468341E-01
  8.426634E-01
  8.384930E-01
  8.343228E-01
  8.299038E-01
  8.254149E-01
  8.209264E-01
  8.164381E-01
  8.116930E-01
  8.069088E-01
  8.021250E-01
  7.973022E-01
  7.922550E-01
  7.872085E-01
  7.821626E-01
  7.769650E-01
  7.716740E-01
  7.663842E-01
  7.610311E-01
  7.554989E-01
  7.499687E-01
  7.444222E-01
  7.386541E-01
  7.328888E-01
  7.271138E-01
  7.210893E-01
  7.150681E-01
  7.089967E-01
  7.026697E-01
  6.963458E-01
  6.898720E-01
  6.832049E-01
  6.765405E-01
  6.695710E-01
  6.625461E-01
  6.553858E-01
  6.479992E-01
  6.406026E-01
  6.328613E-01
  6.251216E-01
  6.171024E-01
  6.090175E-01
  6.006960E-01
  5.922700E-01
  5.836066E-01
  5.748339E-01
  5.657937E-01
  5.566769E-01
  5.472456E-01
  5.377306E-01
  5.279875E-01
  5.180780E-01
  5.080466E-01
  4.977680E-01
  4.873413E-01
  4.767579E-01
  4.659495E-01
  4.549011E-01
  4.436454E-01
  4.322026E-01
  4.206933E-01
  4.095086E-01
  3.995757E-01
  3.924677E-01
  3.913220E-01
  3.994591E-01
  3.961532E-01
  3.568108E-01
  4.017309E-01
  1.633022E-01
 -2.961885E-03
  5.640888E-02
  5.640117E-02
  5.639347E-02
  5.638577E-02
  5.637808E-02
  5.637038E-02
  5.636269E-02
  5.635501E-02
  5.634733E-02
  5.633182E-02
  5.631612E-02
  5.630042E-02
  5.628473E-02
  5.626904E-02
  5.625335E-02
  5.623767E-02
  5.622222E-02
  5.620717E-02
  5.619213E-02
  5.617709E-02
  5.616205E-02
  5.614702E-02
  5.613199E-02
  5.611655E-02
  5.609789E-02
  5.607922E-02
  5.606056E-02
  5.604190E-02
  5.602324E-02
  5.600458E-02
  5.598378E-02
  5.595586E-02
  5.592795E-02
  5.590003E-02
  5.587212E-02
  5.584421E-02
  5.581629E-02
  5.578190E-02
  5.574467E-02
  5.570744E-02
  5.567021E-02
  5.563297E-02
  5.559574E-02
  5.555402E-02
  5.550756E-02
  5.546110E-02
  5.541464E-02
  5.536817E-02
  5.532169E-02
  5.526815E-02
  5.520965E-02
  5.515114E-02
  5.509262E-02
  5.503409E-02
  5.497556E-02
  5.490078E-02
  5.482574E-02
  5.475068E-02
  5.467561E-02
  5.460052E-02
  5.451179E-02
  5.441606E-02
  5.432031E-02
  5.422454E-02
  5.412875E-02
  5.401766E-02
  5.389654E-02
  5.377539E-02
  5.365422E-02
  5.353302E-02
  5.338846E-02
  5.323803E-02
  5.308757E-02
  5.293708E-02
  5.277980E-02
  5.260052E-02
  5.242122E-02
  5.224190E-02
  5.206255E-02
  5.185763E-02
  5.164985E-02
  5.144206E-02
  5.123426E-02
  5.100263E-02
  5.076430E-02
  5.052599E-02
  5.028770E-02
  5.002416E-02
  4.975682E-02
  4.948953E-02
  4.921835E-02
  4.892484E-02
  4.863146E-02
  4.833822E-02
  4.802539E-02
  4.770061E-02
  4.737611E-02
  4.704216E-02
  4.668136E-02
  4.632103E-02
  4.595916E-02
  4.557360E-02
  4.518864E-02
  4.480373E-02
  4.440917E-02
  4.401519E-02
  4.362168E-02
  4.322821E-02
  4.283523E-02
  4.244707E-02
  4.206488E-02
  4.168301E-02
  4.131883E-02
  4.095808E-02
  4.060819E-02
  4.027611E-02
  3.994513E-02
  3.964679E-02
  3.934827E-02
  3.908237E-02
  3.882401E-02
  3.859616E-02
  3.838161E-02
  3.819646E-02
  3.802470E-02
  3.788652E-02
  3.775791E-02
  3.767423E-02
  3.760490E-02
  3.757559E-02
  3.758302E-02
  3.761850E-02
  3.772165E-02
  3.787329E-02
  3.807831E-02
  3.836568E-02
  3.875235E-02
  3.924408E-02
  3.987677E-02
  4.071617E-02
  4.189376E-02
  4.366210E-02
  4.643305E-02
  5.092982E-02
  5.785361E-02
  6.392022E-02
  6.504503E-02
  7.852371E-02
  2.549829E-02
  8.426952E-03
  1.611733E-01
  1.611015E-01
  1.610297E-01
  1.609579E-01
  1.608862E-01
  1.608144E-01
  1.607426E-01
  1.606709E-01
  1.605991E-01
  1.604391E-01
  1.602770E-01
  1.601148E-01
  1.599527E-01
  1.597906E-01
  1.596284E-01
  1.594663E-01
  1.592940E-01
  1.591031E-01
  1.589122E-01
  1.587214E-01
  1.585305E-01
  1.583396E-01
  1.581487E-01
  1.579532E-01
  1.577204E-01
  1.574876E-01
  1.572548E-01
  1.570220E-01
  1.567892E-01
  1.565564E-01
  1.563117E-01
  1.560272E-01
  1.557427E-01
  1.554582E-01
  1.551737E-01
  1.548892E-01
  1.546047E-01
  1.542846E-01
  1.539490E-01
  1.536134E-01
  1.532777E-01
  1.529421E-01
  1.526065E-01
  1.522464E-01
  1.518603E-01
  1.514743E-01
  1.510883E-01
  1.507023E-01
  1.503163E-01
  1.499005E-01
  1.494640E-01
  1.490275E-01
  1.485910E-01
  1.481545E-01
  1.477180E-01
  1.472352E-01
  1.467516E-01
  1.462681E-01
  1.457847E-01
  1.453012E-01
  1.447900E-01
  1.442644E-01
  1.437389E-01
  1.432135E-01
  1.426881E-01
  1.421380E-01
  1.415718E-01
  1.410057E-01
  1.404396E-01
  1.398736E-01
  1.392776E-01
  1.386741E-01
  1.380707E-01
  1.374674E-01
  1.368586E-01
  1.362321E-01
  1.356057E-01
  1.349793E-01
  1.343530E-01
  1.337144E-01
  1.330745E-01
  1.324347E-01
  1.317950E-01
  1.311400E-01
  1.304807E-01
  1.298215E-01
  1.291625E-01
  1.284890E-01
  1.278134E-01
  1.271379E-01
  1.264623E-01
  1.257848E-01
  1.251076E-01
  1.244307E-01
  1.237476E-01
  1.230609E-01
  1.223746E-01
  1.216788E-01
  1.209552E-01
  1.202325E-01
  1.195070E-01
  1.187379E-01
  1.179700E-01
  1.172006E-01
  1.163784E-01
  1.155577E-01
  1.147232E-01
  1.138165E-01
  1.129111E-01
  1.119551E-01
  1.109337E-01
  1.099134E-01
  1.087840E-01
  1.076349E-01
  1.064363E-01
  1.051551E-01
  1.038701E-01
  1.024570E-01
  1.010443E-01
  9.953396E-02
  9.800040E-02
  9.640113E-02
  9.477279E-02
  9.309914E-02
  9.140464E-02
  8.968051E-02
  8.794798E-02
  8.620952E-02
  8.447814E-02
  8.276928E-02
  8.109991E-02
  7.946146E-02
  7.791490E-02
  7.643827E-02
  7.503790E-02
  7.375470E-02
  7.260750E-02
  7.160368E-02
  7.080344E-02
  7.033739E-02
  7.050409E-02
  7.194138E-02
  7.571325E-02
  8.346897E-02
  9.649779E-02
  1.065297E-01
  1.007605E-01
  1.145791E-01
  2.492465E-02
 -2.245790E-09
  9.894321E-01
  9.892577E-01
  9.890833E-01
  9.889090E-01
  9.887347E-01
  9.885604E-01
  9.883861E-01
  9.882119E-01
  9.880376E-01
  9.875267E-01
  9.870075E-01
  9.864883E-01
  9.859691E-01
  9.854500E-01
  9.849308E-01
  9.844117E-01
  9.837858E-01
  9.829637E-01
  9.821417E-01
  9.813198E-01
  9.804979E-01
  9.796760E-01
  9.788541E-01
  9.780022E-01
  9.769102E-01