 Title= "ADflow Lift Distribution Data"
Variables = "eta" "CoordinateX" "CoordinateY" "CoordinateZ" "Lift" "Drag" "Moment" "Normalized Lift" "Normalized Drag" "Normalized Moment" "CL" "CD" "CM" "CLp" "CDp" "CMp" "CLv" "CDv" "CMv" "Elliptical" "thickness" "twist" "chord" "fx" "fy" "fz" 
Zone T= "LiftDist_01 allWalls: : z normal"
 I=          150
 DATAPACKING=BLOCK
  0.000000E+00
  6.711405E-03
  1.342281E-02
  2.013422E-02
  2.684563E-02
  3.355704E-02
  4.026845E-02
  4.697986E-02
  5.369127E-02
  6.040268E-02
  6.711409E-02
  7.382550E-02
  8.053691E-02
  8.724832E-02
  9.395973E-02
  1.006711E-01
  1.073825E-01
  1.140940E-01
  1.208054E-01
  1.275168E-01
  1.342282E-01
  1.409396E-01
  1.476510E-01
  1.543624E-01
  1.610738E-01
  1.677852E-01
  1.744966E-01
  1.812081E-01
  1.879195E-01
  1.946309E-01
  2.013423E-01
  2.080537E-01
  2.147651E-01
  2.214765E-01
  2.281879E-01
  2.348993E-01
  2.416107E-01
  2.483221E-01
  2.550336E-01
  2.617450E-01
  2.684564E-01
  2.751678E-01
  2.818792E-01
  2.885906E-01
  2.953020E-01
  3.020134E-01
  3.087248E-01
  3.154362E-01
  3.221476E-01
  3.288591E-01
  3.355705E-01
  3.422819E-01
  3.489933E-01
  3.557047E-01
  3.624161E-01
  3.691275E-01
  3.758389E-01
  3.825503E-01
  3.892617E-01
  3.959732E-01
  4.026846E-01
  4.093960E-01
  4.161074E-01
  4.228188E-01
  4.295302E-01
  4.362416E-01
  4.429530E-01
  4.496644E-01
  4.563758E-01
  4.630872E-01
  4.697987E-01
  4.765101E-01
  4.832215E-01
  4.899329E-01
  4.966443E-01
  5.033557E-01
  5.100671E-01
  5.167785E-01
  5.234899E-01
  5.302013E-01
  5.369128E-01
  5.436242E-01
  5.503356E-01
  5.570470E-01
  5.637584E-01
  5.704698E-01
  5.771812E-01
  5.838926E-01
  5.906040E-01
  5.973154E-01
  6.040268E-01
  6.107383E-01
  6.174497E-01
  6.241611E-01
  6.308725E-01
  6.375839E-01
  6.442953E-01
  6.510067E-01
  6.577181E-01
  6.644295E-01
  6.711409E-01
  6.778524E-01
  6.845638E-01
  6.912752E-01
  6.979866E-01
  7.046980E-01
  7.114094E-01
  7.181208E-01
  7.248322E-01
  7.315436E-01
  7.382550E-01
  7.449664E-01
  7.516779E-01
  7.583893E-01
  7.651007E-01
  7.718121E-01
  7.785235E-01
  7.852349E-01
  7.919463E-01
  7.986577E-01
  8.053691E-01
  8.120805E-01
  8.187919E-01
  8.255034E-01
  8.322148E-01
  8.389262E-01
  8.456376E-01
  8.523490E-01
  8.590604E-01
  8.657718E-01
  8.724832E-01
  8.791946E-01
  8.859060E-01
  8.926175E-01
  8.993289E-01
  9.060403E-01
  9.127517E-01
  9.194631E-01
  9.261745E-01
  9.328859E-01
  9.395973E-01
  9.463087E-01
  9.530201E-01
  9.597315E-01
  9.664430E-01
  9.731544E-01
  9.798658E-01
  9.865772E-01
  9.932886E-01
  1.000000E+00
  0.000000E+00
  0.000000E+00
  0.000000E+00
  0.000000E+00
  0.000000E+00
  0.000000E+00
  0.000000E+00
  0.000000E+00
  0.000000E+00
  0.000000E+00
  0.000000E+00
  0.000000E+00
  0.000000E+00
  0.000000E+00
  0.000000E+00
  0.000000E+00
  0.000000E+00
  0.000000E+00
  0.000000E+00
  0.000000E+00
  0.000000E+00
  0.000000E+00
  0.000000E+00
  0.000000E+00
  0.000000E+00
  0.000000E+00
  0.000000E+00
  0.000000E+00
  0.000000E+00
  0.000000E+00
  0.000000E+00
  0.000000E+00
  0.000000E+00
  0.000000E+00
  0.000000E+00
  0.000000E+00
  0.000000E+00
  0.000000E+00
  0.000000E+00
  0.000000E+00
  0.000000E+00
  0.000000E+00
  0.000000E+00
  0.000000E+00
  0.000000E+00
  0.000000E+00
  0.000000E+00
  0.000000E+00
  0.000000E+00
  0.000000E+00
  0.000000E+00
  0.000000E+00
  0.000000E+00
  0.000000E+00
  0.000000E+00
  0.000000E+00
  0.000000E+00
  0.000000E+00
  0.000000E+00
  0.000000E+00
  0.000000E+00
  0.000000E+00
  0.000000E+00
  0.000000E+00
  0.000000E+00
  0.000000E+00
  0.000000E+00
  0.000000E+00
  0.000000E+00
  0.000000E+00
  0.000000E+00
  0.000000E+00
  0.000000E+00
  0.000000E+00
  0.000000E+00
  0.000000E+00
  0.000000E+00
  0.000000E+00
  0.000000E+00
  0.000000E+00
  0.000000E+00
  0.000000E+00
  0.000000E+00
  0.000000E+00
  0.000000E+00
  0.000000E+00
  0.000000E+00
  0.000000E+00
  0.000000E+00
  0.000000E+00
  0.000000E+00
  0.000000E+00
  0.000000E+00
  0.000000E+00
  0.000000E+00
  0.000000E+00
  0.000000E+00
  0.000000E+00
  0.000000E+00
  0.000000E+00
  0.000000E+00
  0.000000E+00
  0.000000E+00
  0.000000E+00
  0.000000E+00
  0.000000E+00
  0.000000E+00
  0.000000E+00
  0.000000E+00
  0.000000E+00
  0.000000E+00
  0.000000E+00
  0.000000E+00
  0.000000E+00
  0.000000E+00
  0.000000E+00
  0.000000E+00
  0.000000E+00
  0.000000E+00
  0.000000E+00
  0.000000E+00
  0.000000E+00
  0.000000E+00
  0.000000E+00
  0.000000E+00
  0.000000E+00
  0.000000E+00
  0.000000E+00
  0.000000E+00
  0.000000E+00
  0.000000E+00
  0.000000E+00
  0.000000E+00
  0.000000E+00
  0.000000E+00
  0.000000E+00
  0.000000E+00
  0.000000E+00
  0.000000E+00
  0.000000E+00
  0.000000E+00
  0.000000E+00
  0.000000E+00
  0.000000E+00
  0.000000E+00
  0.000000E+00
  0.000000E+00
  0.000000E+00
  0.000000E+00
  0.000000E+00
  0.000000E+00
  0.000000E+00
  0.000000E+00
  0.000000E+00
  0.000000E+00
  0.000000E+00
  0.000000E+00
  0.000000E+00
  0.000000E+00
  0.000000E+00
  0.000000E+00
  0.000000E+00
  0.000000E+00
  0.000000E+00
  0.000000E+00
  0.000000E+00
  0.000000E+00
  0.000000E+00
  0.000000E+00
  0.000000E+00
  0.000000E+00
  0.000000E+00
  0.000000E+00
  0.000000E+00
  0.000000E+00
  0.000000E+00
  0.000000E+00
  0.000000E+00
  0.000000E+00
  0.000000E+00
  0.000000E+00
  0.000000E+00
  0.000000E+00
  0.000000E+00
  0.000000E+00
  0.000000E+00
  0.000000E+00
  0.000000E+00
  0.000000E+00
  0.000000E+00
  0.000000E+00
  0.000000E+00
  0.000000E+00
  0.000000E+00
  0.000000E+00
  0.000000E+00
  0.000000E+00
  0.000000E+00
  0.000000E+00
  0.000000E+00
  0.000000E+00
  0.000000E+00
  0.000000E+00
  0.000000E+00
  0.000000E+00
  0.000000E+00
  0.000000E+00
  0.000000E+00
  0.000000E+00
  0.000000E+00
  0.000000E+00
  0.000000E+00
  0.000000E+00
  0.000000E+00
  0.000000E+00
  0.000000E+00
  0.000000E+00
  0.000000E+00
  0.000000E+00
  0.000000E+00
  0.000000E+00
  0.000000E+00
  0.000000E+00
  0.000000E+00
  0.000000E+00
  0.000000E+00
  0.000000E+00
  0.000000E+00
  0.000000E+00
  0.000000E+00
  0.000000E+00
  0.000000E+00
  0.000000E+00
  0.000000E+00
  0.000000E+00
  0.000000E+00
  0.000000E+00
  0.000000E+00
  0.000000E+00
  0.000000E+00
  0.000000E+00
  0.000000E+00
  0.000000E+00
  0.000000E+00
  0.000000E+00
  0.000000E+00
  0.000000E+00
  0.000000E+00
  0.000000E+00
  0.000000E+00
  0.000000E+00
  0.000000E+00
  0.000000E+00
  0.000000E+00
  0.000000E+00
  0.000000E+00
  0.000000E+00
  0.000000E+00
  0.000000E+00
  0.000000E+00
  0.000000E+00
  0.000000E+00
  0.000000E+00
  0.000000E+00
  0.000000E+00
  0.000000E+00
  0.000000E+00
  0.000000E+00
  0.000000E+00
  0.000000E+00
  0.000000E+00
  0.000000E+00
  0.000000E+00
  0.000000E+00
  0.000000E+00
  0.000000E+00
  0.000000E+00
  0.000000E+00
  0.000000E+00
  0.000000E+00
  0.000000E+00
  0.000000E+00
  0.000000E+00
  0.000000E+00
  0.000000E+00
  0.000000E+00
  0.000000E+00
  0.000000E+00
  0.000000E+00
  0.000000E+00
  0.000000E+00
  0.000000E+00
  0.000000E+00
  0.000000E+00
  0.000000E+00
  0.000000E+00
  0.000000E+00
  0.000000E+00
  0.000000E+00
  0.000000E+00
  1.000000E-08
  1.695085E-02
  3.390169E-02
  5.085254E-02
  6.780338E-02
  8.475423E-02
  1.017051E-01
  1.186559E-01
  1.356068E-01
  1.525576E-01
  1.695085E-01
  1.864593E-01
  2.034101E-01
  2.203610E-01
  2.373118E-01
  2.542627E-01
  2.712135E-01
  2.881644E-01
  3.051152E-01
  3.220661E-01
  3.390169E-01
  3.559678E-01
  3.729186E-01
  3.898694E-01
  4.068203E-01
  4.237711E-01
  4.407220E-01
  4.576728E-01
  4.746237E-01
  4.915745E-01
  5.085254E-01
  5.254762E-01
  5.424271E-01
  5.593779E-01
  5.763287E-01
  5.932796E-01
  6.102304E-01
  6.271813E-01
  6.441321E-01
  6.610830E-01
  6.780338E-01
  6.949847E-01
  7.119355E-01
  7.288864E-01
  7.458372E-01
  7.627880E-01
  7.797389E-01
  7.966897E-01
  8.136406E-01
  8.305914E-01
  8.475423E-01
  8.644931E-01
  8.814440E-01
  8.983948E-01
  9.153457E-01
  9.322965E-01
  9.492473E-01
  9.661982E-01
  9.831490E-01
  1.000100E+00
  1.017051E+00
  1.034002E+00
  1.050952E+00
  1.067903E+00
  1.084854E+00
  1.101805E+00
  1.118756E+00
  1.135707E+00
  1.152657E+00
  1.169608E+00
  1.186559E+00
  1.203510E+00
  1.220461E+00
  1.237412E+00
  1.254363E+00
  1.271313E+00
  1.288264E+00
  1.305215E+00
  1.322166E+00
  1.339117E+00
  1.356068E+00
  1.373018E+00
  1.389969E+00
  1.406920E+00
  1.423871E+00
  1.440822E+00
  1.457773E+00
  1.474724E+00
  1.491674E+00
  1.508625E+00
  1.525576E+00
  1.542527E+00
  1.559478E+00
  1.576429E+00
  1.593379E+00
  1.610330E+00
  1.627281E+00
  1.644232E+00
  1.661183E+00
  1.678134E+00
  1.695085E+00
  1.712035E+00
  1.728986E+00
  1.745937E+00
  1.762888E+00
  1.779839E+00
  1.796790E+00
  1.813740E+00
  1.830691E+00
  1.847642E+00
  1.864593E+00
  1.881544E+00
  1.898495E+00
  1.915446E+00
  1.932396E+00
  1.949347E+00
  1.966298E+00
  1.983249E+00
  2.000200E+00
  2.017151E+00
  2.034101E+00
  2.051052E+00
  2.068003E+00
  2.084954E+00
  2.101905E+00
  2.118856E+00
  2.135807E+00
  2.152757E+00
  2.169708E+00
  2.186659E+00
  2.203610E+00
  2.220561E+00
  2.237512E+00
  2.254462E+00
  2.271413E+00
  2.288364E+00
  2.305315E+00
  2.322266E+00
  2.339217E+00
  2.356168E+00
  2.373118E+00
  2.390069E+00
  2.407020E+00
  2.423971E+00
  2.440922E+00
  2.457873E+00
  2.474823E+00
  2.491774E+00
  2.508725E+00
  2.525676E+00
  1.075313E+04
  1.075120E+04
  1.074927E+04
  1.074734E+04
  1.074541E+04
  1.074349E+04
  1.074156E+04
  1.073964E+04
  1.073772E+04
  1.073407E+04
  1.073038E+04
  1.072669E+04
  1.072300E+04
  1.071931E+04
  1.071562E+04
  1.071194E+04
  1.070798E+04
  1.070353E+04
  1.069908E+04
  1.069463E+04
  1.069018E+04
  1.068573E+04
  1.068128E+04
  1.067653E+04
  1.066931E+04
  1.066209E+04
  1.065488E+04
  1.064766E+04
  1.064044E+04
  1.063323E+04
  1.062527E+04
  1.061484E+04
  1.060441E+04
  1.059398E+04
  1.058356E+04
  1.057313E+04
  1.056270E+04
  1.055028E+04
  1.053697E+04
  1.052367E+04
  1.051037E+04
  1.049707E+04
  1.048377E+04
  1.046918E+04
  1.045324E+04
  1.043731E+04
  1.042137E+04
  1.040543E+04
  1.038949E+04
  1.037197E+04
  1.035335E+04
  1.033472E+04
  1.031609E+04
  1.029747E+04
  1.027884E+04
  1.025744E+04
  1.023599E+04
  1.021454E+04
  1.019310E+04
  1.017165E+04
  1.014837E+04
  1.012415E+04
  1.009992E+04
  1.007570E+04
  1.005148E+04
  1.002552E+04
  9.998409E+03
  9.971303E+03
  9.944197E+03
  9.917092E+03
  9.887327E+03
  9.856896E+03
  9.826465E+03
  9.796034E+03
  9.764705E+03
  9.730451E+03
  9.696198E+03
  9.661945E+03
  9.627693E+03
  9.589597E+03
  9.551071E+03
  9.512546E+03
  9.474022E+03
  9.431824E+03
  9.388594E+03
  9.345364E+03
  9.302135E+03
  9.254530E+03
  9.206256E+03
  9.157984E+03
  9.108929E+03
  9.055407E+03
  9.001891E+03
  8.948381E+03
  8.891563E+03
  8.832707E+03
  8.773863E+03
  8.713628E+03
  8.649478E+03
  8.585349E+03
  8.520855E+03
  8.451647E+03
  8.382470E+03
  8.313096E+03
  8.239194E+03
  8.165327E+03
  8.090749E+03
  8.012591E+03
  7.934470E+03
  7.854654E+03
  7.772655E+03
  7.690691E+03
  7.605733E+03
  7.520242E+03
  7.433553E+03
  7.344853E+03
  7.256084E+03
  7.164361E+03
  7.072670E+03
  6.978583E+03
  6.883947E+03
  6.787237E+03
  6.689621E+03
  6.589705E+03
  6.488739E+03
  6.384865E+03
  6.280166E+03
  6.171810E+03
  6.062465E+03
  5.950393E+03
  5.836310E+03
  5.720756E+03
  5.602172E+03
  5.481742E+03
  5.359336E+03
  5.234006E+03
  5.105328E+03
  4.973477E+03
  4.838277E+03
  4.700531E+03
  4.563929E+03
  4.438032E+03
  4.339583E+03
  4.303186E+03
  4.366669E+03
  4.309892E+03
  3.904590E+03
  4.480246E+03
  1.206801E+03
 -2.800790E-04
  5.972742E+02
  5.967971E+02
  5.963202E+02
  5.958436E+02
  5.953672E+02
  5.948911E+02
  5.944153E+02
  5.939397E+02
  5.934644E+02
  5.928634E+02
  5.922595E+02
  5.916559E+02
  5.910526E+02
  5.904495E+02
  5.898466E+02
  5.892440E+02
  5.888302E+02
  5.887623E+02
  5.886946E+02
  5.886270E+02
  5.885595E+02
  5.884921E+02
  5.884249E+02
  5.883766E+02
  5.884786E+02
  5.885807E+02
  5.886829E+02
  5.887851E+02
  5.888874E+02
  5.889897E+02
  5.891138E+02
  5.893098E+02
  5.895059E+02
  5.897019E+02
  5.898980E+02
  5.900941E+02
  5.902903E+02
  5.905882E+02
  5.909306E+02
  5.912730E+02
  5.916154E+02
  5.919578E+02
  5.923003E+02
  5.927095E+02
  5.931894E+02
  5.936692E+02
  5.941491E+02
  5.946289E+02
  5.951088E+02
  5.955778E+02
  5.960392E+02
  5.965005E+02
  5.969619E+02
  5.974233E+02
  5.978847E+02
  5.981157E+02
  5.983430E+02
  5.985704E+02
  5.987977E+02
  5.990250E+02
  5.990462E+02
  5.989617E+02
  5.988772E+02
  5.987928E+02
  5.987085E+02
  5.984473E+02
  5.980702E+02
  5.976932E+02
  5.973164E+02
  5.969397E+02
  5.963507E+02
  5.957086E+02
  5.950667E+02
  5.944250E+02
  5.937379E+02
  5.929027E+02
  5.920677E+02
  5.912329E+02
  5.903982E+02
  5.894316E+02
  5.884502E+02
  5.874690E+02
  5.864879E+02
  5.853750E+02
  5.842251E+02
  5.830752E+02
  5.819254E+02
  5.806230E+02
  5.792973E+02
  5.779717E+02
  5.766220E+02
  5.751345E+02
  5.736474E+02
  5.721609E+02
  5.705580E+02
  5.688839E+02
  5.672111E+02
  5.654722E+02
  5.635466E+02
  5.616234E+02
  5.596750E+02
  5.573901E+02
  5.551088E+02
  5.528063E+02
  5.500088E+02
  5.472156E+02
  5.443203E+02
  5.409139E+02
  5.375119E+02
  5.338473E+02
  5.298451E+02
  5.258468E+02
  5.214182E+02
  5.169118E+02
  5.122637E+02
  5.073774E+02
  5.024860E+02
  4.973445E+02
  4.922064E+02
  4.870246E+02
  4.818346E+02
  4.768103E+02
  4.718604E+02
  4.672273E+02
  4.627403E+02
  4.587041E+02
  4.547970E+02
  4.515350E+02
  4.484783E+02
  4.459972E+02
  4.440269E+02
  4.424361E+02
  4.417346E+02
  4.416146E+02
  4.421147E+02
  4.435256E+02
  4.459328E+02
  4.493059E+02
  4.539114E+02
  4.602856E+02
  4.696114E+02
  4.842675E+02
  5.081345E+02
  5.481718E+02
  6.110233E+02
  6.638841E+02
  6.753638E+02
  8.223875E+02
  1.482210E+02
  3.694837E-04
  1.914117E+03
  1.914343E+03
  1.914569E+03
  1.914796E+03
  1.915023E+03
  1.915251E+03
  1.915480E+03
  1.915708E+03
  1.915938E+03
  1.917033E+03
  1.918150E+03
  1.919267E+03
  1.920385E+03
  1.921503E+03
  1.922621E+03
  1.923740E+03
  1.924996E+03
  1.926504E+03
  1.928013E+03
  1.929521E+03
  1.931030E+03
  1.932539E+03
  1.934048E+03
  1.935479E+03
  1.936279E+03
  1.937080E+03
  1.937881E+03
  1.938682E+03
  1.939483E+03
  1.940284E+03
  1.940870E+03
  1.940741E+03
  1.940611E+03
  1.940482E+03
  1.940353E+03
  1.940224E+03
  1.940095E+03
  1.939429E+03
  1.938527E+03
  1.937626E+03
  1.936725E+03
  1.935824E+03
  1.934923E+03
  1.933740E+03
  1.932261E+03
  1.930781E+03
  1.929301E+03
  1.927821E+03
  1.926341E+03
  1.924649E+03
  1.922808E+03
  1.920967E+03
  1.919126E+03
  1.917285E+03
  1.915444E+03
  1.913454E+03
  1.911462E+03
  1.909469E+03
  1.907477E+03
  1.905484E+03
  1.903472E+03
  1.901448E+03
  1.899425E+03
  1.897402E+03
  1.895379E+03
  1.893249E+03
  1.891049E+03
  1.888850E+03
  1.886651E+03
  1.884452E+03
  1.881823E+03
  1.879088E+03
  1.876353E+03
  1.873618E+03
  1.870673E+03
  1.867047E+03
  1.863421E+03
  1.859796E+03
  1.856171E+03
  1.851394E+03
  1.846489E+03
  1.841584E+03
  1.836679E+03
  1.830411E+03
  1.823760E+03
  1.817109E+03
  1.810458E+03
  1.802004E+03
  1.793274E+03
  1.784545E+03
  1.775482E+03
  1.764518E+03
  1.753555E+03
  1.742594E+03
  1.730189E+03
  1.716893E+03
  1.703599E+03
  1.689703E+03
  1.674110E+03
  1.658522E+03
  1.642790E+03
  1.625233E+03
  1.607684E+03
  1.590072E+03
  1.571063E+03
  1.552062E+03
  1.532897E+03
  1.512897E+03
  1.492907E+03
  1.472640E+03
  1.452018E+03
  1.431406E+03
  1.410509E+03
  1.389568E+03
  1.368586E+03
  1.347531E+03
  1.326483E+03
  1.305337E+03
  1.284203E+03
  1.262936E+03
  1.241646E+03
  1.220275E+03
  1.198874E+03
  1.177412E+03
  1.155926E+03
  1.134362E+03
  1.112779E+03
  1.091221E+03
  1.069736E+03
  1.048472E+03
  1.027565E+03
  1.006934E+03
  9.871058E+02
  9.678525E+02
  9.492080E+02
  9.314403E+02
  9.145571E+02
  8.985282E+02
  8.837525E+02
  8.713029E+02
  8.641575E+02
  8.689300E+02
  8.970263E+02
  9.666411E+02
  1.093261E+03
  1.190954E+03
  1.138366E+03
  1.332420E+03
  1.554803E+02
 -2.357034E-10
  1.216069E+00
  1.215851E+00
  1.215632E+00
  1.215414E+00
  1.215196E+00
  1.214978E+00
  1.214761E+00
  1.214543E+00
  1.214326E+00
  1.213913E+00
  1.213496E+00
  1.213079E+00
  1.212661E+00
  1.212244E+00
  1.211827E+00
  1.211410E+00
  1.210963E+00
  1.210460E+00
  1.209956E+00
  1.209453E+00
  1.208950E+00
  1.208447E+00
  1.207944E+00
  1.207406E+00
  1.206590E+00
  1.205773E+00
  1.204957E+00
  1.204141E+00
  1.203325E+00
  1.202509E+00
  1.201609E+00
  1.200430E+00
  1.199251E+00
  1.198071E+00
  1.196892E+00
  1.195713E+00
  1.194533E+00
  1.193128E+00
  1.191624E+00
  1.190120E+00
  1.188615E+00
  1.187111E+00
  1.185607E+00
  1.183957E+00
  1.182155E+00
  1.180352E+00
  1.178550E+00
  1.176748E+00
  1.174945E+00
  1.172964E+00
  1.170857E+00
  1.168751E+00
  1.166645E+00
  1.164538E+00
  1.162432E+00
  1.160011E+00
  1.157586E+00
  1.155160E+00
  1.152735E+00
  1.150310E+00
  1.147677E+00
  1.144937E+00
  1.142198E+00
  1.139459E+00
  1.136719E+00
  1.133783E+00
  1.130718E+00
  1.127652E+00
  1.124587E+00
  1.121522E+00
  1.118156E+00
  1.114714E+00
  1.111273E+00
  1.107831E+00
  1.104288E+00
  1.100414E+00
  1.096541E+00
  1.092667E+00
  1.088794E+00
  1.084485E+00
  1.080128E+00
  1.075772E+00
  1.071415E+00
  1.066643E+00
  1.061754E+00
  1.056865E+00
  1.051976E+00
  1.046593E+00
  1.041133E+00
  1.035674E+00
  1.030127E+00
  1.024074E+00
  1.018022E+00
  1.011970E+00
  1.005545E+00
  9.988887E-01
  9.922341E-01
  9.854222E-01
  9.781674E-01
  9.709151E-01
  9.636215E-01
  9.557948E-01
  9.479716E-01
  9.401261E-01
  9.317685E-01
  9.234149E-01
  9.149810E-01
  9.061421E-01
  8.973074E-01
  8.882810E-01
  8.790077E-01
  8.697384E-01
  8.601306E-01
  8.504624E-01
  8.406588E-01
  8.306278E-01
  8.205889E-01
  8.102160E-01
  7.998466E-01
  7.892063E-01
  7.785040E-01
  7.675670E-01
  7.565277E-01
  7.452282E-01
  7.338100E-01
  7.220629E-01
  7.102225E-01
  6.979685E-01
  6.856028E-01
  6.729285E-01
  6.600270E-01
  6.469590E-01
  6.335483E-01
  6.199289E-01
  6.060860E-01
  5.919125E-01
  5.773604E-01
  5.624493E-01
  5.471596E-01
  5.315820E-01
  5.161337E-01
  5.018960E-01
  4.907624E-01
  4.866463E-01
  4.938256E-01
  4.874047E-01
  4.415691E-01
  5.066700E-01
  1.364768E-01
 -3.167407E-08
  1.068574E+00
  1.067720E+00
  1.066867E+00
  1.066014E+00
  1.065162E+00
  1.064310E+00
  1.063459E+00
  1.062608E+00
  1.061758E+00
  1.060682E+00
  1.059602E+00
  1.058522E+00
  1.057443E+00
  1.056364E+00
  1.055285E+00
  1.054207E+00
  1.053467E+00
  1.053345E+00
  1.053224E+00
  1.053103E+00
  1.052982E+00
  1.052862E+00
  1.052742E+00
  1.052655E+00
  1.052838E+00
  1.053020E+00
  1.053203E+00
  1.053386E+00
  1.053569E+00
  1.053752E+00
  1.053974E+00
  1.054325E+00
  1.054676E+00
  1.055026E+00
  1.055377E+00
  1.055728E+00
  1.056079E+00
  1.056612E+00
  1.057224E+00
  1.057837E+00
  1.058450E+00
  1.059062E+00
  1.059675E+00
  1.060407E+00
  1.061266E+00
  1.062124E+00
  1.062983E+00
  1.063841E+00
  1.064700E+00
  1.065539E+00
  1.066364E+00
  1.067190E+00
  1.068015E+00
  1.068841E+00
  1.069666E+00
  1.070079E+00
  1.070486E+00
  1.070893E+00
  1.071299E+00
  1.071706E+00
  1.071744E+00
  1.071593E+00
  1.071442E+00
  1.071291E+00
  1.071140E+00
  1.070673E+00
  1.069998E+00
  1.069323E+00
  1.068649E+00
  1.067975E+00
  1.066922E+00
  1.065773E+00
  1.064624E+00
  1.063476E+00
  1.062247E+00
  1.060753E+00
  1.059259E+00
  1.057765E+00
  1.056272E+00
  1.054543E+00
  1.052787E+00
  1.051031E+00
  1.049276E+00
  1.047285E+00
  1.045228E+00
  1.043171E+00
  1.041113E+00
  1.038783E+00
  1.036411E+00
  1.034040E+00
  1.031625E+00
  1.028964E+00
  1.026304E+00
  1.023644E+00
  1.020776E+00
  1.017781E+00
  1.014788E+00
  1.011677E+00
  1.008232E+00
  1.004792E+00
  1.001306E+00
  9.972177E-01
  9.931363E-01
  9.890169E-01
  9.840120E-01
  9.790147E-01
  9.738347E-01
  9.677404E-01
  9.616539E-01
  9.550978E-01
  9.479374E-01
  9.407842E-01
  9.328609E-01
  9.247987E-01
  9.164828E-01
  9.077408E-01
  8.989896E-01
  8.897912E-01
  8.805986E-01
  8.713280E-01
  8.620426E-01
  8.530538E-01
  8.441979E-01
  8.359089E-01
  8.278813E-01
  8.206602E-01
  8.136701E-01
  8.078341E-01
  8.023654E-01
  7.979266E-01
  7.944014E-01
  7.915554E-01
  7.903003E-01
  7.900857E-01
  7.909804E-01
  7.935047E-01
  7.978112E-01
  8.038461E-01
  8.120856E-01
  8.234896E-01
  8.401743E-01
  8.663953E-01
  9.090953E-01
  9.807255E-01
  1.093172E+00
  1.187744E+00
  1.208283E+00
  1.471320E+00
  2.651798E-01
  6.610374E-07
  1.158242E+00
  1.158379E+00
  1.158516E+00
  1.158653E+00
  1.158791E+00
  1.158929E+00
  1.159067E+00
  1.159206E+00
  1.159344E+00
  1.160007E+00
  1.160683E+00
  1.161359E+00
  1.162035E+00
  1.162712E+00
  1.163388E+00
  1.164065E+00
  1.164826E+00
  1.165738E+00
  1.166651E+00
  1.167564E+00
  1.168477E+00
  1.169390E+00
  1.170303E+00
  1.171169E+00
  1.171653E+00
  1.172138E+00
  1.172622E+00
  1.173107E+00
  1.173592E+00
  1.174076E+00
  1.174431E+00
  1.174353E+00
  1.174274E+00
  1.174196E+00
  1.174118E+00
  1.174040E+00
  1.173962E+00
  1.173559E+00
  1.173014E+00
  1.172468E+00
  1.171923E+00
  1.171378E+00
  1.170832E+00
  1.170117E+00
  1.169221E+00
  1.168326E+00
  1.167431E+00
  1.166535E+00
  1.165640E+00
  1.164616E+00
  1.163502E+00
  1.162388E+00
  1.161274E+00
  1.160160E+00
  1.159046E+00
  1.157841E+00
  1.156636E+00
  1.155430E+00
  1.154225E+00
  1.153019E+00
  1.151801E+00
  1.150577E+00
  1.149352E+00
  1.148128E+00
  1.146904E+00
  1.145615E+00
  1.144284E+00
  1.142953E+00
  1.141622E+00
  1.140292E+00
  1.138702E+00
  1.137046E+00
  1.135391E+00
  1.133736E+00
  1.131955E+00
  1.129760E+00
  1.127566E+00
  1.125373E+00
  1.123179E+00
  1.120289E+00
  1.117320E+00
  1.114352E+00
  1.111384E+00
  1.107592E+00
  1.103567E+00
  1.099542E+00
  1.095518E+00
  1.090402E+00
  1.085120E+00
  1.079838E+00
  1.074354E+00
  1.067719E+00
  1.061086E+00
  1.054453E+00
  1.046947E+00
  1.038901E+00
  1.030857E+00
  1.022448E+00
  1.013013E+00
  1.003581E+00
  9.940609E-01
  9.834373E-01
  9.728183E-01
  9.621615E-01
  9.506585E-01
  9.391612E-01
  9.275641E-01
  9.154619E-01
  9.033659E-01
  8.911027E-01
  8.786238E-01
  8.661513E-01
  8.535066E-01
  8.408349E-01
  8.281388E-01
  8.153982E-01
  8.026618E-01
  7.898667E-01
  7.770779E-01
  7.642094E-01
  7.513265E-01
  7.383951E-01
  7.254452E-01
  7.124587E-01
  6.994574E-01
  6.864088E-01
  6.733487E-01
  6.603036E-01
  6.473029E-01
  6.344359E-01
  6.217851E-01
  6.093014E-01
  5.973031E-01
  5.856528E-01
  5.743709E-01
  5.636196E-01
  5.534035E-01
  5.437043E-01
  5.347635E-01
  5.272301E-01
  5.229064E-01
  5.257943E-01
  5.427955E-01
  5.849198E-01
  6.615384E-01
  7.206527E-01
  6.888312E-01
  8.062545E-01
  9.408195E-02
 -1.426254E-13
  9.614972E-01
  9.613244E-01
  9.611517E-01
  9.609791E-01
  9.608066E-01
  9.606341E-01
  9.604618E-01
  9.602895E-01
  9.601173E-01
  9.597908E-01
  9.594606E-01
  9.591305E-01
  9.588004E-01
  9.584704E-01
  9.581405E-01
  9.578106E-01
  9.574566E-01
  9.570584E-01
  9.566602E-01
  9.562621E-01
  9.558639E-01
  9.554658E-01
  9.550678E-01
  9.546423E-01
  9.539968E-01
  9.533513E-01
  9.527058E-01
  9.520604E-01
  9.514150E-01
  9.507696E-01
  9.500578E-01
  9.491253E-01
  9.481928E-01
  9.472603E-01
  9.463278E-01
  9.453953E-01
  9.444628E-01
  9.433516E-01
  9.421623E-01
  9.409729E-01
  9.397836E-01
  9.385942E-01
  9.374048E-01
  9.361008E-01
  9.346758E-01
  9.332508E-01
  9.318257E-01
  9.304007E-01
  9.289757E-01
  9.274093E-01
  9.257440E-01
  9.240787E-01
  9.224134E-01
  9.207481E-01
  9.190828E-01
  9.171690E-01
  9.152513E-01
  9.133336E-01
  9.114159E-01
  9.094982E-01
  9.074163E-01
  9.052504E-01
  9.030844E-01
  9.009185E-01
  8.987526E-01
  8.964308E-01
  8.940069E-01
  8.915830E-01
  8.891591E-01
  8.867353E-01
  8.840736E-01
  8.813523E-01
  8.786311E-01
  8.759099E-01
  8.731083E-01
  8.700452E-01
  8.669822E-01
  8.639193E-01
  8.608564E-01
  8.574498E-01
  8.540049E-01
  8.505600E-01
  8.471152E-01
  8.433420E-01
  8.394764E-01
  8.356110E-01
  8.317456E-01
  8.274889E-01
  8.231725E-01
  8.188563E-01
  8.144701E-01
  8.096845E-01
  8.048994E-01
  8.001149E-01
  7.950346E-01
  7.897720E-01
  7.845106E-01
  7.791249E-01
  7.733890E-01
  7.676551E-01
  7.618886E-01
  7.557005E-01
  7.495152E-01
  7.433123E-01
  7.367044E-01
  7.300997E-01
  7.234314E-01
  7.164429E-01
  7.094578E-01
  7.023210E-01
  6.949889E-01
  6.876600E-01
  6.800634E-01
  6.724190E-01
  6.646675E-01
  6.567361E-01
  6.487985E-01
  6.405967E-01
  6.323977E-01
  6.239844E-01
  6.155221E-01
  6.068742E-01
  5.981455E-01
  5.892112E-01
  5.801832E-01
  5.708953E-01
  5.615338E-01
  5.518456E-01
  5.420691E-01
  5.320490E-01
  5.218492E-01
  5.115179E-01
  5.009158E-01
  4.901487E-01
  4.792048E-01
  4.679995E-01
  4.564946E-01
  4.447059E-01
  4.326174E-01
  4.203011E-01
  4.080864E-01
  3.968285E-01
  3.880246E-01
  3.847687E-01
  3.904429E-01
  3.853637E-01
  3.491212E-01
  4.005883E-01
  1.482121E-01
 -6.083690E-03
  5.340561E-02
  5.336294E-02
  5.332029E-02
  5.327767E-02
  5.323506E-02
  5.319248E-02
  5.314992E-02
  5.310738E-02
  5.306486E-02
  5.301111E-02
  5.295711E-02
  5.290312E-02
  5.284916E-02
  5.279522E-02
  5.274130E-02
  5.268741E-02
  5.265039E-02
  5.264431E-02
  5.263824E-02
  5.263218E-02
  5.262613E-02
  5.262009E-02
  5.261407E-02
  5.260973E-02
  5.261885E-02
  5.262796E-02
  5.263709E-02
  5.264622E-02
  5.265535E-02
  5.266449E-02
  5.267558E-02
  5.269310E-02
  5.271062E-02
  5.272815E-02
  5.274568E-02
  5.276321E-02
  5.278074E-02
  5.280737E-02
  5.283799E-02
  5.286861E-02
  5.289923E-02
  5.292984E-02
  5.296046E-02
  5.299706E-02
  5.303997E-02
  5.308288E-02
  5.312579E-02
  5.316871E-02
  5.321162E-02
  5.325356E-02
  5.329482E-02
  5.333608E-02
  5.337734E-02
  5.341860E-02
  5.345987E-02
  5.348052E-02
  5.350085E-02
  5.352117E-02
  5.354150E-02
  5.356183E-02
  5.356372E-02
  5.355615E-02
  5.354860E-02
  5.354104E-02
  5.353349E-02
  5.351013E-02
  5.347640E-02
  5.344268E-02
  5.340897E-02
  5.337527E-02
  5.332259E-02
  5.326517E-02
  5.320776E-02
  5.315036E-02
  5.308890E-02
  5.301421E-02
  5.293954E-02
  5.286487E-02
  5.279023E-02
  5.270378E-02
  5.261602E-02
  5.252828E-02
  5.244054E-02
  5.234102E-02
  5.223819E-02
  5.213537E-02
  5.203256E-02
  5.191610E-02
  5.179756E-02
  5.167903E-02
  5.155835E-02
  5.142535E-02
  5.129239E-02
  5.115947E-02
  5.101615E-02
  5.086647E-02
  5.071690E-02
  5.056142E-02
  5.038925E-02
  5.021731E-02
  5.004310E-02
  4.983880E-02
  4.963483E-02
  4.942896E-02
  4.917883E-02
  4.892908E-02
  4.867020E-02
  4.836562E-02
  4.806143E-02
  4.773376E-02
  4.737589E-02
  4.701839E-02
  4.662238E-02
  4.621944E-02
  4.580380E-02
  4.536688E-02
  4.492949E-02
  4.446974E-02
  4.401028E-02
  4.354692E-02
  4.308281E-02
  4.263354E-02
  4.219090E-02
  4.177661E-02
  4.137539E-02
  4.101450E-02
  4.066515E-02
  4.037351E-02
  4.010023E-02
  3.987844E-02
  3.970232E-02
  3.956015E-02
  3.949751E-02
  3.948687E-02
  3.953167E-02
  3.965792E-02
  3.987323E-02
  4.017491E-02
  4.058676E-02
  4.115674E-02
  4.199058E-02
  4.330099E-02
  4.543494E-02
  4.901469E-02
  5.463426E-02
  5.936038E-02
  6.038633E-02
  7.353142E-02
  1.820362E-02
  8.025681E-03
  1.711518E-01
  1.711720E-01
  1.711922E-01
  1.712125E-01
  1.712328E-01
  1.712531E-01
  1.712735E-01
  1.712939E-01
  1.713144E-01
  1.714122E-01
  1.715121E-01
  1.716119E-01
  1.717118E-01
  1.718117E-01
  1.719117E-01
  1.720117E-01
  1.721240E-01
  1.722588E-01
  1.723936E-01
  1.725285E-01
  1.726633E-01
  1.727982E-01
  1.729331E-01
  1.730610E-01
  1.731325E-01
  1.732041E-01
  1.732757E-01
  1.733472E-01
  1.734188E-01
  1.734904E-01
  1.735428E-01
  1.735312E-01
  1.735196E-01
  1.735080E-01
  1.734965E-01
  1.734849E-01
  1.734733E-01
  1.734138E-01
  1.733332E-01
  1.732526E-01
  1.731721E-01
  1.730915E-01
  1.730109E-01
  1.729052E-01
  1.727729E-01
  1.726406E-01
  1.725083E-01
  1.723760E-01
  1.722437E-01
  1.720924E-01
  1.719278E-01
  1.717632E-01
  1.715986E-01
  1.714340E-01
  1.712694E-01
  1.710915E-01
  1.709134E-01
  1.707352E-01
  1.705571E-01
  1.703789E-01
  1.701989E-01
  1.700180E-01
  1.698370E-01
  1.696561E-01
  1.694752E-01
  1.692847E-01
  1.690880E-01
  1.688913E-01
  1.686946E-01
  1.684980E-01
  1.682629E-01
  1.680183E-01
  1.677736E-01
  1.675290E-01
  1.672657E-01
  1.669414E-01
  1.666172E-01
  1.662930E-01
  1.659688E-01
  1.655416E-01
  1.651030E-01
  1.646644E-01
  1.642258E-01
  1.636653E-01
  1.630706E-01
  1.624759E-01
  1.618812E-01
  1.611252E-01
  1.603447E-01
  1.595641E-01
  1.587537E-01
  1.577734E-01
  1.567932E-01
  1.558131E-01
  1.547040E-01
  1.535151E-01
  1.523265E-01
  1.510840E-01
  1.496897E-01
  1.482960E-01
  1.468893E-01
  1.453195E-01
  1.437504E-01
  1.421757E-01
  1.404760E-01
  1.387771E-01
  1.370634E-01
  1.352751E-01
  1.334877E-01
  1.316756E-01
  1.298316E-01
  1.279886E-01
  1.261201E-01
  1.242476E-01
  1.223714E-01
  1.204887E-01
  1.186067E-01
  1.167159E-01
  1.148260E-01
  1.129244E-01
  1.110206E-01
  1.091097E-01
  1.071961E-01
  1.052770E-01
  1.033558E-01
  1.014277E-01
  9.949787E-02
  9.757031E-02
  9.564934E-02
  9.374815E-02
  9.187892E-02
  9.003441E-02
  8.826165E-02
  8.654031E-02
  8.487340E-02
  8.328488E-02
  8.177543E-02
  8.034234E-02
  7.902126E-02
  7.790813E-02
  7.726915E-02
  7.769575E-02
  8.020778E-02
  8.643206E-02
  9.775328E-02
  1.064877E-01
  1.017847E-01
  1.191345E-01
  1.909516E-02
 -5.119794E-09
  9.615810E-01
  9.614081E-01
  9.612353E-01
  9.610626E-01
  9.608899E-01
  9.607173E-01
  9.605448E-01
  9.603724E-01
  9.602001E-01
  9.598734E-01
  9.595429E-01
  9.592125E-01
  9.588822E-01
  9.585519E-01
  9.582217E-01
  9.578916E-01
  9.575374E-01
  9.571391E-01
  9.567408E-01
  9.563425E-01
  9.559442E-01
  9.555460E-01
  9.551478E-01
  9.547222E-01
  9.540768E-01