 Title= "ADflow Lift Distribution Data"
Variables = "eta" "CoordinateX" "CoordinateY" "CoordinateZ" "Lift" "Drag" "Moment" "Normalized Lift" "Normalized Drag" "Normalized Moment" "CL" "CD" "CM" "CLp" "CDp" "CMp" "CLv" "CDv" "CMv" "Elliptical" "thickness" "twist" "chord" "fx" "fy" "fz" 
Zone T= "LiftDist_01 allWalls: : z normal"
 I=          150
 DATAPACKING=BLOCK
  0.000000E+00
  6.711405E-03
  1.342281E-02
  2.013422E-02
  2.684563E-02
  3.355704E-02
  4.026845E-02
  4.697986E-02
  5.369127E-02
  6.040268E-02
  6.711409E-02
  7.382550E-02
  8.053691E-02
  8.724832E-02
  9.395973E-02
  1.006711E-01
  1.073825E-01
  1.140940E-01
  1.208054E-01
  1.275168E-01
  1.342282E-01
  1.409396E-01
  1.476510E-01
  1.543624E-01
  1.610738E-01
  1.677852E-01
  1.744966E-01
  1.812081E-01
  1.879195E-01
  1.946309E-01
  2.013423E-01
  2.080537E-01
  2.147651E-01
  2.214765E-01
  2.281879E-01
  2.348993E-01
  2.416107E-01
  2.483221E-01
  2.550336E-01
  2.617450E-01
  2.684564E-01
  2.751678E-01
  2.818792E-01
  2.885906E-01
  2.953020E-01
  3.020134E-01
  3.087248E-01
  3.154362E-01
  3.221476E-01
  3.288591E-01
  3.355705E-01
  3.422819E-01
  3.489933E-01
  3.557047E-01
  3.624161E-01
  3.691275E-01
  3.758389E-01
  3.825503E-01
  3.892617E-01
  3.959732E-01
  4.026846E-01
  4.093960E-01
  4.161074E-01
  4.228188E-01
  4.295302E-01
  4.362416E-01
  4.429530E-01
  4.496644E-01
  4.563758E-01
  4.630872E-01
  4.697987E-01
  4.765101E-01
  4.832215E-01
  4.899329E-01
  4.966443E-01
  5.033557E-01
  5.100671E-01
  5.167785E-01
  5.234899E-01
  5.302013E-01
  5.369128E-01
  5.436242E-01
  5.503356E-01
  5.570470E-01
  5.637584E-01
  5.704698E-01
  5.771812E-01
  5.838926E-01
  5.906040E-01
  5.973154E-01
  6.040268E-01
  6.107383E-01
  6.174497E-01
  6.241611E-01
  6.308725E-01
  6.375839E-01
  6.442953E-01
  6.510067E-01
  6.577181E-01
  6.644295E-01
  6.711409E-01
  6.778524E-01
  6.845638E-01
  6.912752E-01
  6.979866E-01
  7.046980E-01
  7.114094E-01
  7.181208E-01
  7.248322E-01
  7.315436E-01
  7.382550E-01
  7.449664E-01
  7.516779E-01
  7.583893E-01
  7.651007E-01
  7.718121E-01
  7.785235E-01
  7.852349E-01
  7.919463E-01
  7.986577E-01
  8.053691E-01
  8.120805E-01
  8.187919E-01
  8.255034E-01
  8.322148E-01
  8.389262E-01
  8.456376E-01
  8.523490E-01
  8.590604E-01
  8.657718E-01
  8.724832E-01
  8.791946E-01
  8.859060E-01
  8.926175E-01
  8.993289E-01
  9.060403E-01
  9.127517E-01
  9.194631E-01
  9.261745E-01
  9.328859E-01
  9.395973E-01
  9.463087E-01
  9.530201E-01
  9.597315E-01
  9.664430E-01
  9.731544E-01
  9.798658E-01
  9.865772E-01
  9.932886E-01
  1.000000E+00
  0.000000E+00
  0.000000E+00
  0.000000E+00
  0.000000E+00
  0.000000E+00
  0.000000E+00
  0.000000E+00
  0.000000E+00
  0.000000E+00
  0.000000E+00
  0.000000E+00
  0.000000E+00
  0.000000E+00
  0.000000E+00
  0.000000E+00
  0.000000E+00
  0.000000E+00
  0.000000E+00
  0.000000E+00
  0.000000E+00
  0.000000E+00
  0.000000E+00
  0.000000E+00
  0.000000E+00
  0.000000E+00
  0.000000E+00
  0.000000E+00
  0.000000E+00
  0.000000E+00
  0.000000E+00
  0.000000E+00
  0.000000E+00
  0.000000E+00
  0.000000E+00
  0.000000E+00
  0.000000E+00
  0.000000E+00
  0.000000E+00
  0.000000E+00
  0.000000E+00
  0.000000E+00
  0.000000E+00
  0.000000E+00
  0.000000E+00
  0.000000E+00
  0.000000E+00
  0.000000E+00
  0.000000E+00
  0.000000E+00
  0.000000E+00
  0.000000E+00
  0.000000E+00
  0.000000E+00
  0.000000E+00
  0.000000E+00
  0.000000E+00
  0.000000E+00
  0.000000E+00
  0.000000E+00
  0.000000E+00
  0.000000E+00
  0.000000E+00
  0.000000E+00
  0.000000E+00
  0.000000E+00
  0.000000E+00
  0.000000E+00
  0.000000E+00
  0.000000E+00
  0.000000E+00
  0.000000E+00
  0.000000E+00
  0.000000E+00
  0.000000E+00
  0.000000E+00
  0.000000E+00
  0.000000E+00
  0.000000E+00
  0.000000E+00
  0.000000E+00
  0.000000E+00
  0.000000E+00
  0.000000E+00
  0.000000E+00
  0.000000E+00
  0.000000E+00
  0.000000E+00
  0.000000E+00
  0.000000E+00
  0.000000E+00
  0.000000E+00
  0.000000E+00
  0.000000E+00
  0.000000E+00
  0.000000E+00
  0.000000E+00
  0.000000E+00
  0.000000E+00
  0.000000E+00
  0.000000E+00
  0.000000E+00
  0.000000E+00
  0.000000E+00
  0.000000E+00
  0.000000E+00
  0.000000E+00
  0.000000E+00
  0.000000E+00
  0.000000E+00
  0.000000E+00
  0.000000E+00
  0.000000E+00
  0.000000E+00
  0.000000E+00
  0.000000E+00
  0.000000E+00
  0.000000E+00
  0.000000E+00
  0.000000E+00
  0.000000E+00
  0.000000E+00
  0.000000E+00
  0.000000E+00
  0.000000E+00
  0.000000E+00
  0.000000E+00
  0.000000E+00
  0.000000E+00
  0.000000E+00
  0.000000E+00
  0.000000E+00
  0.000000E+00
  0.000000E+00
  0.000000E+00
  0.000000E+00
  0.000000E+00
  0.000000E+00
  0.000000E+00
  0.000000E+00
  0.000000E+00
  0.000000E+00
  0.000000E+00
  0.000000E+00
  0.000000E+00
  0.000000E+00
  0.000000E+00
  0.000000E+00
  0.000000E+00
  0.000000E+00
  0.000000E+00
  0.000000E+00
  0.000000E+00
  0.000000E+00
  0.000000E+00
  0.000000E+00
  0.000000E+00
  0.000000E+00
  0.000000E+00
  0.000000E+00
  0.000000E+00
  0.000000E+00
  0.000000E+00
  0.000000E+00
  0.000000E+00
  0.000000E+00
  0.000000E+00
  0.000000E+00
  0.000000E+00
  0.000000E+00
  0.000000E+00
  0.000000E+00
  0.000000E+00
  0.000000E+00
  0.000000E+00
  0.000000E+00
  0.000000E+00
  0.000000E+00
  0.000000E+00
  0.000000E+00
  0.000000E+00
  0.000000E+00
  0.000000E+00
  0.000000E+00
  0.000000E+00
  0.000000E+00
  0.000000E+00
  0.000000E+00
  0.000000E+00
  0.000000E+00
  0.000000E+00
  0.000000E+00
  0.000000E+00
  0.000000E+00
  0.000000E+00
  0.000000E+00
  0.000000E+00
  0.000000E+00
  0.000000E+00
  0.000000E+00
  0.000000E+00
  0.000000E+00
  0.000000E+00
  0.000000E+00
  0.000000E+00
  0.000000E+00
  0.000000E+00
  0.000000E+00
  0.000000E+00
  0.000000E+00
  0.000000E+00
  0.000000E+00
  0.000000E+00
  0.000000E+00
  0.000000E+00
  0.000000E+00
  0.000000E+00
  0.000000E+00
  0.000000E+00
  0.000000E+00
  0.000000E+00
  0.000000E+00
  0.000000E+00
  0.000000E+00
  0.000000E+00
  0.000000E+00
  0.000000E+00
  0.000000E+00
  0.000000E+00
  0.000000E+00
  0.000000E+00
  0.000000E+00
  0.000000E+00
  0.000000E+00
  0.000000E+00
  0.000000E+00
  0.000000E+00
  0.000000E+00
  0.000000E+00
  0.000000E+00
  0.000000E+00
  0.000000E+00
  0.000000E+00
  0.000000E+00
  0.000000E+00
  0.000000E+00
  0.000000E+00
  0.000000E+00
  0.000000E+00
  0.000000E+00
  0.000000E+00
  0.000000E+00
  0.000000E+00
  0.000000E+00
  0.000000E+00
  0.000000E+00
  0.000000E+00
  0.000000E+00
  0.000000E+00
  0.000000E+00
  0.000000E+00
  0.000000E+00
  0.000000E+00
  0.000000E+00
  0.000000E+00
  0.000000E+00
  0.000000E+00
  0.000000E+00
  0.000000E+00
  0.000000E+00
  0.000000E+00
  0.000000E+00
  0.000000E+00
  0.000000E+00
  0.000000E+00
  0.000000E+00
  0.000000E+00
  0.000000E+00
  0.000000E+00
  0.000000E+00
  0.000000E+00
  0.000000E+00
  0.000000E+00
  0.000000E+00
  0.000000E+00
  0.000000E+00
  0.000000E+00
  0.000000E+00
  0.000000E+00
  0.000000E+00
  0.000000E+00
  0.000000E+00
  0.000000E+00
  0.000000E+00
  0.000000E+00
  0.000000E+00
  0.000000E+00
  0.000000E+00
  0.000000E+00
  0.000000E+00
  0.000000E+00
  1.000000E-08
  1.695085E-02
  3.390169E-02
  5.085254E-02
  6.780338E-02
  8.475423E-02
  1.017051E-01
  1.186559E-01
  1.356068E-01
  1.525576E-01
  1.695085E-01
  1.864593E-01
  2.034101E-01
  2.203610E-01
  2.373118E-01
  2.542627E-01
  2.712135E-01
  2.881644E-01
  3.051152E-01
  3.220661E-01
  3.390169E-01
  3.559678E-01
  3.729186E-01
  3.898694E-01
  4.068203E-01
  4.237711E-01
  4.407220E-01
  4.576728E-01
  4.746237E-01
  4.915745E-01
  5.085254E-01
  5.254762E-01
  5.424271E-01
  5.593779E-01
  5.763287E-01
  5.932796E-01
  6.102304E-01
  6.271813E-01
  6.441321E-01
  6.610830E-01
  6.780338E-01
  6.949847E-01
  7.119355E-01
  7.288864E-01
  7.458372E-01
  7.627880E-01
  7.797389E-01
  7.966897E-01
  8.136406E-01
  8.305914E-01
  8.475423E-01
  8.644931E-01
  8.814440E-01
  8.983948E-01
  9.153457E-01
  9.322965E-01
  9.492473E-01
  9.661982E-01
  9.831490E-01
  1.000100E+00
  1.017051E+00
  1.034002E+00
  1.050952E+00
  1.067903E+00
  1.084854E+00
  1.101805E+00
  1.118756E+00
  1.135707E+00
  1.152657E+00
  1.169608E+00
  1.186559E+00
  1.203510E+00
  1.220461E+00
  1.237412E+00
  1.254363E+00
  1.271313E+00
  1.288264E+00
  1.305215E+00
  1.322166E+00
  1.339117E+00
  1.356068E+00
  1.373018E+00
  1.389969E+00
  1.406920E+00
  1.423871E+00
  1.440822E+00
  1.457773E+00
  1.474724E+00
  1.491674E+00
  1.508625E+00
  1.525576E+00
  1.542527E+00
  1.559478E+00
  1.576429E+00
  1.593379E+00
  1.610330E+00
  1.627281E+00
  1.644232E+00
  1.661183E+00
  1.678134E+00
  1.695085E+00
  1.712035E+00
  1.728986E+00
  1.745937E+00
  1.762888E+00
  1.779839E+00
  1.796790E+00
  1.813740E+00
  1.830691E+00
  1.847642E+00
  1.864593E+00
  1.881544E+00
  1.898495E+00
  1.915446E+00
  1.932396E+00
  1.949347E+00
  1.966298E+00
  1.983249E+00
  2.000200E+00
  2.017151E+00
  2.034101E+00
  2.051052E+00
  2.068003E+00
  2.084954E+00
  2.101905E+00
  2.118856E+00
  2.135807E+00
  2.152757E+00
  2.169708E+00
  2.186659E+00
  2.203610E+00
  2.220561E+00
  2.237512E+00
  2.254462E+00
  2.271413E+00
  2.288364E+00
  2.305315E+00
  2.322266E+00
  2.339217E+00
  2.356168E+00
  2.373118E+00
  2.390069E+00
  2.407020E+00
  2.423971E+00
  2.440922E+00
  2.457873E+00
  2.474823E+00
  2.491774E+00
  2.508725E+00
  2.525676E+00
  5.918968E+03
  5.918345E+03
  5.917721E+03
  5.917097E+03
  5.916474E+03
  5.915850E+03
  5.915226E+03
  5.914603E+03
  5.913979E+03
  5.912170E+03
  5.910332E+03
  5.908494E+03
  5.906656E+03
  5.904818E+03
  5.902980E+03
  5.901142E+03
  5.898929E+03
  5.896027E+03
  5.893125E+03
  5.890223E+03
  5.887320E+03
  5.884418E+03
  5.881516E+03
  5.878498E+03
  5.874550E+03
  5.870601E+03
  5.866653E+03
  5.862705E+03
  5.858757E+03
  5.854808E+03
  5.850605E+03
  5.845556E+03
  5.840507E+03
  5.835459E+03
  5.830410E+03
  5.825361E+03
  5.820312E+03
  5.814469E+03
  5.808278E+03
  5.802088E+03
  5.795897E+03
  5.789707E+03
  5.783517E+03
  5.776759E+03
  5.769402E+03
  5.762046E+03
  5.754690E+03
  5.747333E+03
  5.739977E+03
  5.731916E+03
  5.723361E+03
  5.714807E+03
  5.706253E+03
  5.697698E+03
  5.689144E+03
  5.679369E+03
  5.669574E+03
  5.659779E+03
  5.649984E+03
  5.640190E+03
  5.629544E+03
  5.618461E+03
  5.607379E+03
  5.596296E+03
  5.585214E+03
  5.573322E+03
  5.560899E+03
  5.548477E+03
  5.536054E+03
  5.523632E+03
  5.510090E+03
  5.496269E+03
  5.482447E+03
  5.468626E+03
  5.454460E+03
  5.439174E+03
  5.423888E+03
  5.408602E+03
  5.393316E+03
  5.376648E+03
  5.359826E+03
  5.343005E+03
  5.326183E+03
  5.308103E+03
  5.289668E+03
  5.271233E+03
  5.252798E+03
  5.232894E+03
  5.212763E+03
  5.192633E+03
  5.172236E+03
  5.150323E+03
  5.128410E+03
  5.106496E+03
  5.083424E+03
  5.059634E+03
  5.035845E+03
  5.011536E+03
  4.985773E+03
  4.960009E+03
  4.934089E+03
  4.906248E+03
  4.878408E+03
  4.850464E+03
  4.820438E+03
  4.790413E+03
  4.759996E+03
  4.727674E+03
  4.695352E+03
  4.661973E+03
  4.627237E+03
  4.592502E+03
  4.555632E+03
  4.518361E+03
  4.480090E+03
  4.440159E+03
  4.400136E+03
  4.357412E+03
  4.314689E+03
  4.269604E+03
  4.223955E+03
  4.176187E+03
  4.127479E+03
  4.076594E+03
  4.024701E+03
  3.970259E+03
  3.915079E+03
  3.856671E+03
  3.797330E+03
  3.735433E+03
  3.671538E+03
  3.606173E+03
  3.537767E+03
  3.467598E+03
  3.395608E+03
  3.321145E+03
  3.244197E+03
  3.164980E+03
  3.083170E+03
  2.998500E+03
  2.911101E+03
  2.821764E+03
  2.732421E+03
  2.661649E+03
  2.648763E+03
  2.595994E+03
  2.471292E+03
  3.156725E+03
  6.977385E+02
  2.866903E-05
  2.523125E+02
  2.522977E+02
  2.522828E+02
  2.522679E+02
  2.522530E+02
  2.522381E+02
  2.522233E+02
  2.522084E+02
  2.521935E+02
  2.521870E+02
  2.521808E+02
  2.521746E+02
  2.521683E+02
  2.521621E+02
  2.521558E+02
  2.521496E+02
  2.521668E+02
  2.522271E+02
  2.522874E+02
  2.523477E+02
  2.524080E+02
  2.524683E+02
  2.525286E+02
  2.525949E+02
  2.527089E+02
  2.528229E+02
  2.529370E+02
  2.530510E+02
  2.531651E+02
  2.532791E+02
  2.533962E+02
  2.535237E+02
  2.536512E+02
  2.537786E+02
  2.539061E+02
  2.540335E+02
  2.541610E+02
  2.542940E+02
  2.544293E+02
  2.545647E+02
  2.547000E+02
  2.548354E+02
  2.549707E+02
  2.551134E+02
  2.552638E+02
  2.554142E+02
  2.555645E+02
  2.557149E+02
  2.558653E+02
  2.560245E+02
  2.561899E+02
  2.563553E+02
  2.565206E+02
  2.566860E+02
  2.568513E+02
  2.570280E+02
  2.572049E+02
  2.573817E+02
  2.575586E+02
  2.577354E+02
  2.579183E+02
  2.581043E+02
  2.582902E+02
  2.584762E+02
  2.586622E+02
  2.588525E+02
  2.590456E+02
  2.592387E+02
  2.594319E+02
  2.596250E+02
  2.598218E+02
  2.600196E+02
  2.602174E+02
  2.604152E+02
  2.606133E+02
  2.608128E+02
  2.610123E+02
  2.612118E+02
  2.614113E+02
  2.616095E+02
  2.618076E+02
  2.620056E+02
  2.622037E+02
  2.623981E+02
  2.625915E+02
  2.627850E+02
  2.629784E+02
  2.631650E+02
  2.633505E+02
  2.635360E+02
  2.637198E+02
  2.638941E+02
  2.640685E+02
  2.642428E+02
  2.644082E+02
  2.645681E+02
  2.647280E+02
  2.648833E+02
  2.650258E+02
  2.651683E+02
  2.653093E+02
  2.654318E+02
  2.655542E+02
  2.656756E+02
  2.657759E+02
  2.658762E+02
  2.659725E+02
  2.660491E+02
  2.661258E+02
  2.661919E+02
  2.662443E+02
  2.662968E+02
  2.663291E+02
  2.663577E+02
  2.663778E+02
  2.663840E+02
  2.663896E+02
  2.663764E+02
  2.663631E+02
  2.663381E+02
  2.663103E+02
  2.662774E+02
  2.662422E+02
  2.662099E+02
  2.661789E+02
  2.661655E+02
  2.661572E+02
  2.662000E+02
  2.662693E+02
  2.664157E+02
  2.666670E+02
  2.670007E+02
  2.675942E+02
  2.684169E+02
  2.695037E+02
  2.710464E+02
  2.731858E+02
  2.759389E+02
  2.794480E+02
  2.839159E+02
  2.896800E+02
  2.972621E+02
  3.074754E+02
  3.244700E+02
  3.563803E+02
  3.858188E+02
  4.085075E+02
  5.632411E+02
 -1.357098E+01
  3.498119E-04
  1.380415E+03
  1.380344E+03
  1.380274E+03
  1.380203E+03
  1.380133E+03
  1.380062E+03
  1.379992E+03
  1.379921E+03
  1.379850E+03
  1.379682E+03
  1.379512E+03
  1.379342E+03
  1.379171E+03
  1.379001E+03
  1.378830E+03
  1.378660E+03
  1.378476E+03
  1.378270E+03
  1.378063E+03
  1.377856E+03
  1.377649E+03
  1.377443E+03
  1.377236E+03
  1.377024E+03
  1.376768E+03
  1.376513E+03
  1.376257E+03
  1.376001E+03
  1.375746E+03
  1.375490E+03
  1.375215E+03
  1.374873E+03
  1.374532E+03
  1.374190E+03
  1.373849E+03
  1.373507E+03
  1.373166E+03
  1.372755E+03
  1.372314E+03
  1.371873E+03
  1.371432E+03
  1.370992E+03
  1.370551E+03
  1.370060E+03
  1.369518E+03
  1.368975E+03
  1.368433E+03
  1.367890E+03
  1.367348E+03
  1.366741E+03
  1.366090E+03
  1.365438E+03
  1.364787E+03
  1.364136E+03
  1.363484E+03
  1.362715E+03
  1.361944E+03
  1.361173E+03
  1.360402E+03
  1.359631E+03
  1.358773E+03
  1.357871E+03
  1.356969E+03
  1.356066E+03
  1.355164E+03
  1.354175E+03
  1.353130E+03
  1.352084E+03
  1.351038E+03
  1.349992E+03
  1.348820E+03
  1.347615E+03
  1.346411E+03
  1.345207E+03
  1.343961E+03
  1.342581E+03
  1.341201E+03
  1.339821E+03
  1.338441E+03
  1.336885E+03
  1.335310E+03
  1.333735E+03
  1.332159E+03
  1.330415E+03
  1.328622E+03
  1.326830E+03
  1.325038E+03
  1.323036E+03
  1.321003E+03
  1.318969E+03
  1.316896E+03
  1.314594E+03
  1.312293E+03
  1.309992E+03
  1.307507E+03
  1.304909E+03
  1.302311E+03
  1.299627E+03
  1.296701E+03
  1.293775E+03
  1.290822E+03
  1.287535E+03
  1.284247E+03
  1.280941E+03
  1.277257E+03
  1.273572E+03
  1.269813E+03
  1.265694E+03
  1.261574E+03
  1.257247E+03
  1.252653E+03
  1.248058E+03
  1.243029E+03
  1.237918E+03
  1.232597E+03
  1.226926E+03
  1.221235E+03
  1.214959E+03
  1.208683E+03
  1.201881E+03
  1.194954E+03
  1.187546E+03
  1.179924E+03
  1.171804E+03
  1.163452E+03
  1.154520E+03
  1.145420E+03
  1.135608E+03
  1.125602E+03
  1.115072E+03
  1.104179E+03
  1.093026E+03
  1.081425E+03
  1.069633E+03
  1.057661E+03
  1.045506E+03
  1.033216E+03
  1.020784E+03
  1.008152E+03
  9.953072E+02
  9.825062E+02
  9.705923E+02
  9.614722E+02
  9.661429E+02
  1.007890E+03
  1.039873E+03
  1.023514E+03
  1.365916E+03
  1.669076E+02
  2.065724E-11
  1.177353E+00
  1.177228E+00
  1.177104E+00
  1.176980E+00
  1.176856E+00
  1.176732E+00
  1.176608E+00
  1.176484E+00
  1.176360E+00
  1.176000E+00
  1.175635E+00
  1.175269E+00
  1.174904E+00
  1.174538E+00
  1.174172E+00
  1.173807E+00
  1.173366E+00
  1.172789E+00
  1.172212E+00
  1.171635E+00
  1.171057E+00
  1.170480E+00
  1.169903E+00
  1.169302E+00
  1.168517E+00
  1.167732E+00
  1.166946E+00
  1.166161E+00
  1.165376E+00
  1.164590E+00
  1.163754E+00
  1.162750E+00
  1.161746E+00
  1.160741E+00
  1.159737E+00
  1.158733E+00
  1.157729E+00
  1.156566E+00
  1.155335E+00
  1.154104E+00
  1.152872E+00
  1.151641E+00
  1.150410E+00
  1.149065E+00
  1.147602E+00
  1.146139E+00
  1.144676E+00
  1.143212E+00
  1.141749E+00
  1.140146E+00
  1.138444E+00
  1.136742E+00
  1.135041E+00
  1.133339E+00
  1.131638E+00
  1.129693E+00
  1.127745E+00
  1.125797E+00
  1.123848E+00
  1.121900E+00
  1.119783E+00
  1.117578E+00
  1.115374E+00
  1.113169E+00
  1.110965E+00
  1.108599E+00
  1.106128E+00
  1.103657E+00
  1.101186E+00
  1.098715E+00
  1.096022E+00
  1.093273E+00
  1.090523E+00
  1.087774E+00
  1.084956E+00
  1.081916E+00
  1.078875E+00
  1.075835E+00
  1.072794E+00
  1.069479E+00
  1.066133E+00
  1.062787E+00
  1.059441E+00
  1.055844E+00
  1.052177E+00
  1.048510E+00
  1.044843E+00
  1.040884E+00
  1.036880E+00
  1.032876E+00
  1.028819E+00
  1.024460E+00
  1.020101E+00
  1.015742E+00
  1.011153E+00
  1.006421E+00
  1.001689E+00
  9.968537E-01
  9.917290E-01
  9.866043E-01
  9.814484E-01
  9.759106E-01
  9.703728E-01
  9.648143E-01
  9.588420E-01
  9.528697E-01
  9.468192E-01
  9.403900E-01
  9.339608E-01
  9.273213E-01
  9.204120E-01
  9.135027E-01
  9.061688E-01
  8.987553E-01
  8.911428E-01
  8.831999E-01
  8.752388E-01
  8.667406E-01
  8.582424E-01
  8.492746E-01
  8.401944E-01
  8.306928E-01
  8.210042E-01
  8.108825E-01
  8.005605E-01
  7.897314E-01
  7.787553E-01
  7.671373E-01
  7.553336E-01
  7.430216E-01
  7.303121E-01
  7.173104E-01
  7.037035E-01
  6.897460E-01
  6.754264E-01
  6.606148E-01
  6.453089E-01
  6.295519E-01
  6.132788E-01
  5.964370E-01
  5.790523E-01
  5.612821E-01
  5.435107E-01
  5.294334E-01
  5.268702E-01
  5.163738E-01
  4.915690E-01
  6.279097E-01
  1.387884E-01
  5.702607E-09
  9.590174E-01
  9.589609E-01
  9.589043E-01
  9.588477E-01
  9.587912E-01
  9.587346E-01
  9.586781E-01
  9.586215E-01
  9.585650E-01
  9.585405E-01
  9.585167E-01
  9.584930E-01
  9.584693E-01
  9.584455E-01
  9.584218E-01
  9.583981E-01
  9.584636E-01
  9.586928E-01
  9.589219E-01
  9.591511E-01
  9.593803E-01
  9.596095E-01
  9.598386E-01
  9.600905E-01
  9.605239E-01
  9.609574E-01
  9.613909E-01
  9.618243E-01
  9.622578E-01
  9.626912E-01
  9.631365E-01
  9.636210E-01
  9.641054E-01
  9.645899E-01
  9.650744E-01
  9.655588E-01
  9.660433E-01
  9.665486E-01
  9.670631E-01
  9.675775E-01
  9.680920E-01
  9.686064E-01
  9.691209E-01
  9.696632E-01
  9.702348E-01
  9.708064E-01
  9.713780E-01
  9.719496E-01
  9.725213E-01
  9.731264E-01
  9.737549E-01
  9.743834E-01
  9.750120E-01
  9.756405E-01
  9.762690E-01
  9.769406E-01
  9.776128E-01
  9.782850E-01
  9.789572E-01
  9.796294E-01
  9.803245E-01
  9.810313E-01
  9.817382E-01
  9.824450E-01
  9.831519E-01
  9.838751E-01
  9.846092E-01
  9.853433E-01
  9.860773E-01
  9.868114E-01
  9.875596E-01
  9.883113E-01
  9.890631E-01
  9.898148E-01
  9.905681E-01
  9.913263E-01
  9.920845E-01
  9.928428E-01
  9.936010E-01
  9.943544E-01
  9.951072E-01
  9.958600E-01
  9.966128E-01
  9.973518E-01
  9.980870E-01
  9.988222E-01
  9.995574E-01
  1.000266E+00
  1.000972E+00
  1.001677E+00
  1.002376E+00
  1.003038E+00
  1.003701E+00
  1.004363E+00
  1.004992E+00
  1.005600E+00
  1.006207E+00
  1.006798E+00
  1.007339E+00
  1.007881E+00
  1.008417E+00
  1.008882E+00
  1.009348E+00
  1.009809E+00
  1.010191E+00
  1.010572E+00
  1.010938E+00
  1.011229E+00
  1.011520E+00
  1.011772E+00
  1.011971E+00
  1.012170E+00
  1.012293E+00
  1.012402E+00
  1.012478E+00
  1.012502E+00
  1.012523E+00
  1.012473E+00
  1.012423E+00
  1.012327E+00
  1.012222E+00
  1.012097E+00
  1.011963E+00
  1.011840E+00
  1.011722E+00
  1.011671E+00
  1.011640E+00
  1.011803E+00
  1.012066E+00
  1.012622E+00
  1.013577E+00
  1.014846E+00
  1.017102E+00
  1.020229E+00
  1.024360E+00
  1.030223E+00
  1.038355E+00
  1.048819E+00
  1.062157E+00
  1.079139E+00
  1.101048E+00
  1.129867E+00
  1.168687E+00
  1.233281E+00
  1.354570E+00
  1.466463E+00
  1.552700E+00
  2.140829E+00
 -5.158206E-02
  1.329604E-06
  1.078924E+00
  1.078869E+00
  1.078814E+00
  1.078759E+00
  1.078703E+00
  1.078648E+00
  1.078593E+00
  1.078538E+00
  1.078483E+00
  1.078352E+00
  1.078218E+00
  1.078085E+00
  1.077952E+00
  1.077819E+00
  1.077685E+00
  1.077552E+00
  1.077409E+00
  1.077247E+00
  1.077086E+00
  1.076924E+00
  1.076763E+00
  1.076601E+00
  1.076439E+00
  1.076273E+00
  1.076074E+00
  1.075874E+00
  1.075674E+00
  1.075475E+00
  1.075275E+00
  1.075075E+00
  1.074860E+00
  1.074593E+00
  1.074326E+00
  1.074059E+00
  1.073792E+00
  1.073525E+00
  1.073258E+00
  1.072937E+00
  1.072593E+00
  1.072248E+00
  1.071903E+00
  1.071559E+00
  1.071214E+00
  1.070831E+00
  1.070407E+00
  1.069983E+00
  1.069559E+00
  1.069135E+00
  1.068711E+00
  1.068237E+00
  1.067728E+00
  1.067218E+00
  1.066709E+00
  1.066200E+00
  1.065691E+00
  1.065090E+00
  1.064487E+00
  1.063885E+00
  1.063282E+00
  1.062679E+00
  1.062009E+00
  1.061304E+00
  1.060599E+00
  1.059893E+00
  1.059188E+00
  1.058415E+00
  1.057598E+00
  1.056781E+00
  1.055963E+00
  1.055146E+00
  1.054229E+00
  1.053288E+00
  1.052347E+00
  1.051405E+00
  1.050432E+00
  1.049353E+00
  1.048275E+00
  1.047196E+00
  1.046117E+00
  1.044901E+00
  1.043670E+00
  1.042439E+00
  1.041208E+00
  1.039844E+00
  1.038443E+00
  1.037042E+00
  1.035642E+00
  1.034077E+00
  1.032488E+00
  1.030899E+00
  1.029278E+00
  1.027479E+00
  1.025680E+00
  1.023882E+00
  1.021940E+00
  1.019909E+00
  1.017879E+00
  1.015781E+00
  1.013494E+00
  1.011207E+00
  1.008899E+00
  1.006329E+00
  1.003760E+00
  1.001176E+00
  9.982962E-01
  9.954165E-01
  9.924785E-01
  9.892588E-01
  9.860390E-01
  9.826566E-01
  9.790658E-01
  9.754749E-01
  9.715441E-01
  9.675495E-01
  9.633904E-01
  9.589580E-01
  9.545101E-01
  9.496046E-01
  9.446991E-01
  9.393830E-01
  9.339687E-01
  9.281787E-01
  9.222218E-01
  9.158748E-01
  9.093474E-01
  9.023662E-01
  8.952535E-01
  8.875845E-01
  8.797641E-01
  8.715332E-01
  8.630198E-01
  8.543028E-01
  8.452356E-01
  8.360189E-01
  8.266614E-01
  8.171614E-01
  8.075557E-01
  7.978390E-01
  7.879659E-01
  7.779262E-01
  7.679210E-01
  7.586091E-01
  7.514809E-01
  7.551315E-01
  7.877610E-01
  8.127585E-01
  7.999722E-01
  1.067591E+00
  1.304540E-01
  1.614558E-14
  5.292453E-01
  5.291895E-01
  5.291338E-01
  5.290780E-01
  5.290222E-01
  5.289665E-01
  5.289107E-01
  5.288549E-01
  5.287992E-01
  5.286375E-01
  5.284731E-01
  5.283088E-01
  5.281444E-01
  5.279801E-01
  5.278157E-01
  5.276514E-01
  5.274535E-01
  5.271940E-01
  5.269345E-01
  5.266750E-01
  5.264155E-01
  5.261560E-01
  5.258965E-01
  5.256266E-01
  5.252736E-01
  5.249205E-01
  5.245675E-01
  5.242145E-01
  5.238614E-01
  5.235084E-01
  5.231326E-01
  5.226812E-01
  5.222297E-01
  5.217782E-01
  5.213268E-01
  5.208753E-01
  5.204239E-01
  5.199014E-01
  5.193479E-01
  5.187944E-01
  5.182409E-01
  5.176874E-01
  5.171339E-01
  5.165296E-01
  5.158718E-01
  5.152141E-01
  5.145563E-01
  5.138985E-01
  5.132407E-01
  5.125200E-01
  5.117551E-01
  5.109902E-01
  5.102253E-01
  5.094604E-01
  5.086955E-01
  5.078214E-01
  5.069456E-01
  5.060698E-01
  5.051941E-01
  5.043183E-01
  5.033663E-01
  5.023754E-01
  5.013845E-01
  5.003935E-01
  4.994026E-01
  4.983393E-01
  4.972285E-01
  4.961177E-01
  4.950070E-01
  4.938962E-01
  4.926854E-01
  4.914496E-01
  4.902137E-01
  4.889779E-01
  4.877112E-01
  4.863444E-01
  4.849776E-01
  4.836108E-01
  4.822440E-01
  4.807537E-01
  4.792495E-01
  4.777454E-01
  4.762413E-01
  4.746246E-01
  4.729763E-01
  4.713280E-01
  4.696796E-01
  4.678998E-01
  4.660999E-01
  4.642999E-01
  4.624762E-01
  4.605168E-01
  4.585574E-01
  4.565980E-01
  4.545350E-01
  4.524078E-01
  4.502807E-01
  4.481072E-01
  4.458035E-01
  4.434998E-01
  4.411822E-01
  4.386928E-01
  4.362034E-01
  4.337048E-01
  4.310201E-01
  4.283354E-01
  4.256156E-01
  4.227255E-01
  4.198355E-01
  4.168508E-01
  4.137450E-01
  4.106391E-01
  4.073424E-01
  4.040098E-01
  4.005878E-01
  3.970174E-01
  3.934387E-01
  3.896185E-01
  3.857984E-01
  3.817672E-01
  3.776855E-01
  3.734143E-01
  3.690590E-01
  3.645091E-01
  3.598692E-01
  3.550012E-01
  3.500673E-01
  3.448447E-01
  3.395387E-01
  3.340042E-01
  3.282910E-01
  3.224464E-01
  3.163298E-01
  3.100557E-01
  3.036187E-01
  2.969606E-01
  2.900803E-01
  2.829971E-01
  2.756820E-01
  2.681112E-01
  2.602964E-01
  2.523084E-01
  2.443198E-01
  2.379917E-01
  2.368395E-01
  2.321211E-01
  2.209708E-01
  2.822589E-01
  8.562833E-02
  6.229057E-04
  2.256056E-02
  2.255923E-02
  2.255790E-02
  2.255657E-02
  2.255523E-02
  2.255390E-02
  2.255257E-02
  2.255124E-02
  2.254991E-02
  2.254934E-02
  2.254878E-02
  2.254822E-02
  2.254766E-02
  2.254710E-02
  2.254655E-02
  2.254599E-02
  2.254753E-02
  2.255292E-02
  2.255831E-02
  2.256370E-02
  2.256909E-02
  2.257448E-02
  2.257988E-02
  2.258580E-02
  2.259600E-02
  2.260619E-02
  2.261639E-02
  2.262659E-02
  2.263678E-02
  2.264698E-02
  2.265746E-02
  2.266885E-02
  2.268025E-02
  2.269165E-02
  2.270304E-02
  2.271444E-02
  2.272584E-02
  2.273773E-02
  2.274983E-02
  2.276193E-02
  2.277403E-02
  2.278614E-02
  2.279824E-02
  2.281099E-02
  2.282444E-02
  2.283789E-02
  2.285134E-02
  2.286478E-02
  2.287823E-02
  2.289246E-02
  2.290725E-02
  2.292204E-02
  2.293682E-02
  2.295161E-02
  2.296639E-02
  2.298219E-02
  2.299801E-02
  2.301382E-02
  2.302963E-02
  2.304545E-02
  2.306180E-02
  2.307843E-02
  2.309505E-02
  2.311168E-02
  2.312831E-02
  2.314533E-02
  2.316259E-02
  2.317986E-02
  2.319713E-02
  2.321440E-02
  2.323200E-02
  2.324969E-02
  2.326737E-02
  2.328505E-02
  2.330277E-02
  2.332061E-02
  2.333845E-02
  2.335629E-02
  2.337412E-02
  2.339185E-02
  2.340956E-02
  2.342727E-02
  2.344497E-02
  2.346236E-02
  2.347966E-02
  2.349695E-02
  2.351424E-02
  2.353093E-02
  2.354752E-02
  2.356410E-02
  2.358054E-02
  2.359613E-02
  2.361171E-02
  2.362730E-02
  2.364209E-02
  2.365639E-02
  2.367068E-02
  2.368457E-02
  2.369731E-02
  2.371006E-02
  2.372266E-02
  2.373361E-02
  2.374456E-02
  2.375542E-02
  2.376439E-02
  2.377336E-02
  2.378196E-02
  2.378882E-02
  2.379567E-02
  2.380158E-02
  2.380627E-02
  2.381096E-02
  2.381385E-02
  2.381640E-02
  2.381821E-02
  2.381876E-02
  2.381926E-02
  2.381807E-02
  2.381689E-02
  2.381466E-02
  2.381217E-02
  2.380923E-02
  2.380608E-02
  2.380319E-02
  2.380042E-02
  2.379922E-02
  2.379848E-02
  2.380231E-02
  2.380850E-02
  2.382159E-02
  2.384406E-02
  2.387390E-02
  2.392697E-02
  2.400053E-02
  2.409771E-02
  2.423565E-02
  2.442694E-02
  2.467311E-02
  2.498688E-02
  2.538637E-02
  2.590177E-02
  2.657972E-02
  2.749295E-02
  2.901252E-02
  3.186579E-02
  3.449803E-02
  3.652675E-02
  5.036227E-02
 -1.665466E-03
  7.600531E-03
  1.234300E-01
  1.234236E-01
  1.234173E-01
  1.234110E-01
  1.234047E-01
  1.233984E-01
  1.233921E-01
  1.233858E-01
  1.233795E-01
  1.233645E-01
  1.233492E-01
  1.233340E-01
  1.233188E-01
  1.233035E-01
  1.232883E-01
  1.232730E-01
  1.232566E-01
  1.232382E-01
  1.232197E-01
  1.232012E-01
  1.231827E-01
  1.231642E-01
  1.231457E-01
  1.231267E-01
  1.231039E-01
  1.230810E-01
  1.230582E-01
  1.230353E-01
  1.230125E-01
  1.229896E-01
  1.229650E-01
  1.229345E-01
  1.229039E-01
  1.228734E-01
  1.228429E-01
  1.228123E-01
  1.227818E-01
  1.227451E-01
  1.227056E-01
  1.226662E-01
  1.226268E-01
  1.225874E-01
  1.225480E-01
  1.225041E-01
  1.224556E-01
  1.224071E-01
  1.223586E-01
  1.223101E-01
  1.222616E-01
  1.222073E-01
  1.221491E-01
  1.220908E-01
  1.220326E-01
  1.219744E-01
  1.219161E-01
  1.218473E-01
  1.217784E-01
  1.217094E-01
  1.216405E-01
  1.215716E-01
  1.214949E-01
  1.214142E-01
  1.213335E-01
  1.212529E-01
  1.211722E-01
  1.210838E-01
  1.209902E-01
  1.208967E-01
  1.208032E-01
  1.207097E-01
  1.206049E-01
  1.204972E-01
  1.203895E-01
  1.202818E-01
  1.201704E-01
  1.200470E-01
  1.199236E-01
  1.198002E-01
  1.196768E-01
  1.195378E-01
  1.193969E-01
  1.192560E-01
  1.191152E-01
  1.189592E-01
  1.187989E-01
  1.186387E-01
  1.184784E-01
  1.182995E-01
  1.181176E-01
  1.179358E-01
  1.177504E-01
  1.175446E-01
  1.173389E-01
  1.171331E-01
  1.169109E-01
  1.166786E-01
  1.164463E-01
  1.162063E-01
  1.159447E-01
  1.156831E-01
  1.154190E-01
  1.151251E-01
  1.148311E-01
  1.145355E-01
  1.142061E-01
  1.138766E-01
  1.135405E-01
  1.131722E-01
  1.128038E-01
  1.124169E-01
  1.120061E-01
  1.115953E-01
  1.111456E-01
  1.106886E-01
  1.102128E-01
  1.097057E-01
  1.091969E-01
  1.086357E-01
  1.080745E-01
  1.074663E-01
  1.068469E-01
  1.061846E-01
  1.055031E-01
  1.047770E-01
  1.040302E-01
  1.032316E-01
  1.024179E-01
  1.015405E-01
  1.006459E-01
  9.970426E-02
  9.873031E-02
  9.773308E-02
  9.669579E-02
  9.564138E-02
  9.457088E-02
  9.348407E-02
  9.238516E-02
  9.127356E-02
  9.014408E-02
  8.899552E-02
  8.785092E-02
  8.678563E-02
  8.597015E-02
  8.638778E-02
  9.012063E-02
  9.298037E-02
  9.151760E-02
  1.221335E-01
  2.048334E-02
  4.488298E-10
  5.292338E-01
  5.291780E-01
  5.291223E-01
  5.290665E-01
  5.290108E-01
  5.289550E-01
  5.288993E-01
  5.288436E-01
  5.287878E-01
  5.286262E-01
  5.284619E-01
  5.282976E-01
  5.281333E-01
  5.279691E-01
  5.278048E-01
  5.276405E-01
  5.274427E-01
  5.271833E-01
  5.269239E-01
  5.266646E-01
  5.264052E-01
  5.261458E-01
  5.258865E-01
  5.256167E-01
  5.252639E-01