 Title= "ADflow Lift Distribution Data"
Variables = "eta" "CoordinateX" "CoordinateY" "CoordinateZ" "Lift" "Drag" "Moment" "Normalized Lift" "Normalized Drag" "Normalized Moment" "CL" "CD" "CM" "CLp" "CDp" "CMp" "CLv" "CDv" "CMv" "Elliptical" "thickness" "twist" "chord" "fx" "fy" "fz" 
Zone T= "LiftDist_01 allWalls: : z normal"
 I=          150
 DATAPACKING=BLOCK
  0.000000E+00
  6.711405E-03
  1.342281E-02
  2.013422E-02
  2.684563E-02
  3.355704E-02
  4.026845E-02
  4.697986E-02
  5.369127E-02
  6.040268E-02
  6.711409E-02
  7.382550E-02
  8.053691E-02
  8.724832E-02
  9.395973E-02
  1.006711E-01
  1.073825E-01
  1.140940E-01
  1.208054E-01
  1.275168E-01
  1.342282E-01
  1.409396E-01
  1.476510E-01
  1.543624E-01
  1.610738E-01
  1.677852E-01
  1.744966E-01
  1.812081E-01
  1.879195E-01
  1.946309E-01
  2.013423E-01
  2.080537E-01
  2.147651E-01
  2.214765E-01
  2.281879E-01
  2.348993E-01
  2.416107E-01
  2.483221E-01
  2.550336E-01
  2.617450E-01
  2.684564E-01
  2.751678E-01
  2.818792E-01
  2.885906E-01
  2.953020E-01
  3.020134E-01
  3.087248E-01
  3.154362E-01
  3.221476E-01
  3.288591E-01
  3.355705E-01
  3.422819E-01
  3.489933E-01
  3.557047E-01
  3.624161E-01
  3.691275E-01
  3.758389E-01
  3.825503E-01
  3.892617E-01
  3.959732E-01
  4.026846E-01
  4.093960E-01
  4.161074E-01
  4.228188E-01
  4.295302E-01
  4.362416E-01
  4.429530E-01
  4.496644E-01
  4.563758E-01
  4.630872E-01
  4.697987E-01
  4.765101E-01
  4.832215E-01
  4.899329E-01
  4.966443E-01
  5.033557E-01
  5.100671E-01
  5.167785E-01
  5.234899E-01
  5.302013E-01
  5.369128E-01
  5.436242E-01
  5.503356E-01
  5.570470E-01
  5.637584E-01
  5.704698E-01
  5.771812E-01
  5.838926E-01
  5.906040E-01
  5.973154E-01
  6.040268E-01
  6.107383E-01
  6.174497E-01
  6.241611E-01
  6.308725E-01
  6.375839E-01
  6.442953E-01
  6.510067E-01
  6.577181E-01
  6.644295E-01
  6.711409E-01
  6.778524E-01
  6.845638E-01
  6.912752E-01
  6.979866E-01
  7.046980E-01
  7.114094E-01
  7.181208E-01
  7.248322E-01
  7.315436E-01
  7.382550E-01
  7.449664E-01
  7.516779E-01
  7.583893E-01
  7.651007E-01
  7.718121E-01
  7.785235E-01
  7.852349E-01
  7.919463E-01
  7.986577E-01
  8.053691E-01
  8.120805E-01
  8.187919E-01
  8.255034E-01
  8.322148E-01
  8.389262E-01
  8.456376E-01
  8.523490E-01
  8.590604E-01
  8.657718E-01
  8.724832E-01
  8.791946E-01
  8.859060E-01
  8.926175E-01
  8.993289E-01
  9.060403E-01
  9.127517E-01
  9.194631E-01
  9.261745E-01
  9.328859E-01
  9.395973E-01
  9.463087E-01
  9.530201E-01
  9.597315E-01
  9.664430E-01
  9.731544E-01
  9.798658E-01
  9.865772E-01
  9.932886E-01
  1.000000E+00
  0.000000E+00
  0.000000E+00
  0.000000E+00
  0.000000E+00
  0.000000E+00
  0.000000E+00
  0.000000E+00
  0.000000E+00
  0.000000E+00
  0.000000E+00
  0.000000E+00
  0.000000E+00
  0.000000E+00
  0.000000E+00
  0.000000E+00
  0.000000E+00
  0.000000E+00
  0.000000E+00
  0.000000E+00
  0.000000E+00
  0.000000E+00
  0.000000E+00
  0.000000E+00
  0.000000E+00
  0.000000E+00
  0.000000E+00
  0.000000E+00
  0.000000E+00
  0.000000E+00
  0.000000E+00
  0.000000E+00
  0.000000E+00
  0.000000E+00
  0.000000E+00
  0.000000E+00
  0.000000E+00
  0.000000E+00
  0.000000E+00
  0.000000E+00
  0.000000E+00
  0.000000E+00
  0.000000E+00
  0.000000E+00
  0.000000E+00
  0.000000E+00
  0.000000E+00
  0.000000E+00
  0.000000E+00
  0.000000E+00
  0.000000E+00
  0.000000E+00
  0.000000E+00
  0.000000E+00
  0.000000E+00
  0.000000E+00
  0.000000E+00
  0.000000E+00
  0.000000E+00
  0.000000E+00
  0.000000E+00
  0.000000E+00
  0.000000E+00
  0.000000E+00
  0.000000E+00
  0.000000E+00
  0.000000E+00
  0.000000E+00
  0.000000E+00
  0.000000E+00
  0.000000E+00
  0.000000E+00
  0.000000E+00
  0.000000E+00
  0.000000E+00
  0.000000E+00
  0.000000E+00
  0.000000E+00
  0.000000E+00
  0.000000E+00
  0.000000E+00
  0.000000E+00
  0.000000E+00
  0.000000E+00
  0.000000E+00
  0.000000E+00
  0.000000E+00
  0.000000E+00
  0.000000E+00
  0.000000E+00
  0.000000E+00
  0.000000E+00
  0.000000E+00
  0.000000E+00
  0.000000E+00
  0.000000E+00
  0.000000E+00
  0.000000E+00
  0.000000E+00
  0.000000E+00
  0.000000E+00
  0.000000E+00
  0.000000E+00
  0.000000E+00
  0.000000E+00
  0.000000E+00
  0.000000E+00
  0.000000E+00
  0.000000E+00
  0.000000E+00
  0.000000E+00
  0.000000E+00
  0.000000E+00
  0.000000E+00
  0.000000E+00
  0.000000E+00
  0.000000E+00
  0.000000E+00
  0.000000E+00
  0.000000E+00
  0.000000E+00
  0.000000E+00
  0.000000E+00
  0.000000E+00
  0.000000E+00
  0.000000E+00
  0.000000E+00
  0.000000E+00
  0.000000E+00
  0.000000E+00
  0.000000E+00
  0.000000E+00
  0.000000E+00
  0.000000E+00
  0.000000E+00
  0.000000E+00
  0.000000E+00
  0.000000E+00
  0.000000E+00
  0.000000E+00
  0.000000E+00
  0.000000E+00
  0.000000E+00
  0.000000E+00
  0.000000E+00
  0.000000E+00
  0.000000E+00
  0.000000E+00
  0.000000E+00
  0.000000E+00
  0.000000E+00
  0.000000E+00
  0.000000E+00
  0.000000E+00
  0.000000E+00
  0.000000E+00
  0.000000E+00
  0.000000E+00
  0.000000E+00
  0.000000E+00
  0.000000E+00
  0.000000E+00
  0.000000E+00
  0.000000E+00
  0.000000E+00
  0.000000E+00
  0.000000E+00
  0.000000E+00
  0.000000E+00
  0.000000E+00
  0.000000E+00
  0.000000E+00
  0.000000E+00
  0.000000E+00
  0.000000E+00
  0.000000E+00
  0.000000E+00
  0.000000E+00
  0.000000E+00
  0.000000E+00
  0.000000E+00
  0.000000E+00
  0.000000E+00
  0.000000E+00
  0.000000E+00
  0.000000E+00
  0.000000E+00
  0.000000E+00
  0.000000E+00
  0.000000E+00
  0.000000E+00
  0.000000E+00
  0.000000E+00
  0.000000E+00
  0.000000E+00
  0.000000E+00
  0.000000E+00
  0.000000E+00
  0.000000E+00
  0.000000E+00
  0.000000E+00
  0.000000E+00
  0.000000E+00
  0.000000E+00
  0.000000E+00
  0.000000E+00
  0.000000E+00
  0.000000E+00
  0.000000E+00
  0.000000E+00
  0.000000E+00
  0.000000E+00
  0.000000E+00
  0.000000E+00
  0.000000E+00
  0.000000E+00
  0.000000E+00
  0.000000E+00
  0.000000E+00
  0.000000E+00
  0.000000E+00
  0.000000E+00
  0.000000E+00
  0.000000E+00
  0.000000E+00
  0.000000E+00
  0.000000E+00
  0.000000E+00
  0.000000E+00
  0.000000E+00
  0.000000E+00
  0.000000E+00
  0.000000E+00
  0.000000E+00
  0.000000E+00
  0.000000E+00
  0.000000E+00
  0.000000E+00
  0.000000E+00
  0.000000E+00
  0.000000E+00
  0.000000E+00
  0.000000E+00
  0.000000E+00
  0.000000E+00
  0.000000E+00
  0.000000E+00
  0.000000E+00
  0.000000E+00
  0.000000E+00
  0.000000E+00
  0.000000E+00
  0.000000E+00
  0.000000E+00
  0.000000E+00
  0.000000E+00
  0.000000E+00
  0.000000E+00
  0.000000E+00
  0.000000E+00
  0.000000E+00
  0.000000E+00
  0.000000E+00
  0.000000E+00
  0.000000E+00
  0.000000E+00
  0.000000E+00
  0.000000E+00
  0.000000E+00
  0.000000E+00
  0.000000E+00
  0.000000E+00
  0.000000E+00
  0.000000E+00
  0.000000E+00
  0.000000E+00
  0.000000E+00
  0.000000E+00
  0.000000E+00
  0.000000E+00
  0.000000E+00
  0.000000E+00
  0.000000E+00
  0.000000E+00
  0.000000E+00
  0.000000E+00
  0.000000E+00
  0.000000E+00
  0.000000E+00
  0.000000E+00
  0.000000E+00
  0.000000E+00
  0.000000E+00
  0.000000E+00
  0.000000E+00
  0.000000E+00
  0.000000E+00
  0.000000E+00
  0.000000E+00
  0.000000E+00
  0.000000E+00
  1.000000E-08
  1.695085E-02
  3.390169E-02
  5.085254E-02
  6.780338E-02
  8.475423E-02
  1.017051E-01
  1.186559E-01
  1.356068E-01
  1.525576E-01
  1.695085E-01
  1.864593E-01
  2.034101E-01
  2.203610E-01
  2.373118E-01
  2.542627E-01
  2.712135E-01
  2.881644E-01
  3.051152E-01
  3.220661E-01
  3.390169E-01
  3.559678E-01
  3.729186E-01
  3.898694E-01
  4.068203E-01
  4.237711E-01
  4.407220E-01
  4.576728E-01
  4.746237E-01
  4.915745E-01
  5.085254E-01
  5.254762E-01
  5.424271E-01
  5.593779E-01
  5.763287E-01
  5.932796E-01
  6.102304E-01
  6.271813E-01
  6.441321E-01
  6.610830E-01
  6.780338E-01
  6.949847E-01
  7.119355E-01
  7.288864E-01
  7.458372E-01
  7.627880E-01
  7.797389E-01
  7.966897E-01
  8.136406E-01
  8.305914E-01
  8.475423E-01
  8.644931E-01
  8.814440E-01
  8.983948E-01
  9.153457E-01
  9.322965E-01
  9.492473E-01
  9.661982E-01
  9.831490E-01
  1.000100E+00
  1.017051E+00
  1.034002E+00
  1.050952E+00
  1.067903E+00
  1.084854E+00
  1.101805E+00
  1.118756E+00
  1.135707E+00
  1.152657E+00
  1.169608E+00
  1.186559E+00
  1.203510E+00
  1.220461E+00
  1.237412E+00
  1.254363E+00
  1.271313E+00
  1.288264E+00
  1.305215E+00
  1.322166E+00
  1.339117E+00
  1.356068E+00
  1.373018E+00
  1.389969E+00
  1.406920E+00
  1.423871E+00
  1.440822E+00
  1.457773E+00
  1.474724E+00
  1.491674E+00
  1.508625E+00
  1.525576E+00
  1.542527E+00
  1.559478E+00
  1.576429E+00
  1.593379E+00
  1.610330E+00
  1.627281E+00
  1.644232E+00
  1.661183E+00
  1.678134E+00
  1.695085E+00
  1.712035E+00
  1.728986E+00
  1.745937E+00
  1.762888E+00
  1.779839E+00
  1.796790E+00
  1.813740E+00
  1.830691E+00
  1.847642E+00
  1.864593E+00
  1.881544E+00
  1.898495E+00
  1.915446E+00
  1.932396E+00
  1.949347E+00
  1.966298E+00
  1.983249E+00
  2.000200E+00
  2.017151E+00
  2.034101E+00
  2.051052E+00
  2.068003E+00
  2.084954E+00
  2.101905E+00
  2.118856E+00
  2.135807E+00
  2.152757E+00
  2.169708E+00
  2.186659E+00
  2.203610E+00
  2.220561E+00
  2.237512E+00
  2.254462E+00
  2.271413E+00
  2.288364E+00
  2.305315E+00
  2.322266E+00
  2.339217E+00
  2.356168E+00
  2.373118E+00
  2.390069E+00
  2.407020E+00
  2.423971E+00
  2.440922E+00
  2.457873E+00
  2.474823E+00
  2.491774E+00
  2.508725E+00
  2.525676E+00
  1.144404E+04
  1.144202E+04
  1.144001E+04
  1.143799E+04
  1.143598E+04
  1.143396E+04
  1.143194E+04
  1.142993E+04
  1.142791E+04
  1.142201E+04
  1.141600E+04
  1.141000E+04
  1.140400E+04
  1.139800E+04
  1.139200E+04
  1.138600E+04
  1.137869E+04
  1.136900E+04
  1.135931E+04
  1.134962E+04
  1.133992E+04
  1.133023E+04
  1.132054E+04
  1.131041E+04
  1.129680E+04
  1.128320E+04
  1.126959E+04
  1.125598E+04
  1.124237E+04
  1.122876E+04
  1.121414E+04
  1.119614E+04
  1.117814E+04
  1.116015E+04
  1.114215E+04
  1.112416E+04
  1.110616E+04
  1.108478E+04
  1.106193E+04
  1.103907E+04
  1.101622E+04
  1.099337E+04
  1.097051E+04
  1.094505E+04
  1.091682E+04
  1.088860E+04
  1.086037E+04
  1.083215E+04
  1.080393E+04
  1.077222E+04
  1.073805E+04
  1.070390E+04
  1.066974E+04
  1.063559E+04
  1.060144E+04
  1.056094E+04
  1.052035E+04
  1.047976E+04
  1.043918E+04
  1.039862E+04
  1.035358E+04
  1.030626E+04
  1.025895E+04
  1.021166E+04
  1.016438E+04
  1.011303E+04
  1.005901E+04
  1.000502E+04
  9.951039E+03
  9.897076E+03
  9.838075E+03
  9.777823E+03
  9.717587E+03
  9.657368E+03
  9.595921E+03
  9.530449E+03
  9.464992E+03
  9.399549E+03
  9.334122E+03
  9.265481E+03
  9.196495E+03
  9.127525E+03
  9.058570E+03
  8.988064E+03
  8.917134E+03
  8.846222E+03
  8.775328E+03
  8.703582E+03
  8.631722E+03
  8.559882E+03
  8.488038E+03
  8.416081E+03
  8.344144E+03
  8.272226E+03
  8.200427E+03
  8.128706E+03
  8.057004E+03
  7.985276E+03
  7.913446E+03
  7.841629E+03
  7.769795E+03
  7.697617E+03
  7.625449E+03
  7.553279E+03
  7.480919E+03
  7.408566E+03
  7.336177E+03
  7.263591E+03
  7.191009E+03
  7.118201E+03
  7.045101E+03
  6.972003E+03
  6.898175E+03
  6.824210E+03
  6.749779E+03
  6.674571E+03
  6.599310E+03
  6.522471E+03
  6.445631E+03
  6.367151E+03
  6.288279E+03
  6.207760E+03
  6.126509E+03
  6.043436E+03
  5.959518E+03
  5.873363E+03
  5.786558E+03
  5.696885E+03
  5.606373E+03
  5.513574E+03
  5.418944E+03
  5.322959E+03
  5.224064E+03
  5.123380E+03
  5.020831E+03
  4.915692E+03
  4.808097E+03
  4.698675E+03
  4.587963E+03
  4.477651E+03
  4.372282E+03
  4.281795E+03
  4.222372E+03
  4.228215E+03
  4.337578E+03
  4.315360E+03
  3.899377E+03
  4.447417E+03
  1.179536E+03
 -4.507500E-04
  6.940673E+02
  6.939842E+02
  6.939010E+02
  6.938179E+02
  6.937347E+02
  6.936516E+02
  6.935685E+02
  6.934854E+02
  6.934022E+02
  6.931642E+02
  6.929224E+02
  6.926805E+02
  6.924387E+02
  6.921969E+02
  6.919551E+02
  6.917133E+02
  6.914313E+02
  6.910757E+02
  6.907201E+02
  6.903645E+02
  6.900090E+02
  6.896534E+02
  6.892978E+02
  6.889227E+02
  6.883904E+02
  6.878581E+02
  6.873258E+02
  6.867935E+02
  6.862612E+02
  6.857289E+02
  6.851242E+02
  6.842787E+02
  6.834332E+02
  6.825877E+02
  6.817422E+02
  6.808967E+02
  6.800511E+02
  6.789291E+02
  6.776860E+02
  6.764429E+02
  6.751998E+02
  6.739568E+02
  6.727137E+02
  6.712503E+02
  6.695544E+02
  6.678587E+02
  6.661631E+02
  6.644678E+02
  6.627726E+02
  6.607738E+02
  6.585629E+02
  6.563527E+02
  6.541433E+02
  6.519347E+02
  6.497268E+02
  6.469377E+02
  6.441414E+02
  6.413472E+02
  6.385550E+02
  6.357649E+02
  6.325237E+02
  6.290537E+02
  6.255874E+02
  6.221249E+02
  6.186660E+02
  6.147385E+02
  6.105067E+02
  6.062808E+02
  6.020608E+02
  5.978465E+02
  5.929825E+02
  5.879630E+02
  5.829527E+02
  5.779515E+02
  5.727963E+02
  5.671234E+02
  5.614651E+02
  5.558216E+02
  5.501927E+02
  5.443577E+02
  5.385194E+02
  5.327031E+02
  5.269087E+02
  5.213263E+02
  5.158238E+02
  5.103482E+02
  5.048997E+02
  4.998929E+02
  4.949767E+02
  4.900879E+02
  4.853044E+02
  4.809878E+02
  4.766942E+02
  4.724236E+02
  4.684444E+02
  4.646481E+02
  4.608673E+02
  4.571492E+02
  4.535740E+02
  4.500064E+02
  4.464476E+02
  4.429046E+02
  4.393640E+02
  4.358312E+02
  4.324074E+02
  4.289833E+02
  4.256000E+02
  4.224153E+02
  4.192295E+02
  4.161773E+02
  4.132967E+02
  4.104150E+02
  4.078298E+02
  4.052997E+02
  4.029094E+02
  4.007519E+02
  3.986066E+02
  3.968241E+02
  3.950416E+02
  3.935697E+02
  3.921722E+02
  3.910541E+02
  3.900606E+02
  3.893639E+02
  3.888060E+02
  3.886112E+02
  3.885244E+02
  3.889290E+02
  3.894946E+02
  3.904980E+02
  3.919008E+02
  3.936077E+02
  3.960358E+02
  3.989775E+02
  4.024847E+02
  4.068713E+02
  4.123458E+02
  4.189959E+02
  4.272457E+02
  4.378527E+02
  4.522783E+02
  4.732197E+02
  5.049539E+02
  5.552660E+02
  6.317013E+02
  6.962833E+02
  7.056879E+02
  8.471500E+02
  1.667233E+02
  3.498600E-04
  1.942743E+03
  1.942406E+03
  1.942068E+03
  1.941731E+03
  1.941394E+03
  1.941057E+03
  1.940720E+03
  1.940383E+03
  1.940045E+03
  1.939085E+03
  1.938110E+03
  1.937134E+03
  1.936159E+03
  1.935183E+03
  1.934208E+03
  1.933232E+03
  1.932041E+03
  1.930455E+03
  1.928869E+03
  1.927283E+03
  1.925697E+03
  1.924111E+03
  1.922525E+03
  1.920849E+03
  1.918455E+03
  1.916061E+03
  1.913667E+03
  1.911273E+03
  1.908879E+03
  1.906485E+03
  1.903835E+03
  1.900334E+03
  1.896833E+03
  1.893332E+03
  1.889831E+03
  1.886330E+03
  1.882829E+03
  1.878335E+03
  1.873407E+03
  1.868479E+03
  1.863551E+03
  1.858623E+03
  1.853695E+03
  1.847877E+03
  1.841121E+03
  1.834364E+03
  1.827609E+03
  1.820853E+03
  1.814098E+03
  1.805994E+03
  1.796944E+03
  1.787896E+03
  1.778849E+03
  1.769804E+03
  1.760759E+03
  1.749096E+03
  1.737395E+03
  1.725697E+03
  1.714001E+03
  1.702309E+03
  1.688726E+03
  1.674179E+03
  1.659636E+03
  1.645098E+03
  1.630564E+03
  1.614242E+03
  1.596752E+03
  1.579268E+03
  1.561791E+03
  1.544321E+03
  1.524478E+03
  1.504048E+03
  1.483629E+03
  1.463219E+03
  1.442173E+03
  1.419040E+03
  1.395923E+03
  1.372820E+03
  1.349731E+03
  1.324867E+03
  1.299824E+03
  1.274801E+03
  1.249799E+03
  1.224177E+03
  1.198399E+03
  1.172646E+03
  1.146917E+03
  1.121483E+03
  1.096115E+03
  1.070773E+03
  1.045647E+03
  1.021642E+03
  9.976577E+02
  9.736950E+02
  9.511091E+02
  9.293786E+02
  9.076634E+02
  8.866984E+02
  8.678071E+02
  8.489248E+02
  8.302609E+02
  8.141739E+02
  7.980911E+02
  7.821248E+02
  7.684120E+02
  7.547008E+02
  7.413189E+02
  7.295261E+02
  7.177338E+02
  7.066139E+02
  6.963555E+02
  6.860971E+02
  6.768321E+02
  6.677532E+02
  6.589930E+02
  6.507621E+02
  6.425492E+02
  6.348682E+02
  6.271873E+02
  6.197861E+02
  6.124518E+02
  6.053156E+02
  5.982675E+02
  5.914195E+02
  5.846644E+02
  5.781667E+02
  5.717440E+02
  5.657360E+02
  5.598846E+02
  5.544765E+02
  5.495266E+02
  5.449245E+02
  5.412376E+02
  5.381834E+02
  5.358599E+02
  5.347114E+02
  5.351074E+02
  5.372992E+02
  5.421516E+02
  5.513535E+02
  5.684315E+02
  6.004018E+02
  6.587368E+02
  7.618294E+02
  9.255114E+02
  1.060560E+03
  1.030306E+03
  1.210658E+03
  1.748642E+02
 -4.119662E-10
  1.297394E+00
  1.297166E+00
  1.296937E+00
  1.296709E+00
  1.296480E+00
  1.296251E+00
  1.296023E+00
  1.295794E+00
  1.295566E+00
  1.294896E+00
  1.294216E+00
  1.293536E+00
  1.292855E+00
  1.292175E+00
  1.291494E+00
  1.290814E+00
  1.289986E+00
  1.288887E+00
  1.287788E+00
  1.286690E+00
  1.285591E+00
  1.284492E+00
  1.283393E+00
  1.282245E+00
  1.280702E+00
  1.279160E+00
  1.277617E+00
  1.276074E+00
  1.274531E+00
  1.272988E+00
  1.271331E+00
  1.269290E+00
  1.267250E+00
  1.265210E+00
  1.263170E+00
  1.261130E+00
  1.259089E+00
  1.256666E+00
  1.254075E+00
  1.251484E+00
  1.248893E+00
  1.246302E+00
  1.243711E+00
  1.240824E+00
  1.237624E+00
  1.234425E+00
  1.231225E+00
  1.228026E+00
  1.224826E+00
  1.221231E+00
  1.217358E+00
  1.213485E+00
  1.209613E+00
  1.205741E+00
  1.201870E+00
  1.197279E+00
  1.192676E+00
  1.188075E+00
  1.183475E+00
  1.178876E+00
  1.173770E+00
  1.168406E+00
  1.163042E+00
  1.157681E+00
  1.152321E+00
  1.146499E+00
  1.140376E+00
  1.134254E+00
  1.128135E+00
  1.122017E+00
  1.115328E+00
  1.108498E+00
  1.101669E+00
  1.094842E+00
  1.087876E+00
  1.080453E+00
  1.073032E+00
  1.065613E+00
  1.058196E+00
  1.050414E+00
  1.042593E+00
  1.034774E+00
  1.026957E+00
  1.018964E+00
  1.010923E+00
  1.002883E+00
  9.948463E-01
  9.867125E-01
  9.785659E-01
  9.704215E-01
  9.622766E-01
  9.541190E-01
  9.459635E-01
  9.378103E-01
  9.296705E-01
  9.215397E-01
  9.134109E-01
  9.052792E-01
  8.971360E-01
  8.889941E-01
  8.808504E-01
  8.726678E-01
  8.644861E-01
  8.563044E-01
  8.481010E-01
  8.398984E-01
  8.316918E-01
  8.234628E-01
  8.152344E-01
  8.069802E-01
  7.986930E-01
  7.904060E-01
  7.820361E-01
  7.736509E-01
  7.652127E-01
  7.566865E-01
  7.481543E-01
  7.394431E-01
  7.307319E-01
  7.218347E-01
  7.128931E-01
  7.037648E-01
  6.945535E-01
  6.851356E-01
  6.756219E-01
  6.658547E-01
  6.560138E-01
  6.458476E-01
  6.355865E-01
  6.250659E-01
  6.143379E-01
  6.034562E-01
  5.922446E-01
  5.808302E-01
  5.692043E-01
  5.572849E-01
  5.450871E-01
  5.326821E-01
  5.201307E-01
  5.076248E-01
  4.956794E-01
  4.854210E-01
  4.786842E-01
  4.793467E-01
  4.917449E-01
  4.892262E-01
  4.420667E-01
  5.041973E-01
  1.337223E-01
 -5.110088E-08
  1.240441E+00
  1.240293E+00
  1.240144E+00
  1.239995E+00
  1.239847E+00
  1.239698E+00
  1.239550E+00
  1.239401E+00
  1.239252E+00
  1.238827E+00
  1.238395E+00
  1.237963E+00
  1.237530E+00
  1.237098E+00
  1.236666E+00
  1.236234E+00
  1.235730E+00
  1.235095E+00
  1.234459E+00
  1.233824E+00
  1.233188E+00
  1.232553E+00
  1.231917E+00
  1.231247E+00
  1.230295E+00
  1.229344E+00
  1.228393E+00
  1.227441E+00
  1.226490E+00
  1.225539E+00
  1.224458E+00
  1.222947E+00
  1.221436E+00
  1.219925E+00
  1.218414E+00
  1.216902E+00
  1.215391E+00
  1.213386E+00
  1.211164E+00
  1.208943E+00
  1.206721E+00
  1.204499E+00
  1.202278E+00
  1.199662E+00
  1.196631E+00
  1.193601E+00
  1.190571E+00
  1.187541E+00
  1.184511E+00
  1.180939E+00
  1.176987E+00
  1.173037E+00
  1.169089E+00
  1.165141E+00
  1.161196E+00
  1.156211E+00
  1.151213E+00
  1.146219E+00
  1.141229E+00
  1.136243E+00
  1.130450E+00
  1.124248E+00
  1.118054E+00
  1.111865E+00
  1.105684E+00
  1.098664E+00
  1.091101E+00
  1.083549E+00
  1.076006E+00
  1.068475E+00
  1.059782E+00
  1.050811E+00
  1.041856E+00
  1.032918E+00
  1.023705E+00
  1.013566E+00
  1.003454E+00
  9.933676E-01
  9.833077E-01
  9.728791E-01
  9.624450E-01
  9.520500E-01
  9.416943E-01
  9.317174E-01
  9.218832E-01
  9.120973E-01
  9.023597E-01
  8.934114E-01
  8.846253E-01
  8.758880E-01
  8.673388E-01
  8.596243E-01
  8.519506E-01
  8.443182E-01
  8.372066E-01
  8.304217E-01
  8.236647E-01
  8.170198E-01
  8.106300E-01
  8.042541E-01
  7.978937E-01
  7.915617E-01
  7.852340E-01
  7.789201E-01
  7.728010E-01
  7.666814E-01
  7.606348E-01
  7.549431E-01
  7.492494E-01
  7.437944E-01
  7.386462E-01
  7.334961E-01
  7.288758E-01
  7.243539E-01
  7.200820E-01
  7.162262E-01
  7.123920E-01
  7.092063E-01
  7.060206E-01
  7.033901E-01
  7.008924E-01
  6.988941E-01
  6.971185E-01
  6.958735E-01
  6.948764E-01
  6.945281E-01
  6.943731E-01
  6.950962E-01
  6.961070E-01
  6.979003E-01
  7.004074E-01
  7.034580E-01
  7.077974E-01
  7.130550E-01
  7.193230E-01
  7.271628E-01
  7.369468E-01
  7.488320E-01
  7.635759E-01
  7.825329E-01
  8.083143E-01
  8.457411E-01
  9.024566E-01
  9.923746E-01
  1.128980E+00
  1.244402E+00
  1.261210E+00
  1.514031E+00
  2.979689E-01
  6.252719E-07
  1.477692E+00
  1.477435E+00
  1.477179E+00
  1.476922E+00
  1.476666E+00
  1.476409E+00
  1.476153E+00
  1.475896E+00
  1.475640E+00
  1.474910E+00
  1.474168E+00
  1.473426E+00
  1.472684E+00
  1.471942E+00
  1.471199E+00
  1.470457E+00
  1.469552E+00
  1.468345E+00
  1.467139E+00
  1.465932E+00
  1.464726E+00
  1.463520E+00
  1.462313E+00
  1.461039E+00
  1.459218E+00
  1.457397E+00
  1.455576E+00
  1.453755E+00
  1.451934E+00
  1.450113E+00
  1.448098E+00
  1.445435E+00
  1.442772E+00
  1.440109E+00
  1.437446E+00
  1.434783E+00
  1.432120E+00
  1.428702E+00
  1.424953E+00
  1.421205E+00
  1.417456E+00
  1.413708E+00
  1.409960E+00
  1.405535E+00
  1.400396E+00
  1.395257E+00
  1.390118E+00
  1.384980E+00
  1.379842E+00
  1.373677E+00
  1.366794E+00
  1.359912E+00
  1.353031E+00
  1.346150E+00
  1.339271E+00
  1.330400E+00
  1.321500E+00
  1.312602E+00
  1.303706E+00
  1.294812E+00
  1.284481E+00
  1.273416E+00
  1.262354E+00
  1.251296E+00
  1.240242E+00
  1.227827E+00
  1.214523E+00
  1.201225E+00
  1.187932E+00
  1.174644E+00
  1.159551E+00
  1.144011E+00
  1.128479E+00
  1.112955E+00
  1.096947E+00
  1.079352E+00
  1.061768E+00
  1.044196E+00
  1.026635E+00
  1.007722E+00
  9.886738E-01
  9.696410E-01
  9.506239E-01
  9.311349E-01
  9.115276E-01
  8.919394E-01
  8.723698E-01
  8.530237E-01
  8.337285E-01
  8.144524E-01
  7.953416E-01
  7.770824E-01
  7.588397E-01
  7.406131E-01
  7.234339E-01
  7.069052E-01
  6.903881E-01
  6.744417E-01
  6.600726E-01
  6.457103E-01
  6.315142E-01
  6.192780E-01
  6.070451E-01
  5.949008E-01
  5.844705E-01
  5.740415E-01
  5.638630E-01
  5.548931E-01
  5.459237E-01
  5.374656E-01
  5.296628E-01
  5.218601E-01
  5.148129E-01
  5.079073E-01
  5.012441E-01
  4.949835E-01
  4.887366E-01
  4.828943E-01
  4.770520E-01
  4.714225E-01
  4.658439E-01
  4.604160E-01
  4.550550E-01
  4.498463E-01
  4.447082E-01
  4.397659E-01
  4.348807E-01
  4.303108E-01
  4.258601E-01
  4.217466E-01
  4.179816E-01
  4.144812E-01
  4.116769E-01
  4.093538E-01
  4.075865E-01
  4.067129E-01
  4.070141E-01
  4.086813E-01
  4.123721E-01
  4.193712E-01
  4.323611E-01
  4.566784E-01
  5.010493E-01
  5.794637E-01
  7.039637E-01
  8.066842E-01
  7.836725E-01
  9.208521E-01
  1.330054E-01
 -3.133503E-13
  1.023262E+00
  1.023082E+00
  1.022901E+00
  1.022721E+00
  1.022541E+00
  1.022361E+00
  1.022180E+00
  1.022000E+00
  1.021820E+00
  1.021292E+00
  1.020755E+00
  1.020219E+00
  1.019682E+00
  1.019145E+00
  1.018609E+00
  1.018072E+00
  1.017419E+00
  1.016552E+00
  1.015686E+00
  1.014819E+00
  1.013953E+00
  1.013086E+00
  1.012219E+00
  1.011314E+00
  1.010097E+00
  1.008880E+00
  1.007663E+00
  1.006447E+00
  1.005230E+00
  1.004013E+00
  1.002705E+00
  1.001096E+00
  9.994870E-01
  9.978779E-01
  9.962688E-01
  9.946597E-01
  9.930506E-01
  9.911393E-01
  9.890957E-01
  9.870522E-01
  9.850087E-01
  9.829653E-01
  9.809219E-01
  9.786447E-01
  9.761209E-01
  9.735973E-01
  9.710738E-01
  9.685504E-01
  9.660271E-01
  9.631912E-01
  9.601365E-01
  9.570821E-01
  9.540281E-01
  9.509745E-01
  9.479213E-01
  9.442997E-01
  9.406700E-01
  9.370410E-01
  9.334129E-01
  9.297856E-01
  9.257585E-01
  9.215272E-01
  9.172972E-01
  9.130684E-01
  9.088408E-01
  9.042494E-01
  8.994200E-01
  8.945920E-01
  8.897656E-01
  8.849405E-01
  8.796651E-01
  8.742779E-01
  8.688921E-01
  8.635078E-01
  8.580137E-01
  8.521599E-01
  8.463074E-01
  8.404562E-01
  8.346063E-01
  8.284693E-01
  8.223014E-01
  8.161348E-01
  8.099697E-01
  8.036659E-01
  7.973242E-01
  7.909840E-01
  7.846455E-01
  7.782308E-01
  7.718058E-01
  7.653827E-01
  7.589591E-01
  7.525255E-01
  7.460935E-01
  7.396633E-01
  7.332436E-01
  7.268310E-01
  7.204199E-01
  7.140066E-01
  7.075840E-01
  7.011626E-01
  6.947397E-01
  6.882860E-01
  6.818332E-01
  6.753802E-01
  6.689101E-01
  6.624407E-01
  6.559680E-01
  6.494777E-01
  6.429879E-01
  6.364777E-01
  6.299415E-01
  6.234054E-01
  6.168040E-01
  6.101904E-01
  6.035351E-01
  5.968103E-01
  5.900808E-01
  5.832102E-01
  5.763396E-01
  5.693222E-01
  5.622698E-01
  5.550702E-01
  5.478051E-01
  5.403771E-01
  5.328736E-01
  5.251701E-01
  5.174085E-01
  5.093904E-01
  5.012973E-01
  4.929997E-01
  4.845384E-01
  4.759559E-01
  4.671131E-01
  4.581103E-01
  4.489406E-01
  4.395394E-01
  4.299185E-01
  4.201342E-01
  4.102344E-01
  4.003703E-01
  3.909483E-01
  3.828567E-01
  3.775427E-01
  3.780643E-01
  3.878419E-01
  3.858542E-01
  3.486583E-01
  3.976592E-01
  1.448608E-01
 -9.801797E-03
  6.205962E-02
  6.205218E-02
  6.204475E-02
  6.203731E-02
  6.202988E-02
  6.202244E-02
  6.201501E-02
  6.200758E-02
  6.200015E-02
  6.197886E-02
  6.195724E-02
  6.193561E-02
  6.191399E-02
  6.189237E-02
  6.187075E-02
  6.184913E-02
  6.182392E-02
  6.179212E-02
  6.176033E-02
  6.172853E-02
  6.169674E-02
  6.166495E-02
  6.163315E-02
  6.159961E-02
  6.155201E-02
  6.150442E-02
  6.145682E-02
  6.140923E-02
  6.136163E-02
  6.131404E-02
  6.125996E-02
  6.118437E-02
  6.110877E-02
  6.103317E-02
  6.095757E-02
  6.088196E-02
  6.080636E-02
  6.070603E-02
  6.059488E-02
  6.048373E-02
  6.037258E-02
  6.026144E-02
  6.015029E-02
  6.001944E-02
  5.986780E-02
  5.971617E-02
  5.956457E-02
  5.941298E-02
  5.926141E-02
  5.908268E-02
  5.888499E-02
  5.868737E-02
  5.848981E-02
  5.829233E-02
  5.809491E-02
  5.784552E-02
  5.759549E-02
  5.734565E-02
  5.709598E-02
  5.684650E-02
  5.655668E-02
  5.624642E-02
  5.593648E-02
  5.562688E-02
  5.531761E-02
  5.496643E-02
  5.458805E-02
  5.421019E-02
  5.383286E-02
  5.345605E-02
  5.302115E-02
  5.257234E-02
  5.212436E-02
  5.167719E-02
  5.121625E-02
  5.070903E-02
  5.020312E-02
  4.969852E-02
  4.919524E-02
  4.867352E-02
  4.815152E-02
  4.763148E-02
  4.711341E-02
  4.661429E-02
  4.612230E-02
  4.563273E-02
  4.514558E-02
  4.469792E-02
  4.425837E-02
  4.382126E-02
  4.339356E-02
  4.300762E-02
  4.262372E-02
  4.224188E-02
  4.188610E-02
  4.154666E-02
  4.120862E-02
  4.087618E-02
  4.055650E-02
  4.023752E-02
  3.991931E-02
  3.960252E-02
  3.928595E-02
  3.897006E-02
  3.866392E-02
  3.835776E-02
  3.805524E-02
  3.777049E-02
  3.748562E-02
  3.721271E-02
  3.695514E-02
  3.669748E-02
  3.646632E-02
  3.624009E-02
  3.602636E-02
  3.583345E-02
  3.564162E-02
  3.548224E-02
  3.532286E-02
  3.519125E-02
  3.506629E-02
  3.496631E-02
  3.487748E-02
  3.481519E-02
  3.476531E-02
  3.474789E-02
  3.474014E-02
  3.477632E-02
  3.482690E-02
  3.491662E-02
  3.504206E-02
  3.519469E-02
  3.541180E-02
  3.567483E-02
  3.598842E-02
  3.638063E-02
  3.687012E-02
  3.746471E-02
  3.820233E-02
  3.915072E-02
  4.044053E-02
  4.231294E-02
  4.515037E-02
  4.964890E-02
  5.648319E-02
  6.225757E-02
  6.309827E-02
  7.574666E-02
  2.047557E-02
  7.607891E-03
  1.737092E-01
  1.736790E-01
  1.736489E-01
  1.736187E-01
  1.735886E-01
  1.735584E-01
  1.735283E-01
  1.734982E-01
  1.734680E-01
  1.733822E-01
  1.732949E-01
  1.732077E-01
  1.731205E-01
  1.730332E-01
  1.729460E-01
  1.728588E-01
  1.727523E-01
  1.726105E-01
  1.724687E-01
  1.723268E-01
  1.721850E-01
  1.720432E-01
  1.719014E-01
  1.717516E-01
  1.715375E-01
  1.713234E-01
  1.711094E-01
  1.708953E-01
  1.706813E-01
  1.704672E-01
  1.702303E-01
  1.699172E-01
  1.696042E-01
  1.692911E-01
  1.689781E-01
  1.686651E-01
  1.683520E-01
  1.679502E-01
  1.675095E-01
  1.670689E-01
  1.666283E-01
  1.661876E-01
  1.657470E-01
  1.652268E-01
  1.646227E-01
  1.640186E-01
  1.634145E-01
  1.628105E-01
  1.622065E-01
  1.614818E-01
  1.606727E-01
  1.598636E-01
  1.590547E-01
  1.582459E-01
  1.574372E-01
  1.563943E-01
  1.553481E-01
  1.543021E-01
  1.532563E-01
  1.522108E-01
  1.509963E-01
  1.496956E-01
  1.483952E-01
  1.470953E-01
  1.457958E-01
  1.443364E-01
  1.427725E-01
  1.412092E-01
  1.396465E-01
  1.380845E-01
  1.363102E-01
  1.344835E-01
  1.326577E-01
  1.308328E-01
  1.289510E-01
  1.268827E-01
  1.248157E-01
  1.227500E-01
  1.206856E-01
  1.184625E-01
  1.162233E-01
  1.139860E-01
  1.117505E-01
  1.094595E-01
  1.071546E-01
  1.048520E-01
  1.025516E-01
  1.002774E-01
  9.800919E-02
  9.574324E-02
  9.349670E-02
  9.135028E-02
  8.920579E-02
  8.706320E-02
  8.504371E-02
  8.310070E-02
  8.115905E-02
  7.928449E-02
  7.759533E-02
  7.590698E-02
  7.423816E-02
  7.279974E-02
  7.136170E-02
  6.993407E-02
  6.870794E-02
  6.748196E-02
  6.628541E-02
  6.523096E-02
  6.417655E-02
  6.318226E-02
  6.226500E-02
  6.134774E-02
  6.051930E-02
  5.970751E-02
  5.892421E-02
  5.818824E-02
  5.745388E-02
  5.676708E-02
  5.608029E-02
  5.541851E-02
  5.476271E-02
  5.412462E-02
  5.349441E-02
  5.288210E-02
  5.227809E-02
  5.169711E-02
  5.112282E-02
  5.058562E-02
  5.006242E-02
  4.957886E-02
  4.913627E-02
  4.872478E-02
  4.839512E-02
  4.812201E-02
  4.791424E-02
  4.781153E-02
  4.784691E-02
  4.804285E-02
  4.847669E-02
  4.929942E-02
  5.082639E-02
  5.368493E-02
  5.890084E-02
  6.811870E-02
  8.275405E-02
  9.482902E-02
  9.212360E-02
  1.082492E-01
  2.147536E-02
 -8.958422E-09
  1.023414E+00
  1.023234E+00
  1.023054E+00
  1.022873E+00
  1.022693E+00
  1.022513E+00
  1.022333E+00
  1.022152E+00
  1.021972E+00
  1.021444E+00
  1.020908E+00
  1.020371E+00
  1.019834E+00
  1.019298E+00
  1.018761E+00
  1.018225E+00
  1.017572E+00
  1.016705E+00
  1.015839E+00
  1.014972E+00
  1.014106E+00
  1.013239E+00
  1.012373E+00
  1.011467E+00
  1.010251E+00