 Title = "ADflow Slice Data"
Variables =  "CoordinateX"  "CoordinateY"  "CoordinateZ"  "XoC"  "YoC"  "ZoC" "VelocityX" "VelocityY" "VelocityZ" "CoefPressure" "Mach" 
Zone T= "Slice_0001 None Relative Regular z = 0.10000000"
 Nodes =          114  Elements=          106  ZONETYPE=FELINESEG
 DATAPACKING=POINT
  7.301402E-01  4.441787E-02  1.000000E-01  7.450274E-01  4.624951E-02  1.416109E-17  2.613036E-02 -3.029966E-03 -1.807880E-05 -3.240859E-01  0.000000E+00
  7.043967E-01  4.727140E-02  1.000000E-01  7.187583E-01  4.916129E-02 -4.248327E-17  2.699388E-02 -2.900270E-03  2.025110E-05 -3.456652E-01  0.000000E+00
  6.775455E-01  5.002351E-02  1.000000E-01  6.913589E-01  5.196958E-02  3.965105E-16  2.769258E-02 -2.762414E-03  5.499272E-05 -3.655232E-01  0.000000E+00
  6.496792E-01  5.267858E-02  1.000000E-01  6.629238E-01  5.467885E-02  4.248327E-17  2.825520E-02 -2.638697E-03  8.174060E-05 -3.860102E-01  0.000000E+00
  6.209097E-01  5.526108E-02  1.000000E-01  6.335670E-01  5.731406E-02 -2.832218E-17  2.875876E-02 -2.534063E-03  9.741519E-05 -4.086584E-01  0.000000E+00
  5.913667E-01  5.776986E-02  1.000000E-01  6.034209E-01  5.987406E-02 -2.832218E-17  2.929869E-02 -2.441895E-03  1.010798E-04 -4.340865E-01  0.000000E+00
  5.611982E-01  6.019784E-02  1.000000E-01  5.726366E-01  6.235161E-02  0.000000E+00  2.996086E-02 -2.359200E-03  9.335039E-05 -4.635806E-01  0.000000E+00
  5.305654E-01  6.252589E-02  1.000000E-01  5.413784E-01  6.472719E-02 -5.664436E-17  3.082587E-02 -2.279738E-03  7.566073E-05 -4.991387E-01  0.000000E+00
  4.996398E-01  6.472802E-02  1.000000E-01  5.098215E-01  6.697427E-02  0.000000E+00  3.197141E-02 -2.182178E-03  4.975066E-05 -5.423620E-01  0.000000E+00
  4.685986E-01  6.674396E-02  1.000000E-01  4.781466E-01  6.903136E-02  1.416109E-17  3.345323E-02 -2.023997E-03  1.741113E-05 -5.925817E-01  0.000000E+00
  4.376215E-01  6.848106E-02  1.000000E-01  4.465372E-01  7.080392E-02 -8.496654E-17  3.525817E-02 -1.759500E-03 -1.951629E-05 -6.466618E-01  0.000000E+00
  4.068895E-01  6.983725E-02  1.000000E-01  4.151778E-01  7.218780E-02  0.000000E+00  3.727771E-02 -1.352479E-03 -5.883586E-05 -6.989511E-01  0.000000E+00
  3.765814E-01  7.072092E-02  1.000000E-01  3.842509E-01  7.308951E-02 -5.664436E-17  3.930830E-02 -8.017579E-04 -9.757403E-05 -7.441192E-01  0.000000E+00
  3.468696E-01  7.109297E-02  1.000000E-01  3.539326E-01  7.346915E-02 -5.664436E-17  4.112615E-02 -1.549245E-04 -1.318353E-04 -7.810264E-01  0.000000E+00
  3.179133E-01  7.097374E-02  1.000000E-01  3.243852E-01  7.334749E-02 -2.832218E-17  4.262461E-02  5.213442E-04 -1.576864E-04 -8.137862E-01  0.000000E+00
  2.898519E-01  7.042380E-02  1.000000E-01  2.957509E-01  7.278632E-02 -4.248327E-17  4.390682E-02  1.201013E-03 -1.727270E-04 -8.489433E-01  0.000000E+00
  2.628044E-01  6.948991E-02  1.000000E-01  2.681513E-01  7.183337E-02  0.000000E+00  4.522882E-02  1.916536E-03 -1.766832E-04 -8.918805E-01  0.000000E+00
  9.800000E-01  3.936862E-03  1.000000E-01  9.999878E-01  4.942116E-03 -2.832218E-17  1.093210E-02 -1.175737E-02 -2.732431E-04 -4.323111E-02  0.000000E+00
  9.720124E-01  5.548227E-03  1.000000E-01  9.918371E-01  6.586376E-03 -2.832218E-17  1.363352E-02 -2.815739E-03 -2.127741E-04  8.567068E-02  0.000000E+00
  9.632634E-01  7.328997E-03  1.000000E-01  9.829096E-01  8.403499E-03 -2.832218E-17  1.190552E-02 -2.352955E-03 -1.904584E-04  3.904017E-02  0.000000E+00
  9.536907E-01  9.264145E-03  1.000000E-01  9.731415E-01  1.037815E-02 -2.832218E-17  1.082338E-02 -2.162274E-03 -1.755947E-04  1.874695E-02  0.000000E+00
  9.432303E-01  1.133452E-02  1.000000E-01  9.624674E-01  1.249079E-02  1.416109E-17  1.079446E-02 -2.106197E-03 -1.707614E-04 -1.654760E-03  0.000000E+00
  9.318220E-01  1.354072E-02  1.000000E-01  9.508263E-01  1.474203E-02  1.416109E-17  1.160747E-02 -2.209480E-03 -1.728447E-04 -2.632970E-02  0.000000E+00
  9.194070E-01  1.588345E-02  1.000000E-01  9.381578E-01  1.713259E-02 -8.496654E-17  1.288955E-02 -2.392120E-03 -1.775108E-04 -5.174703E-02  0.000000E+00
  9.059278E-01  1.835889E-02  1.000000E-01  9.244035E-01  1.965856E-02 -5.664436E-17  1.434505E-02 -2.588166E-03 -1.816945E-04 -7.757365E-02  0.000000E+00
  8.913299E-01  2.095987E-02  1.000000E-01  9.095075E-01  2.231263E-02  0.000000E+00  1.582694E-02 -2.769594E-03 -1.834332E-04 -1.042876E-01  0.000000E+00
  8.755643E-01  2.368077E-02  1.000000E-01  8.934202E-01  2.508908E-02 -2.832218E-17  1.728041E-02 -2.927025E-03 -1.813065E-04 -1.320711E-01  0.000000E+00
  8.585885E-01  2.651171E-02  1.000000E-01  8.760977E-01  2.797781E-02  4.106716E-16  1.869461E-02 -3.053528E-03 -1.743352E-04 -1.605554E-01  0.000000E+00
  8.403666E-01  2.943261E-02  1.000000E-01  8.575039E-01  3.095834E-02  3.965105E-16  2.007460E-02 -3.144528E-03 -1.619694E-04 -1.891950E-01  0.000000E+00
  8.208730E-01  3.241787E-02  1.000000E-01  8.376124E-01  3.400454E-02 -8.496654E-17  2.142038E-02 -3.199640E-03 -1.439167E-04 -2.177598E-01  0.000000E+00
  8.000947E-01  3.544105E-02  1.000000E-01  8.164099E-01  3.708943E-02 -2.832218E-17  2.272236E-02 -3.218068E-03 -1.200403E-04 -2.460725E-01  0.000000E+00
  7.780326E-01  3.847154E-02  1.000000E-01  7.938974E-01  4.018178E-02 -2.832218E-17  2.396147E-02 -3.196745E-03 -9.048172E-05 -2.737369E-01  0.000000E+00
  7.547032E-01  4.147573E-02  1.000000E-01  7.700918E-01  4.324731E-02  4.389938E-16  2.510930E-02 -3.132925E-03 -5.594791E-05 -3.000070E-01  0.000000E+00
  7.301402E-01  4.441787E-02  1.000000E-01  7.450274E-01  4.624951E-02  2.832218E-17  2.613036E-02 -3.029966E-03 -1.807880E-05 -3.240859E-01  0.000000E+00
  2.444131E-01 -3.117483E-02  1.000000E-01  2.493845E-01 -3.088635E-02  3.681883E-16  3.475534E-02  1.579947E-04  1.022094E-04  1.459830E-02  0.000000E+00
  2.700250E-01 -3.097109E-02  1.000000E-01  2.755193E-01 -3.067844E-02 -4.248327E-17  3.487497E-02  4.102563E-04  1.053101E-04  5.593920E-03  0.000000E+00
  2.967058E-01 -3.058032E-02  1.000000E-01  3.027448E-01 -3.027970E-02 -2.832218E-17  3.504875E-02  7.164234E-04  1.032976E-04 -7.745302E-03  0.000000E+00
  3.243554E-01 -2.988352E-02  1.000000E-01  3.309588E-01 -2.956867E-02  4.248327E-16  3.489277E-02  1.155385E-03  9.511104E-05 -2.396047E-02  0.000000E+00
  3.528511E-01 -2.874112E-02  1.000000E-01  3.600363E-01 -2.840296E-02 -4.248327E-17  3.399245E-02  1.717379E-03  8.043465E-05 -3.582151E-02  0.000000E+00
  3.820469E-01 -2.697818E-02  1.000000E-01  3.898280E-01 -2.660402E-02  5.664436E-17  3.209067E-02  2.342213E-03  6.047961E-05 -3.634411E-02  0.000000E+00
  4.117740E-01 -2.443007E-02  1.000000E-01  4.201620E-01 -2.400390E-02 -5.664436E-17  2.930971E-02  2.917314E-03  3.777412E-05 -1.941972E-02  0.000000E+00
  4.418498E-01 -2.099778E-02  1.000000E-01  4.508517E-01 -2.050155E-02 -2.832218E-17  2.616364E-02  3.284653E-03  1.504718E-05  1.686282E-02  0.000000E+00
  4.721105E-01 -1.681610E-02  1.000000E-01  4.817302E-01 -1.623450E-02 -5.664436E-17  2.352673E-02  3.207238E-03 -5.675783E-06  7.958938E-02  0.000000E+00
  5.024968E-01 -1.274021E-02  1.000000E-01  5.127368E-01 -1.207541E-02  1.416109E-17  2.188932E-02  2.790388E-03 -2.310825E-05  1.463601E-01  0.000000E+00
  5.328693E-01 -9.098538E-03  1.000000E-01  5.437293E-01 -8.359389E-03 -4.248327E-17  2.097025E-02  2.411678E-03 -3.652808E-05  1.813102E-01  0.000000E+00
  5.630297E-01 -5.778700E-03  1.000000E-01  5.745055E-01 -4.971780E-03  1.416109E-17  2.035643E-02  2.175168E-03 -4.540689E-05  1.935832E-01  0.000000E+00
  5.927917E-01 -2.674808E-03  1.000000E-01  6.048750E-01 -1.804525E-03  5.664436E-17  1.975907E-02  2.030434E-03 -4.881218E-05  2.042696E-01  0.000000E+00
  6.219828E-01  3.056470E-04  1.000000E-01  6.346621E-01  1.236773E-03 -4.248327E-17  1.903861E-02  1.916204E-03 -4.581383E-05  2.199095E-01  0.000000E+00
  6.504533E-01  3.160357E-03  1.000000E-01  6.637137E-01  4.149760E-03  5.664436E-17  1.822258E-02  1.769725E-03 -3.629624E-05  2.405050E-01  0.000000E+00
  6.780742E-01  5.787673E-03  1.000000E-01  6.918985E-01  6.830710E-03  4.531549E-16  1.742621E-02  1.567539E-03 -2.118899E-05  2.631566E-01  0.000000E+00
  7.047326E-01  8.076886E-03  1.000000E-01  7.191011E-01  9.166655E-03  0.000000E+00  1.676740E-02  1.324940E-03 -2.371875E-06  2.839982E-01  0.000000E+00
  1.215943E-04 -1.254959E-03  1.000000E-01  1.060943E-04 -3.556907E-04 -5.664436E-17 -6.817917E-02  1.299567E-01  3.775743E-04  5.750709E-01  0.000000E+00
  4.902502E-03 -7.402119E-03  1.000000E-01  4.984599E-03 -6.628340E-03 -8.496654E-17 -3.269967E-02  3.722213E-02  7.522934E-05  9.951241E-01  0.000000E+00
  1.254908E-02 -1.179249E-02  1.000000E-01  1.278728E-02 -1.110834E-02 -2.832218E-17 -7.720589E-04  1.681372E-03 -1.379645E-05  6.633544E-01  0.000000E+00
  2.163699E-02 -1.505586E-02  1.000000E-01  2.206071E-02 -1.443833E-02  1.416109E-17  1.939745E-02 -5.734663E-03 -1.692901E-05  4.371254E-01  0.000000E+00
  3.184423E-02 -1.769682E-02  1.000000E-01  3.247632E-02 -1.713320E-02 -2.832218E-17  2.854746E-02 -6.400729E-03 -1.056613E-05  3.687131E-01  0.000000E+00
  4.311596E-02 -1.991451E-02  1.000000E-01  4.397815E-02 -1.939616E-02 -8.496654E-17  3.243815E-02 -5.575265E-03 -3.893322E-06  3.064047E-01  0.000000E+00
  5.546913E-02 -2.174664E-02  1.000000E-01  5.658350E-02 -2.126569E-02  1.416109E-17  3.410203E-02 -4.631287E-03  3.131851E-06  2.511261E-01  0.000000E+00
  6.891473E-02 -2.339975E-02  1.000000E-01  7.030358E-02 -2.295255E-02 -8.496654E-17  3.503785E-02 -4.046448E-03  1.016553E-05  2.176091E-01  0.000000E+00
  8.348882E-02 -2.497379E-02  1.000000E-01  8.517518E-02 -2.455872E-02  5.664436E-17  3.572230E-02 -3.607869E-03  1.819516E-05  1.850438E-01  0.000000E+00
  9.923792E-02 -2.645459E-02  1.000000E-01  1.012458E-01 -2.606974E-02 -9.912763E-17  3.618207E-02 -3.108727E-03  2.784163E-05  1.464413E-01  0.000000E+00
  1.162051E-01 -2.777344E-02  1.000000E-01  1.185593E-01 -2.741552E-02 -8.496654E-17  3.640208E-02 -2.549936E-03  3.882699E-05  1.106471E-01  0.000000E+00
  1.344203E-01 -2.890789E-02  1.000000E-01  1.371464E-01 -2.857313E-02 -8.496654E-17  3.639498E-02 -1.999149E-03  5.054707E-05  8.344380E-02  0.000000E+00
  1.539027E-01 -2.983605E-02  1.000000E-01  1.570265E-01 -2.952024E-02  4.389938E-16  3.615195E-02 -1.457691E-03  6.264316E-05  6.175604E-02  0.000000E+00
  1.746592E-01 -3.052360E-02  1.000000E-01  1.782067E-01 -3.022183E-02  3.257051E-16  3.573086E-02 -9.513586E-04  7.458960E-05  4.470272E-02  0.000000E+00
  1.966815E-01 -3.097129E-02  1.000000E-01  2.006786E-01 -3.067865E-02 -2.832218E-17  3.526441E-02 -5.140458E-04  8.570178E-05  3.260038E-02  0.000000E+00
  2.199461E-01 -3.118534E-02  1.000000E-01  2.244181E-01 -3.089707E-02 -4.248327E-17  3.489562E-02 -1.435318E-04  9.524788E-05  2.311650E-02  0.000000E+00
  2.444131E-01 -3.117483E-02  1.000000E-01  2.493845E-01 -3.088635E-02  3.823494E-16  3.475534E-02  1.579947E-04  1.022094E-04  1.459830E-02  0.000000E+00
  7.047326E-01  8.076886E-03  1.000000E-01  7.191011E-01  9.166655E-03 -2.832218E-17  1.676740E-02  1.324940E-03 -2.371875E-06  2.839982E-01  0.000000E+00
  7.303325E-01  9.949177E-03  1.000000E-01  7.452236E-01  1.107717E-02 -2.832218E-17  1.634103E-02  1.062400E-03  1.800598E-05  3.008275E-01  0.000000E+00
  7.547951E-01  1.136278E-02  1.000000E-01  7.701856E-01  1.251963E-02  4.389938E-16  1.622741E-02  7.834344E-04  3.829278E-05  3.134212E-01  0.000000E+00
  7.780600E-01  1.228422E-02  1.000000E-01  7.939254E-01  1.345988E-02  1.416109E-17  1.648561E-02  4.788737E-04  5.756740E-05  3.214269E-01  0.000000E+00
  8.000833E-01  1.270969E-02  1.000000E-01  8.163982E-01  1.389404E-02 -4.248327E-17  1.712649E-02  1.373312E-04  7.544232E-05  3.240718E-01  0.000000E+00
  8.208376E-01  1.265858E-02  1.000000E-01  8.375762E-01  1.384188E-02 -2.832218E-17  1.807311E-02 -2.269808E-04  9.188261E-05  3.202792E-01  0.000000E+00
  8.403144E-01  1.222877E-02  1.000000E-01  8.574507E-01  1.340329E-02  4.389938E-16  1.914501E-02 -5.561439E-04  1.070500E-04  3.093150E-01  0.000000E+00
  8.585258E-01  1.157639E-02  1.000000E-01  8.760338E-01  1.273759E-02  3.965105E-16  2.012506E-02 -7.946036E-04  1.208615E-04  2.939902E-01  0.000000E+00
  8.754993E-01  1.084098E-02  1.000000E-01  8.933538E-01  1.198717E-02 -2.832218E-17  2.085732E-02 -9.348405E-04  1.327696E-04  2.789121E-01  0.000000E+00
  8.912718E-01  1.010334E-02  1.000000E-01  9.094483E-01  1.123448E-02 -2.832218E-17  2.132713E-02 -1.038270E-03  1.419048E-04  2.679854E-01  0.000000E+00
  9.058836E-01  9.355050E-03  1.000000E-01  9.243584E-01  1.047091E-02 -4.248327E-17  2.166360E-02 -1.183637E-03  1.477459E-04  2.617591E-01  0.000000E+00
  9.193796E-01  8.559726E-03  1.000000E-01  9.381299E-01  9.659352E-03 -5.664436E-17  2.205368E-02 -1.384869E-03  1.509183E-04  2.553484E-01  0.000000E+00
  9.318118E-01  7.718583E-03  1.000000E-01  9.508159E-01  8.801038E-03  4.248327E-17  2.269566E-02 -1.642664E-03  1.529265E-04  2.459672E-01  0.000000E+00
  9.432349E-01  6.827551E-03  1.000000E-01  9.624721E-01  7.891816E-03 -2.832218E-17  2.367712E-02 -1.972815E-03  1.550031E-04  2.344517E-01  0.000000E+00
  9.537058E-01  5.888316E-03  1.000000E-01  9.731568E-01  6.933408E-03  0.000000E+00  2.456020E-02 -2.334159E-03  1.559586E-04  2.160810E-01  0.000000E+00
  9.632829E-01  4.907643E-03  1.000000E-01  9.829294E-01  5.932714E-03 -2.832218E-17  2.408590E-02 -2.624083E-03  1.505601E-04  1.874620E-01  0.000000E+00
  9.720275E-01  3.921278E-03  1.000000E-01  9.918526E-01  4.926214E-03  0.000000E+00  2.137979E-02 -2.415272E-03  1.385560E-04  1.906894E-01  0.000000E+00
  9.800000E-01  2.954509E-03  1.000000E-01  9.999878E-01  3.939710E-03  1.416109E-17  1.419824E-02  4.413047E-03  1.433788E-04 -7.849008E-03  0.000000E+00
  1.215943E-04 -5.732197E-04  1.000000E-01  1.060943E-04  3.399655E-04 -9.912763E-17  2.620307E-02  5.398747E-02  1.115939E-04  1.682513E-01  0.000000E+00
  7.278129E-05 -6.832302E-04  1.000000E-01  5.628479E-05  2.277092E-04  1.416109E-17  1.714307E-02  8.264932E-02  2.048175E-04 -4.983731E-02  0.000000E+00
  1.762252E-05 -9.063839E-04  1.000000E-01  0.000000E+00  0.000000E+00  0.000000E+00 -2.088234E-02  1.632770E-01  4.765138E-04 -3.142462E-02  0.000000E+00
  8.694958E-05 -1.138763E-03  1.000000E-01  7.074230E-05 -2.371225E-04  0.000000E+00 -7.418546E-02  1.992679E-01  6.067528E-04  3.725265E-02  0.000000E+00
  1.215943E-04 -1.254959E-03  1.000000E-01  1.060943E-04 -3.556907E-04 -4.248327E-17 -6.817917E-02  1.299567E-01  3.775743E-04  5.750709E-01  0.000000E+00
  9.800000E-01  2.954509E-03  1.000000E-01  9.999878E-01  3.939710E-03  0.000000E+00  1.419824E-02  4.413047E-03  1.433788E-04 -7.849008E-03  0.000000E+00
  9.800000E-01  3.118235E-03  1.000000E-01  9.999878E-01  4.106777E-03  0.000000E+00  4.272678E-03 -2.121156E-03  6.677776E-06 -1.963173E-01  0.000000E+00
  9.800000E-01  3.445685E-03  1.000000E-01  9.999878E-01  4.440913E-03 -2.832218E-17 -5.073061E-04 -1.503267E-02 -1.834506E-04 -1.583843E-01  0.000000E+00
  9.800000E-01  3.773136E-03  1.000000E-01  9.999878E-01  4.775048E-03 -5.664436E-17  3.345630E-03 -1.762617E-02 -2.733799E-04 -1.785778E-01  0.000000E+00
  9.800000E-01  3.936862E-03  1.000000E-01  9.999878E-01  4.942116E-03  0.000000E+00  1.093210E-02 -1.175737E-02 -2.732431E-04 -4.323111E-02  0.000000E+00
  2.628044E-01  6.948991E-02  1.000000E-01  2.681513E-01  7.183337E-02 -2.832218E-17  4.522882E-02  1.916536E-03 -1.766832E-04 -8.918805E-01  0.000000E+00
  2.368706E-01  6.820002E-02  1.000000E-01  2.416881E-01  7.051714E-02  3.681883E-16  4.687866E-02  2.776259E-03 -1.707596E-04 -9.412189E-01  0.000000E+00
  2.121362E-01  6.651200E-02  1.000000E-01  2.164488E-01  6.879467E-02  1.416109E-17  4.896598E-02  3.878962E-03 -1.567719E-04 -9.914757E-01  0.000000E+00
  1.886687E-01  6.440445E-02  1.000000E-01  1.925022E-01  6.664409E-02 -4.248327E-17  5.136051E-02  5.250247E-03 -1.366415E-04 -1.037862E+00  0.000000E+00
  1.665185E-01  6.187119E-02  1.000000E-01  1.698998E-01  6.405912E-02  4.814770E-16  5.383729E-02  6.880975E-03 -1.123092E-04 -1.076536E+00  0.000000E+00
  1.457161E-01  5.893441E-02  1.000000E-01  1.486728E-01  6.106239E-02  4.531549E-16  5.620502E-02  8.749021E-03 -8.564414E-05 -1.106930E+00  0.000000E+00
  1.262764E-01  5.562377E-02  1.000000E-01  1.288362E-01  5.768416E-02  0.000000E+00  5.838436E-02  1.085167E-02 -5.821629E-05 -1.132576E+00  0.000000E+00
  1.081990E-01  5.197389E-02  1.000000E-01  1.103898E-01  5.395977E-02  0.000000E+00  6.036036E-02  1.319310E-02 -3.121539E-05 -1.159470E+00  0.000000E+00
  9.146971E-02  4.802691E-02  1.000000E-01  9.331899E-02  4.993222E-02  0.000000E+00  6.220358E-02  1.594055E-02 -5.045408E-06 -1.180623E+00  0.000000E+00
  7.608258E-02  4.376095E-02  1.000000E-01  7.761775E-02  4.557917E-02  0.000000E+00  6.382059E-02  1.929493E-02  2.007421E-05 -1.173063E+00  0.000000E+00
  6.202881E-02  3.915084E-02  1.000000E-01  6.327708E-02  4.087495E-02 -5.664436E-17  6.475432E-02  2.317128E-02  4.315865E-05 -1.114609E+00  0.000000E+00
  4.929579E-02  3.420180E-02  1.000000E-01  5.028413E-02  3.582488E-02 -8.496654E-17  6.445194E-02  2.702758E-02  6.209703E-05 -1.010121E+00  0.000000E+00
  3.782553E-02  2.901935E-02  1.000000E-01  3.857972E-02  3.053664E-02  4.248327E-17  6.296276E-02  3.060866E-02  7.641458E-05 -8.915405E-01  0.000000E+00
  2.757469E-02  2.365281E-02  1.000000E-01  2.811962E-02  2.506055E-02 -2.832218E-17  6.094614E-02  3.419487E-02  8.765970E-05 -8.099695E-01  0.000000E+00
  1.848362E-02  1.817768E-02  1.000000E-01  1.884297E-02  1.947365E-02  5.664436E-17  5.946699E-02  3.960020E-02  1.015055E-04 -7.394583E-01  0.000000E+00
  1.064273E-02  1.245345E-02  1.000000E-01  1.084201E-02  1.363256E-02  1.416109E-17  5.754720E-02  4.883868E-02  1.224684E-04 -5.076084E-01  0.000000E+00
  4.262692E-03  6.304238E-03  1.000000E-01  4.331729E-03  7.357820E-03  1.416109E-17  4.762860E-02  5.942138E-02  1.425047E-04 -8.406003E-03  0.000000E+00
  1.215943E-04 -5.732197E-04  1.000000E-01  1.060943E-04  3.399655E-04 -8.496654E-17  2.620307E-02  5.398747E-02  1.115939E-04  1.682513E-01  0.000000E+00
    1    2
    2    3
    3    4
    4    5
    5    6
    6    7
    7    8
    8    9
    9   10
   10   11
   11   12
   12   13
   13   14
   14   15
   15   16
   16   17
   18   19
   19   20
   20   21
   21   22
   22   23
   23   24
   24   25
   25   26
   26   27
   27   28
   28   29
   29   30
   30   31
   31   32
   32   33
   33   34
   35   36
   36   37
   37   38
   38   39
   39   40
   40   41
   41   42
   42   43
   43   44
   44   45
   45   46
   46   47
   47   48
   48   49
   49   50
   50   51
   52   53
   53   54
   54   55
   55   56
   56   57
   57   58
   58   59
   59   60
   60   61
   61   62
   62   63
   63   64
   64   65
   65   66
   66   67
   67   68
   69   70
   70   71
   71   72
   72   73
   73   74
   74   75
   75   76
   76   77
   77   78
   78   79
   79   80
   80   81
   81   82
   82   83
   83   84
   84   85
   85   86
   87   88
   88   89
   89   90
   90   91
   92   93
   93   94
   94   95
   95   96
   97   98
   98   99
   99  100
  100  101
  101  102
  102  103
  103  104
  104  105
  105  106
  106  107
  107  108
  108  109
  109  110
  110  111
  111  112
  112  113
  113  114
Zone T= "Slice_0002 None Relative Regular z = 0.36666667"
 Nodes =          114  Elements=          106  ZONETYPE=FELINESEG
 DATAPACKING=POINT
  7.301402E-01  4.215281E-02  3.666667E-01  7.450308E-01  4.484505E-02 -5.664462E-17  2.517703E-02 -3.153133E-03 -1.100938E-04 -3.086833E-01  0.000000E+00
  7.043967E-01  4.528978E-02  3.666667E-01  7.187616E-01  4.804608E-02 -1.132892E-16  2.612974E-02 -3.088085E-03 -3.007418E-05 -3.360141E-01  0.000000E+00
  6.775455E-01  4.837251E-02  3.666667E-01  6.913622E-01  5.119175E-02  3.058810E-14  2.700470E-02 -3.003602E-03  4.211123E-05 -3.632054E-01  0.000000E+00
  6.496792E-01  5.137933E-02  3.666667E-01  6.629269E-01  5.425997E-02 -1.699339E-16  2.782163E-02 -2.906710E-03  9.770389E-05 -3.909631E-01  0.000000E+00
  6.209097E-01  5.429268E-02  3.666667E-01  6.335700E-01  5.723281E-02  0.000000E+00  2.861981E-02 -2.798767E-03  1.301652E-04 -4.195080E-01  0.000000E+00
  5.913667E-01  5.708363E-02  3.666667E-01  6.034237E-01  6.008074E-02  1.132892E-16  2.944592E-02 -2.683194E-03  1.369842E-04 -4.494394E-01  0.000000E+00
  5.611982E-01  5.973418E-02  3.666667E-01  5.726393E-01  6.278541E-02  2.265785E-16  3.035795E-02 -2.563593E-03  1.191808E-04 -4.821244E-01  0.000000E+00
  5.305654E-01  6.221712E-02  3.666667E-01  5.413809E-01  6.531905E-02  1.132892E-16  3.143067E-02 -2.435690E-03  7.994866E-05 -5.194994E-01  0.000000E+00
  4.996398E-01  6.450230E-02  3.666667E-01  5.098239E-01  6.765090E-02 -1.699339E-16  3.274697E-02 -2.280541E-03  2.343164E-05 -5.632185E-01  0.000000E+00
  4.685986E-01  6.653032E-02  3.666667E-01  4.781488E-01  6.972032E-02  1.132892E-16  3.437133E-02 -2.057649E-03 -4.596613E-05 -6.126775E-01  0.000000E+00
  4.376215E-01  6.821426E-02  3.666667E-01  4.465393E-01  7.143865E-02 -5.664462E-17  3.629262E-02 -1.722714E-03 -1.236410E-04 -6.647420E-01  0.000000E+00
  4.068895E-01  6.946167E-02  3.666667E-01  4.151797E-01  7.271153E-02 -5.664462E-17  3.839093E-02 -1.241261E-03 -2.043180E-04 -7.135649E-01  0.000000E+00
  3.765814E-01  7.019268E-02  3.666667E-01  3.842527E-01  7.345747E-02  5.664462E-17  4.044155E-02 -6.167305E-04 -2.814460E-04 -7.535053E-01  0.000000E+00
  3.468696E-01  7.038072E-02  3.666667E-01  3.539343E-01  7.364935E-02 -5.664462E-17  4.220006E-02  8.953628E-05 -3.472747E-04 -7.838130E-01  0.000000E+00
  3.179133E-01  7.006716E-02  3.666667E-01  3.243868E-01  7.332938E-02  0.000000E+00  4.355771E-02  7.929830E-04 -3.946734E-04 -8.098939E-01  0.000000E+00
  2.898519E-01  6.933733E-02  3.666667E-01  2.957523E-01  7.258465E-02  5.664462E-17  4.464746E-02  1.464645E-03 -4.198436E-04 -8.392875E-01  0.000000E+00
  2.628044E-01  6.825274E-02  3.666667E-01  2.681526E-01  7.147791E-02  5.664462E-17  4.576771E-02  2.147693E-03 -4.229541E-04 -8.776891E-01  0.000000E+00
  9.800000E-01  2.006837E-03  3.666667E-01  9.999925E-01  3.879346E-03  5.664462E-17  1.098162E-02 -1.158112E-02 -6.213556E-04 -4.123405E-02  0.000000E+00
  9.720124E-01  3.522497E-03  3.666667E-01  9.918418E-01  5.425954E-03  0.000000E+00  1.375799E-02 -2.691035E-03 -5.627114E-04  9.107122E-02  0.000000E+00
  9.632634E-01  5.204010E-03  3.666667E-01  9.829142E-01  7.141802E-03  1.132892E-16  1.215909E-02 -2.278693E-03 -5.034122E-04  4.575014E-02  0.000000E+00
  9.536907E-01  7.037394E-03  3.666667E-01  9.731460E-01  9.012622E-03 -5.664462E-17  1.111391E-02 -2.113189E-03 -4.620620E-04  2.677958E-02  0.000000E+00
  9.432303E-01  9.004936E-03  3.666667E-01  9.624719E-01  1.102034E-02 -1.699339E-16  1.103727E-02 -2.056337E-03 -4.461312E-04  8.058603E-03  0.000000E+00
  9.318220E-01  1.110917E-02  3.666667E-01  9.508307E-01  1.316754E-02 -5.664462E-17  1.175822E-02 -2.145116E-03 -4.477041E-04 -1.482166E-02  0.000000E+00
  9.194070E-01  1.335329E-02  3.666667E-01  9.381622E-01  1.545748E-02  0.000000E+00  1.293248E-02 -2.310483E-03 -4.565976E-04 -3.838310E-02  0.000000E+00
  9.059278E-01  1.573662E-02  3.666667E-01  9.244078E-01  1.788948E-02 -1.132892E-16  1.427294E-02 -2.491868E-03 -4.653171E-04 -6.232805E-02  0.000000E+00
  8.913299E-01  1.825588E-02  3.666667E-01  9.095118E-01  2.046017E-02  0.000000E+00  1.563174E-02 -2.663165E-03 -4.688294E-04 -8.720390E-02  0.000000E+00
  8.755643E-01  2.091016E-02  3.666667E-01  8.934244E-01  2.316865E-02 -1.132892E-16  1.695512E-02 -2.816318E-03 -4.636112E-04 -1.132622E-01  0.000000E+00
  8.585885E-01  2.369515E-02  3.666667E-01  8.761018E-01  2.601051E-02  3.098461E-14  1.823623E-02 -2.945921E-03 -4.475202E-04 -1.402303E-01  0.000000E+00
  8.403666E-01  2.659726E-02  3.666667E-01  8.575079E-01  2.897188E-02  3.098461E-14  1.948426E-02 -3.048827E-03 -4.196003E-04 -1.676928E-01  0.000000E+00
  8.208730E-01  2.959813E-02  3.666667E-01  8.376163E-01  3.203402E-02 -5.664462E-17  2.070406E-02 -3.125865E-03 -3.795102E-04 -1.955740E-01  0.000000E+00
  8.000947E-01  3.267911E-02  3.666667E-01  8.164138E-01  3.517791E-02 -5.664462E-17  2.189333E-02 -3.177243E-03 -3.272572E-04 -2.238844E-01  0.000000E+00
  7.780326E-01  3.581733E-02  3.666667E-01  7.939011E-01  3.838021E-02 -1.132892E-16  2.304432E-02 -3.200500E-03 -2.634482E-04 -2.524546E-01  0.000000E+00
  7.547032E-01  3.898587E-02  3.666667E-01  7.700954E-01  4.161345E-02  3.075803E-14  2.414437E-02 -3.192359E-03 -1.898586E-04 -2.808442E-01  0.000000E+00
  7.301402E-01  4.215281E-02  3.666667E-01  7.450308E-01  4.484505E-02 -5.664462E-17  2.517703E-02 -3.153133E-03 -1.100938E-04 -3.086833E-01  0.000000E+00
  2.444131E-01 -3.249961E-02  3.666667E-01  2.493857E-01 -3.133168E-02  3.092796E-14  3.512677E-02  2.951314E-04  2.593205E-04  4.880526E-03  0.000000E+00
  2.700250E-01 -3.217212E-02  3.666667E-01  2.755206E-01 -3.099751E-02  5.664462E-17  3.513566E-02  5.841829E-04  2.676908E-04 -2.440940E-03  0.000000E+00
  2.967058E-01 -3.162508E-02  3.666667E-01  3.027462E-01 -3.043930E-02 -5.664462E-17  3.518430E-02  9.179190E-04  2.658921E-04 -1.326608E-02  0.000000E+00
  3.243554E-01 -3.074699E-02  3.666667E-01  3.309603E-01 -2.954327E-02  3.070139E-14  3.489992E-02  1.365802E-03  2.515232E-04 -2.613476E-02  0.000000E+00
  3.528511E-01 -2.941419E-02  3.666667E-01  3.600380E-01 -2.818326E-02 -5.664462E-17  3.388840E-02  1.907998E-03  2.236840E-04 -3.398203E-02  0.000000E+00
  3.820469E-01 -2.747598E-02  3.666667E-01  3.898298E-01 -2.620547E-02 -1.132892E-16  3.190951E-02  2.486781E-03  1.841932E-04 -3.054156E-02  0.000000E+00
  4.117740E-01 -2.478499E-02  3.666667E-01  4.201640E-01 -2.345954E-02  1.132892E-16  2.909074E-02  3.003939E-03  1.376104E-04 -1.055643E-02  0.000000E+00
  4.418498E-01 -2.125368E-02  3.666667E-01  4.508538E-01 -1.985613E-02 -1.699339E-16  2.594307E-02  3.314575E-03  8.941767E-05  2.766898E-02  0.000000E+00
  4.721105E-01 -1.702746E-02  3.666667E-01  4.817325E-01 -1.554361E-02 -1.132892E-16  2.333165E-02  3.190582E-03  4.468730E-05  9.125977E-02  0.000000E+00
  5.024968E-01 -1.297011E-02  3.666667E-01  5.127392E-01 -1.140342E-02  5.664462E-17  2.174405E-02  2.737203E-03  6.741291E-06  1.581073E-01  0.000000E+00
  5.328693E-01 -9.415685E-03  3.666667E-01  5.437318E-01 -7.776410E-03 -2.265785E-16  2.090505E-02  2.326415E-03 -2.298446E-05  1.927204E-01  0.000000E+00
  5.630297E-01 -6.252773E-03  3.666667E-01  5.745082E-01 -4.548914E-03  1.132892E-16  2.040505E-02  2.061091E-03 -4.312697E-05  2.041361E-01  0.000000E+00
  5.927917E-01 -3.371654E-03  3.666667E-01  6.048778E-01 -1.608967E-03  0.000000E+00  1.995308E-02  1.893099E-03 -5.155729E-05  2.131512E-01  0.000000E+00
  6.219828E-01 -6.721197E-04  3.666667E-01  6.346650E-01  1.145689E-03  5.664462E-17  1.940032E-02  1.763268E-03 -4.633167E-05  2.262661E-01  0.000000E+00
  6.504533E-01  1.853992E-03  3.666667E-01  6.637168E-01  3.723381E-03 -1.132892E-16  1.875398E-02  1.611982E-03 -2.710417E-05  2.434645E-01  0.000000E+00
  6.780742E-01  4.132871E-03  3.666667E-01  6.919017E-01  6.048792E-03  3.092796E-14  1.810093E-02  1.419283E-03  4.348779E-06  2.618847E-01  0.000000E+00
  7.047326E-01  6.094857E-03  3.666667E-01  7.191044E-01  8.050839E-03 -5.664462E-17  1.753988E-02  1.196352E-03  4.430300E-05  2.785061E-01  0.000000E+00
  1.215943E-04 -2.144337E-03  3.666667E-01  1.060948E-04 -3.565897E-04 -2.265785E-16 -6.836321E-02  1.309568E-01  4.206848E-04  5.690397E-01  0.000000E+00
  4.902502E-03 -8.327651E-03  3.666667E-01  4.984623E-03 -6.666160E-03  5.664462E-17 -3.280781E-02  3.753926E-02  1.471761E-04  9.966532E-01  0.000000E+00
  1.254908E-02 -1.277188E-02  3.666667E-01  1.278734E-02 -1.120113E-02  2.265785E-16 -8.063234E-04  1.715506E-03  3.491578E-05  6.667295E-01  0.000000E+00
  2.163699E-02 -1.609551E-02  3.666667E-01  2.206081E-02 -1.459263E-02  5.664462E-17  1.956180E-02 -5.894245E-03  1.300273E-05  4.392378E-01  0.000000E+00
  3.184423E-02 -1.879988E-02  3.666667E-01  3.247647E-02 -1.735222E-02  0.000000E+00  2.889724E-02 -6.635721E-03  1.749060E-05  3.690787E-01  0.000000E+00
  4.311596E-02 -2.108244E-02  3.666667E-01  4.397835E-02 -1.968139E-02 -1.132892E-16  3.291107E-02 -5.821347E-03  2.983848E-05  3.050852E-01  0.000000E+00
  5.546913E-02 -2.297946E-02  3.666667E-01  5.658376E-02 -2.161714E-02 -5.664462E-17  3.464615E-02 -4.862515E-03  4.495087E-05  2.481984E-01  0.000000E+00
  6.891473E-02 -2.469574E-02  3.666667E-01  7.030391E-02 -2.336847E-02  1.699339E-16  3.562509E-02 -4.257300E-03  6.113169E-05  2.131935E-01  0.000000E+00
  8.348882E-02 -2.632928E-02  3.666667E-01  8.517558E-02 -2.503536E-02  2.832231E-16  3.633905E-02 -3.794525E-03  7.906987E-05  1.792362E-01  0.000000E+00
  9.923792E-02 -2.786357E-02  3.666667E-01  1.012463E-01 -2.660098E-02 -1.132892E-16  3.681846E-02 -3.265100E-03  9.961726E-05  1.392896E-01  0.000000E+00
  1.162051E-01 -2.922711E-02  3.666667E-01  1.185599E-01 -2.799236E-02  5.664462E-17  3.704775E-02 -2.670367E-03  1.227232E-04  1.022390E-01  0.000000E+00
  1.344203E-01 -3.039413E-02  3.666667E-01  1.371470E-01 -2.918321E-02  0.000000E+00  3.703792E-02 -2.079678E-03  1.475961E-04  7.395562E-02  0.000000E+00
  1.539027E-01 -3.133894E-02  3.666667E-01  1.570273E-01 -3.014731E-02  3.064474E-14  3.677722E-02 -1.495075E-03  1.733092E-04  5.142767E-02  0.000000E+00
  1.746592E-01 -3.202298E-02  3.666667E-01  1.782075E-01 -3.084532E-02  3.109790E-14  3.632126E-02 -9.438864E-04  1.987813E-04  3.383964E-02  0.000000E+00
  1.966815E-01 -3.244257E-02  3.666667E-01  2.006795E-01 -3.127348E-02 -1.132892E-16  3.580142E-02 -4.617856E-04  2.227092E-04  2.159259E-02  0.000000E+00
  2.199461E-01 -3.259962E-02  3.666667E-01  2.244192E-01 -3.143373E-02 -1.699339E-16  3.535964E-02 -4.763231E-05  2.435336E-04  1.245074E-02  0.000000E+00
  2.444131E-01 -3.249961E-02  3.666667E-01  2.493857E-01 -3.133168E-02  3.092796E-14  3.512677E-02  2.951314E-04  2.593205E-04  4.880526E-03  0.000000E+00
  7.047326E-01  6.094857E-03  3.666667E-01  7.191044E-01  8.050839E-03 -5.664462E-17  1.753988E-02  1.196352E-03  4.430300E-05  2.785061E-01  0.000000E+00