 Title = "ADflow Slice Data"
Variables =  "CoordinateX"  "CoordinateY"  "CoordinateZ"  "XoC"  "YoC"  "ZoC" "VelocityX" "VelocityY" "VelocityZ" "CoefPressure" "Mach" 
Zone T= "Slice_0001 None Relative Regular z = 0.10000000"
 Nodes =          114  Elements=          106  ZONETYPE=FELINESEG
 DATAPACKING=POINT
  7.301402E-01  6.648020E-02  1.000000E-01  7.450353E-01  5.795936E-02  1.416124E-17  2.487522E-02 -4.186556E-03 -1.862387E-04 -4.235926E-01  0.000000E+00
  7.043967E-01  7.067536E-02  1.000000E-01  7.187659E-01  6.224020E-02 -4.248372E-17  2.622718E-02 -4.132204E-03 -1.841950E-04 -4.597948E-01  0.000000E+00
  6.775455E-01  7.476269E-02  1.000000E-01  6.913663E-01  6.641102E-02  3.965147E-16  2.743281E-02 -4.036742E-03 -1.806060E-04 -4.947821E-01  0.000000E+00
  6.496792E-01  7.872094E-02  1.000000E-01  6.629308E-01  7.045012E-02  4.248372E-17  2.852439E-02 -3.924022E-03 -1.755256E-04 -5.311268E-01  0.000000E+00
  6.209097E-01  8.254669E-02  1.000000E-01  6.335737E-01  7.435400E-02 -2.832248E-17  2.959151E-02 -3.801680E-03 -1.691048E-04 -5.705121E-01  0.000000E+00
  5.913667E-01  8.620542E-02  1.000000E-01  6.034273E-01  7.808747E-02 -2.832248E-17  3.074201E-02 -3.661794E-03 -1.615358E-04 -6.132533E-01  0.000000E+00
  5.611982E-01  8.965230E-02  1.000000E-01  5.726427E-01  8.160475E-02  0.000000E+00  3.206017E-02 -3.498044E-03 -1.529630E-04 -6.602694E-01  0.000000E+00
  5.305654E-01  9.283290E-02  1.000000E-01  5.413841E-01  8.485031E-02 -5.664496E-17  3.361379E-02 -3.301763E-03 -1.435193E-04 -7.132926E-01  0.000000E+00
  4.996398E-01  9.569330E-02  1.000000E-01  5.098269E-01  8.776914E-02  0.000000E+00  3.547071E-02 -3.049445E-03 -1.333870E-04 -7.734209E-01  0.000000E+00
  4.685986E-01  9.815742E-02  1.000000E-01  4.781517E-01  9.028358E-02  1.416124E-17  3.768616E-02 -2.695779E-03 -1.228275E-04 -8.390649E-01  0.000000E+00
  4.376215E-01  1.001312E-01  1.000000E-01  4.465419E-01  9.229770E-02 -8.496744E-17  4.024416E-02 -2.192155E-03 -1.121156E-04 -9.064242E-01  0.000000E+00
  4.068895E-01  1.015252E-01  1.000000E-01  4.151822E-01  9.372020E-02  0.000000E+00  4.302632E-02 -1.502110E-03 -1.015090E-04 -9.708403E-01  0.000000E+00
  3.765814E-01  1.022712E-01  1.000000E-01  3.842550E-01  9.448134E-02 -5.664496E-17  4.583084E-02 -6.294057E-04 -9.123178E-05 -1.029741E+00  0.000000E+00
  3.468696E-01  1.023577E-01  1.000000E-01  3.539364E-01  9.456963E-02 -5.664496E-17  4.849093E-02  4.039458E-04 -8.153482E-05 -1.081991E+00  0.000000E+00
  3.179133E-01  1.017900E-01  1.000000E-01  3.243887E-01  9.399034E-02 -2.832248E-17  5.095004E-02  1.585697E-03 -7.266514E-05 -1.127300E+00  0.000000E+00
  2.898519E-01  1.005891E-01  1.000000E-01  2.957541E-01  9.276493E-02 -4.248372E-17  5.322285E-02  2.892453E-03 -6.469413E-05 -1.168901E+00  0.000000E+00
  2.628044E-01  9.879853E-02  1.000000E-01  2.681542E-01  9.093779E-02  0.000000E+00  5.538805E-02  4.312104E-03 -5.750401E-05 -1.210935E+00  0.000000E+00
  9.800000E-01  1.141710E-02  1.000000E-01  9.999984E-01  1.771605E-03 -2.832248E-17  1.060630E-02 -1.310480E-02 -1.992235E-04 -5.535533E-02  0.000000E+00
  9.720124E-01  1.351631E-02  1.000000E-01  9.918477E-01  3.913684E-03 -2.832248E-17  1.217619E-02 -3.271945E-03 -1.867866E-04  7.069788E-02  0.000000E+00
  9.632634E-01  1.583040E-02  1.000000E-01  9.829200E-01  6.275045E-03 -2.832248E-17  9.173511E-03 -2.364122E-03 -1.586723E-04  2.423696E-02  0.000000E+00
  9.536907E-01  1.834795E-02  1.000000E-01  9.731518E-01  8.844009E-03 -2.832248E-17  7.273938E-03 -1.902707E-03 -1.390764E-04  6.653546E-03  0.000000E+00
  9.432303E-01  2.105339E-02  1.000000E-01  9.624777E-01  1.160471E-02  1.416124E-17  6.821688E-03 -1.749128E-03 -1.321423E-04 -1.269207E-02  0.000000E+00
  9.318220E-01  2.395050E-02  1.000000E-01  9.508364E-01  1.456100E-02  1.416124E-17  7.497814E-03 -1.883572E-03 -1.343039E-04 -3.788279E-02  0.000000E+00
  9.194070E-01  2.704291E-02  1.000000E-01  9.381678E-01  1.771657E-02 -8.496744E-17  8.811912E-03 -2.169741E-03 -1.409444E-04 -6.490956E-02  0.000000E+00
  9.059278E-01  3.032946E-02  1.000000E-01  9.244133E-01  2.107025E-02 -5.664496E-17  1.035670E-02 -2.493765E-03 -1.488599E-04 -9.362610E-02  0.000000E+00
  8.913299E-01  3.380521E-02  1.000000E-01  9.095172E-01  2.461699E-02  0.000000E+00  1.192781E-02 -2.803342E-03 -1.564528E-04 -1.245806E-01  0.000000E+00
  8.755643E-01  3.746607E-02  1.000000E-01  8.934297E-01  2.835262E-02 -2.832248E-17  1.348955E-02 -3.089180E-03 -1.632615E-04 -1.579108E-01  0.000000E+00
  8.585885E-01  4.130283E-02  1.000000E-01  8.761071E-01  3.226774E-02  4.106760E-16  1.508509E-02 -3.355584E-03 -1.694125E-04 -1.932276E-01  0.000000E+00
  8.403666E-01  4.529507E-02  1.000000E-01  8.575130E-01  3.634153E-02  3.965147E-16  1.674242E-02 -3.601601E-03 -1.749774E-04 -2.299766E-01  0.000000E+00
  8.208730E-01  4.941543E-02  1.000000E-01  8.376213E-01  4.054604E-02 -8.496744E-17  1.843883E-02 -3.818378E-03 -1.797207E-04 -2.678983E-01  0.000000E+00
  8.000947E-01  5.363375E-02  1.000000E-01  8.164186E-01  4.485052E-02 -2.832248E-17  2.013365E-02 -3.994410E-03 -1.833627E-04 -3.068005E-01  0.000000E+00
  7.780326E-01  5.791339E-02  1.000000E-01  7.939059E-01  4.921757E-02 -2.832248E-17  2.179324E-02 -4.119266E-03 -1.857369E-04 -3.462856E-01  0.000000E+00
  7.547032E-01  6.221169E-02  1.000000E-01  7.701000E-01  5.360366E-02  4.389985E-16  2.338606E-02 -4.184335E-03 -1.867306E-04 -3.855501E-01  0.000000E+00
  7.301402E-01  6.648020E-02  1.000000E-01  7.450353E-01  5.795936E-02  2.832248E-17  2.487522E-02 -4.186556E-03 -1.862387E-04 -4.235926E-01  0.000000E+00
  2.444131E-01 -2.571568E-03  1.000000E-01  2.493872E-01 -1.250278E-02  3.681923E-16  2.782515E-02  1.271106E-03  4.992989E-05  1.694243E-01  0.000000E+00
  2.700250E-01 -1.406362E-03  1.000000E-01  2.755223E-01 -1.131378E-02 -4.248372E-17  2.806486E-02  1.256212E-03  5.205545E-05  1.678188E-01  0.000000E+00
  2.967058E-01 -2.338792E-04  1.000000E-01  3.027480E-01 -1.011735E-02 -2.832248E-17  2.842807E-02  1.285008E-03  5.477647E-05  1.600955E-01  0.000000E+00
  3.243554E-01  1.048088E-03  1.000000E-01  3.309623E-01 -8.809197E-03  4.248372E-16  2.856241E-02  1.434455E-03  5.812841E-05  1.474649E-01  0.000000E+00
  3.528511E-01  2.588442E-03  1.000000E-01  3.600401E-01 -7.237382E-03 -4.248372E-17  2.807387E-02  1.723586E-03  6.200050E-05  1.361864E-01  0.000000E+00
  3.820469E-01  4.601933E-03  1.000000E-01  3.898322E-01 -5.182765E-03  5.664496E-17  2.670698E-02  2.102800E-03  6.610198E-05  1.339486E-01  0.000000E+00
  4.117740E-01  7.255148E-03  1.000000E-01  4.201665E-01 -2.475358E-03 -5.664496E-17  2.453772E-02  2.455186E-03  7.007489E-05  1.477305E-01  0.000000E+00
  4.418498E-01  1.062182E-02  1.000000E-01  4.508565E-01  9.600824E-04 -2.832248E-17  2.200364E-02  2.645108E-03  7.370393E-05  1.777638E-01  0.000000E+00
  4.721105E-01  1.454813E-02  1.000000E-01  4.817354E-01  4.966582E-03 -5.664496E-17  1.987371E-02  2.476671E-03  7.729537E-05  2.295515E-01  0.000000E+00
  5.024968E-01  1.816772E-02  1.000000E-01  5.127423E-01  8.660107E-03  1.416124E-17  1.860715E-02  2.032658E-03  8.121218E-05  2.841455E-01  0.000000E+00
  5.328693E-01  2.115273E-02  1.000000E-01  5.437351E-01  1.170609E-02 -4.248372E-17  1.800240E-02  1.627678E-03  8.554044E-05  3.104925E-01  0.000000E+00
  5.630297E-01  2.363022E-02  1.000000E-01  5.745116E-01  1.423417E-02  1.416124E-17  1.770254E-02  1.352385E-03  9.032058E-05  3.170636E-01  0.000000E+00
  5.927917E-01  2.573201E-02  1.000000E-01  6.048814E-01  1.637890E-02  5.664496E-17  1.743600E-02  1.169974E-03  9.524177E-05  3.219706E-01  0.000000E+00
  6.219828E-01  2.758352E-02  1.000000E-01  6.346688E-01  1.826822E-02 -4.248372E-17  1.705879E-02  1.032498E-03  9.977965E-05  3.304922E-01  0.000000E+00
  6.504533E-01  2.921735E-02  1.000000E-01  6.637208E-01  1.993542E-02  5.664496E-17  1.657919E-02  8.820968E-04  1.036657E-04  3.430889E-01  0.000000E+00
  6.780742E-01  3.056199E-02  1.000000E-01  6.919058E-01  2.130752E-02  4.531597E-16  1.609492E-02  6.883056E-04  1.069402E-04  3.578000E-01  0.000000E+00
  7.047326E-01  3.153210E-02  1.000000E-01  7.191087E-01  2.229745E-02  0.000000E+00  1.571413E-02  4.558198E-04  1.098002E-04  3.712156E-01  0.000000E+00
  1.215943E-04  9.343202E-03  1.000000E-01  1.060954E-04 -3.446564E-04 -5.664496E-17 -4.569894E-02  8.151778E-02  7.212529E-05  7.497913E-01  0.000000E+00
  4.902502E-03  3.675864E-03  1.000000E-01  4.984652E-03 -6.127749E-03 -8.496744E-17 -1.703314E-02  1.978305E-02  5.805691E-05  9.392128E-01  0.000000E+00
  1.254908E-02  3.639809E-05  1.000000E-01  1.278741E-02 -9.841551E-03 -2.832248E-17  7.751077E-03 -1.999646E-03  4.405660E-05  5.449742E-01  0.000000E+00
  2.163699E-02 -2.350269E-03  1.000000E-01  2.206095E-02 -1.227697E-02  1.416124E-17  2.161039E-02 -4.450357E-03  3.798378E-05  3.433140E-01  0.000000E+00
  3.184423E-02 -4.024856E-03  1.000000E-01  3.247666E-02 -1.398576E-02 -2.832248E-17  2.739720E-02 -3.592591E-03  3.738600E-05  3.091570E-01  0.000000E+00
  4.311596E-02 -5.197547E-03  1.000000E-01  4.397862E-02 -1.518240E-02 -8.496744E-17  2.960204E-02 -2.378344E-03  3.815118E-05  2.738196E-01  0.000000E+00
  5.546913E-02 -5.911546E-03  1.000000E-01  5.658410E-02 -1.591098E-02  1.416124E-17  3.026834E-02 -1.404827E-03  3.914158E-05  2.412234E-01  0.000000E+00
  6.891473E-02 -6.380565E-03  1.000000E-01  7.030432E-02 -1.638958E-02 -8.496744E-17  3.050287E-02 -8.728589E-04  4.021385E-05  2.291748E-01  0.000000E+00
  8.348882E-02 -6.711264E-03  1.000000E-01  8.517609E-02 -1.672703E-02  5.664496E-17  3.062403E-02 -5.234882E-04  4.120526E-05  2.170784E-01  0.000000E+00
  9.923792E-02 -6.897571E-03  1.000000E-01  1.012469E-01 -1.691715E-02 -9.912868E-17  3.059022E-02 -1.653961E-04  4.211532E-05  1.981642E-01  0.000000E+00
  1.162051E-01 -6.881783E-03  1.000000E-01  1.185606E-01 -1.690103E-02 -8.496744E-17  3.036528E-02  2.017806E-04  4.303005E-05  1.813410E-01  0.000000E+00
  1.344203E-01 -6.656422E-03  1.000000E-01  1.371478E-01 -1.667107E-02 -8.496744E-17  2.997298E-02  5.230540E-04  4.397476E-05  1.720758E-01  0.000000E+00
  1.539027E-01 -6.218715E-03  1.000000E-01  1.570282E-01 -1.622442E-02  4.389985E-16  2.943315E-02  7.995471E-04  4.492079E-05  1.670966E-01  0.000000E+00
  1.746592E-01 -5.557930E-03  1.000000E-01  1.782086E-01 -1.555014E-02  3.257085E-16  2.882039E-02  1.018179E-03  4.590218E-05  1.652364E-01  0.000000E+00
  1.966815E-01 -4.703051E-03  1.000000E-01  2.006807E-01 -1.467780E-02 -2.832248E-17  2.826512E-02  1.163135E-03  4.699763E-05  1.665137E-01  0.000000E+00
  2.199461E-01 -3.692770E-03  1.000000E-01  2.244205E-01 -1.364689E-02 -4.248372E-17  2.789725E-02  1.245926E-03  4.829587E-05  1.684963E-01  0.000000E+00
  2.444131E-01 -2.571568E-03  1.000000E-01  2.493872E-01 -1.250278E-02  3.823535E-16  2.782515E-02  1.271106E-03  4.992989E-05  1.694243E-01  0.000000E+00
  7.047326E-01  3.153210E-02  1.000000E-01  7.191087E-01  2.229745E-02 -2.832248E-17  1.571413E-02  4.558198E-04  1.098002E-04  3.712156E-01  0.000000E+00
  7.303325E-01  3.207351E-02  1.000000E-01  7.452315E-01  2.284992E-02 -2.832248E-17  1.552662E-02  1.964233E-04  1.125008E-04  3.812105E-01  0.000000E+00
  7.547951E-01  3.216626E-02  1.000000E-01  7.701938E-01  2.294457E-02  4.389985E-16  1.560955E-02 -9.353469E-05  1.153106E-04  3.876051E-01  0.000000E+00
  7.780600E-01  3.179482E-02  1.000000E-01  7.939338E-01  2.256553E-02  1.416124E-17  1.602127E-02 -4.284302E-04  1.184521E-04  3.900708E-01  0.000000E+00
  8.000833E-01  3.096935E-02  1.000000E-01  8.164069E-01  2.172320E-02 -4.248372E-17  1.677670E-02 -8.215679E-04  1.220373E-04  3.878348E-01  0.000000E+00
  8.208376E-01  2.971963E-02  1.000000E-01  8.375852E-01  2.044796E-02 -2.832248E-17  1.781085E-02 -1.255631E-03  1.259690E-04  3.797887E-01  0.000000E+00
  8.403144E-01  2.815050E-02  1.000000E-01  8.574598E-01  1.884678E-02  4.389985E-16  1.896355E-02 -1.664139E-03  1.299043E-04  3.650815E-01  0.000000E+00
  8.585258E-01  2.642192E-02  1.000000E-01  8.760431E-01  1.708289E-02  3.965147E-16  2.003803E-02 -1.980244E-03  1.333793E-04  3.462397E-01  0.000000E+00
  8.754993E-01  2.467503E-02  1.000000E-01  8.933633E-01  1.530033E-02 -2.832248E-17  2.089001E-02 -2.187164E-03  1.359254E-04  3.275431E-01  0.000000E+00
  8.912718E-01  2.299097E-02  1.000000E-01  9.094580E-01  1.358187E-02 -2.832248E-17  2.150506E-02 -2.344484E-03  1.372504E-04  3.127145E-01  0.000000E+00
  9.058836E-01  2.136100E-02  1.000000E-01  9.243682E-01  1.191861E-02 -4.248372E-17  2.200977E-02 -2.539007E-03  1.374522E-04  3.023457E-01  0.000000E+00
  9.193796E-01  1.974778E-02  1.000000E-01  9.381399E-01  1.027243E-02 -5.664496E-17  2.259762E-02 -2.798259E-03  1.372145E-04  2.917053E-01  0.000000E+00
  9.318118E-01  1.815058E-02  1.000000E-01  9.508260E-01  8.642607E-03  4.248372E-17  2.347246E-02 -3.137510E-03  1.379521E-04  2.780774E-01  0.000000E+00
  9.432349E-01  1.656295E-02  1.000000E-01  9.624824E-01  7.022557E-03 -2.832248E-17  2.467656E-02 -3.572986E-03  1.407198E-04  2.620142E-01  0.000000E+00
  9.537058E-01  1.498383E-02  1.000000E-01  9.731672E-01  5.411182E-03  0.000000E+00  2.557994E-02 -4.007571E-03  1.431700E-04  2.380111E-01  0.000000E+00
  9.632829E-01  1.341693E-02  1.000000E-01  9.829399E-01  3.812282E-03 -2.832248E-17  2.459953E-02 -4.197493E-03  1.376462E-04  2.039193E-01  0.000000E+00
  9.720275E-01  1.189453E-02  1.000000E-01  9.918631E-01  2.258785E-03  0.000000E+00  2.094018E-02 -3.663522E-03  1.190038E-04  2.019933E-01  0.000000E+00
  9.800000E-01  1.043844E-02  1.000000E-01  9.999984E-01  7.729531E-04  1.416124E-17  1.390175E-02  4.326298E-03  7.698684E-05 -1.037996E-02  0.000000E+00
  1.215943E-04  1.002387E-02  1.000000E-01  1.060954E-04  3.499175E-04 -9.912868E-17  2.284167E-02  5.291667E-02  3.263014E-05  4.557593E-01  0.000000E+00
  7.278129E-05  9.909213E-03  1.000000E-01  5.628538E-05  2.329154E-04  1.416124E-17  1.551723E-02  7.593796E-02  4.619407E-05  2.952734E-01  0.000000E+00
  1.762252E-05  9.680959E-03  1.000000E-01  0.000000E+00  0.000000E+00  0.000000E+00 -1.223411E-02  1.221852E-01  6.761990E-05  3.348541E-01  0.000000E+00
  8.694958E-05  9.455794E-03  1.000000E-01  7.074306E-05 -2.297648E-04  0.000000E+00 -5.108437E-02  1.326159E-01  7.791478E-05  3.840236E-01  0.000000E+00
  1.215943E-04  9.343202E-03  1.000000E-01  1.060954E-04 -3.446564E-04 -4.248372E-17 -4.569894E-02  8.151778E-02  7.212529E-05  7.497913E-01  0.000000E+00
  9.800000E-01  1.043844E-02  1.000000E-01  9.999984E-01  7.729531E-04  0.000000E+00  1.390175E-02  4.326298E-03  7.698684E-05 -1.037996E-02  0.000000E+00
  9.800000E-01  1.060155E-02  1.000000E-01  9.999984E-01  9.393951E-04  0.000000E+00  4.471513E-03 -1.662523E-03 -1.192432E-05 -2.101208E-01  0.000000E+00
  9.800000E-01  1.092777E-02  1.000000E-01  9.999984E-01  1.272279E-03 -2.832248E-17 -4.470354E-04 -1.598211E-02 -1.121905E-04 -1.743081E-01  0.000000E+00
  9.800000E-01  1.125399E-02  1.000000E-01  9.999984E-01  1.605163E-03 -5.664496E-17  3.418397E-03 -1.958957E-02 -1.748624E-04 -1.928100E-01  0.000000E+00
  9.800000E-01  1.141710E-02  1.000000E-01  9.999984E-01  1.771605E-03  0.000000E+00  1.060630E-02 -1.310480E-02 -1.992235E-04 -5.535533E-02  0.000000E+00
  2.628044E-01  9.879853E-02  1.000000E-01  2.681542E-01  9.093779E-02 -2.832248E-17  5.538805E-02  4.312104E-03 -5.750401E-05 -1.210935E+00  0.000000E+00
  2.368706E-01  9.646840E-02  1.000000E-01  2.416907E-01  8.856007E-02  3.681923E-16  5.760322E-02  5.929316E-03 -5.096333E-05 -1.250434E+00  0.000000E+00
  2.121362E-01  9.359176E-02  1.000000E-01  2.164511E-01  8.562468E-02  1.416124E-17  5.989693E-02  7.819630E-03 -4.494036E-05 -1.280599E+00  0.000000E+00
  1.886687E-01  9.018659E-02  1.000000E-01  1.925043E-01  8.214995E-02 -4.248372E-17  6.209020E-02  9.961331E-03 -3.930485E-05 -1.296549E+00  0.000000E+00
  1.665185E-01  8.628528E-02  1.000000E-01  1.699016E-01  7.816896E-02  4.814822E-16  6.395482E-02  1.228797E-02 -3.401053E-05 -1.295831E+00  0.000000E+00
  1.457161E-01  8.194491E-02  1.000000E-01  1.486744E-01  7.373994E-02  4.531597E-16  6.533781E-02  1.472602E-02 -2.905908E-05 -1.280042E+00  0.000000E+00
  1.262764E-01  7.722529E-02  1.000000E-01  1.288376E-01  6.892392E-02  0.000000E+00  6.622236E-02  1.723921E-02 -2.443364E-05 -1.254401E+00  0.000000E+00
  1.081990E-01  7.218620E-02  1.000000E-01  1.103910E-01  6.378191E-02  0.000000E+00  6.664566E-02  1.980423E-02 -2.003519E-05 -1.226004E+00  0.000000E+00
  9.146971E-02  6.689006E-02  1.000000E-01  9.331999E-02  5.837759E-02  0.000000E+00  6.671737E-02  2.257613E-02 -1.578980E-05 -1.190024E+00  0.000000E+00
  7.608258E-02  6.133253E-02  1.000000E-01  7.761857E-02  5.270655E-02  0.000000E+00  6.639522E-02  2.572644E-02 -1.170224E-05 -1.128077E+00  0.000000E+00
  6.202881E-02  5.550296E-02  1.000000E-01  6.327776E-02  4.675791E-02 -5.664496E-17  6.534114E-02  2.911591E-02 -7.818036E-06 -1.022970E+00  0.000000E+00
  4.929579E-02  4.941824E-02  1.000000E-01  5.028467E-02  4.054891E-02 -8.496744E-17  6.319731E-02  3.219592E-02 -4.150710E-06 -8.797644E-01  0.000000E+00
  3.782553E-02  4.318908E-02  1.000000E-01  3.858013E-02  3.419252E-02  4.248372E-17  6.009956E-02  3.474880E-02 -6.423371E-07 -7.252929E-01  0.000000E+00
  2.757469E-02  3.686928E-02  1.000000E-01  2.811992E-02  2.774364E-02 -2.832248E-17  5.655182E-02  3.701524E-02  3.035443E-06 -6.071847E-01  0.000000E+00
  1.848362E-02  3.053555E-02  1.000000E-01  1.884317E-02  2.128054E-02  5.664496E-17  5.323139E-02  4.044839E-02  7.721105E-06 -5.095387E-01  0.000000E+00
  1.064273E-02  2.406196E-02  1.000000E-01  1.084213E-02  1.467473E-02  1.416124E-17  4.948500E-02  4.667654E-02  1.478598E-05 -2.699200E-01  0.000000E+00
  4.262692E-03  1.729854E-02  1.000000E-01  4.331775E-03  7.773171E-03  1.416124E-17  4.011843E-02  5.391672E-02  2.437487E-05  2.405522E-01  0.000000E+00
  1.215943E-04  1.002387E-02  1.000000E-01  1.060954E-04  3.499175E-04 -8.496744E-17  2.284167E-02  5.291667E-02  3.263014E-05  4.557593E-01  0.000000E+00
    1    2
    2    3
    3    4
    4    5
    5    6
    6    7
    7    8
    8    9
    9   10
   10   11
   11   12
   12   13
   13   14
   14   15
   15   16
   16   17
   18   19
   19   20
   20   21
   21   22
   22   23
   23   24
   24   25
   25   26
   26   27
   27   28
   28   29
   29   30
   30   31
   31   32
   32   33
   33   34
   35   36
   36   37
   37   38
   38   39
   39   40
   40   41
   41   42
   42   43
   43   44
   44   45
   45   46
   46   47
   47   48
   48   49
   49   50
   50   51
   52   53
   53   54
   54   55
   55   56
   56   57
   57   58
   58   59
   59   60
   60   61
   61   62
   62   63
   63   64
   64   65
   65   66
   66   67
   67   68
   69   70
   70   71
   71   72
   72   73
   73   74
   74   75
   75   76
   76   77
   77   78
   78   79
   79   80
   80   81
   81   82
   82   83
   83   84
   84   85
   85   86
   87   88
   88   89
   89   90
   90   91
   92   93
   93   94
   94   95
   95   96
   97   98
   98   99
   99  100
  100  101
  101  102
  102  103
  103  104
  104  105
  105  106
  106  107
  107  108
  108  109
  109  110
  110  111
  111  112
  112  113
  113  114
Zone T= "Slice_0002 None Relative Regular z = 0.36666667"
 Nodes =          114  Elements=          106  ZONETYPE=FELINESEG
 DATAPACKING=POINT
  7.301402E-01  6.587252E-02  3.666667E-01  7.450356E-01  5.735897E-02 -5.664499E-17  2.501470E-02 -4.196286E-03 -6.011168E-04 -4.174220E-01  0.000000E+00
  7.043967E-01  7.005749E-02  3.666667E-01  7.187662E-01  6.162942E-02 -1.132900E-16  2.635136E-02 -4.142610E-03 -5.968053E-04 -4.530654E-01  0.000000E+00
  6.775455E-01  7.414007E-02  3.666667E-01  6.913666E-01  6.579538E-02  3.058829E-14  2.754202E-02 -4.049245E-03 -5.878493E-04 -4.875476E-01  0.000000E+00
  6.496792E-01  7.809993E-02  3.666667E-01  6.629311E-01  6.983613E-02 -1.699350E-16  2.861933E-02 -3.939936E-03 -5.744934E-04 -5.234430E-01  0.000000E+00
  6.209097E-01  8.193440E-02  3.666667E-01  6.335740E-01  7.374891E-02  0.000000E+00  2.967328E-02 -3.822149E-03 -5.572442E-04 -5.624395E-01  0.000000E+00
  5.913667E-01  8.560948E-02  3.666667E-01  6.034276E-01  7.749906E-02  1.132900E-16  3.081236E-02 -3.687875E-03 -5.366220E-04 -6.048770E-01  0.000000E+00
  5.611982E-01  8.908054E-02  3.666667E-01  5.726429E-01  8.104102E-02  2.265799E-16  3.212262E-02 -3.530741E-03 -5.128579E-04 -6.516957E-01  0.000000E+00
  5.305654E-01  9.229276E-02  3.666667E-01  5.413843E-01  8.431885E-02  1.132900E-16  3.367503E-02 -3.341949E-03 -4.860466E-04 -7.046323E-01  0.000000E+00
  4.996398E-01  9.519118E-02  3.666667E-01  5.098271E-01  8.727647E-02 -1.699350E-16  3.554130E-02 -3.097693E-03 -4.563912E-04 -7.647787E-01  0.000000E+00
  4.685986E-01  9.769804E-02  3.666667E-01  4.781519E-01  8.983454E-02  1.132900E-16  3.777892E-02 -2.751937E-03 -4.243293E-04 -8.305392E-01  0.000000E+00
  4.376215E-01  9.971731E-02  3.666667E-01  4.465421E-01  9.189505E-02 -5.664499E-17  4.037043E-02 -2.254837E-03 -3.903320E-04 -8.981109E-01  0.000000E+00
  4.068895E-01  1.011574E-01  3.666667E-01  4.151824E-01  9.336459E-02 -5.664499E-17  4.319336E-02 -1.568539E-03 -3.549009E-04 -9.628306E-01  0.000000E+00
  3.765814E-01  1.019482E-01  3.666667E-01  3.842552E-01  9.417153E-02  5.664499E-17  4.604227E-02 -6.958372E-04 -3.186576E-04 -1.022114E+00  0.000000E+00
  3.468696E-01  1.020769E-01  3.666667E-01  3.539366E-01  9.430288E-02 -5.664499E-17  4.874852E-02  3.416914E-04 -2.826766E-04 -1.074794E+00  0.000000E+00
  3.179133E-01  1.015477E-01  3.666667E-01  3.243888E-01  9.376286E-02  0.000000E+00  5.125400E-02  1.531793E-03 -2.483590E-04 -1.120519E+00  0.000000E+00
  2.898519E-01  1.003811E-01  3.666667E-01  2.957542E-01  9.257236E-02  5.664499E-17  5.357089E-02  2.850424E-03 -2.166318E-04 -1.162477E+00  0.000000E+00
  2.628044E-01  9.862039E-02  3.666667E-01  2.681543E-01  9.077572E-02  5.664499E-17  5.577527E-02  4.284443E-03 -1.876883E-04 -1.204792E+00  0.000000E+00
  9.800000E-01  1.115131E-02  3.666667E-01  9.999988E-01  1.520057E-03  5.664499E-17  1.060296E-02 -1.300144E-02 -6.221095E-04 -5.584809E-02  0.000000E+00
  9.720124E-01  1.323329E-02  3.666667E-01  9.918481E-01  3.644560E-03  0.000000E+00  1.220628E-02 -3.254047E-03 -5.891843E-04  7.133913E-02  0.000000E+00
  9.632634E-01  1.552896E-02  3.666667E-01  9.829204E-01  5.987120E-03  1.132900E-16  9.289627E-03 -2.375405E-03 -5.014459E-04  2.502324E-02  0.000000E+00
  9.536907E-01  1.802690E-02  3.666667E-01  9.731522E-01  8.536085E-03 -5.664499E-17  7.452182E-03 -1.933943E-03 -4.405258E-04  7.502768E-03  0.000000E+00
  9.432303E-01  2.071162E-02  3.666667E-01  9.624781E-01  1.127564E-02 -1.699350E-16  7.031708E-03 -1.789037E-03 -4.190182E-04 -1.173686E-02  0.000000E+00
  9.318220E-01  2.358694E-02  3.666667E-01  9.508368E-01  1.420969E-02 -5.664499E-17  7.719375E-03 -1.924635E-03 -4.257583E-04 -3.674655E-02  0.000000E+00
  9.194070E-01  2.665659E-02  3.666667E-01  9.381682E-01  1.734204E-02  0.000000E+00  9.032377E-03 -2.207685E-03 -4.464457E-04 -6.353104E-02  0.000000E+00
  9.059278E-01  2.991955E-02  3.666667E-01  9.244137E-01  2.067165E-02 -1.132900E-16  1.056978E-02 -2.526852E-03 -4.712739E-04 -9.195792E-02  0.000000E+00
  8.913299E-01  3.337107E-02  3.666667E-01  9.095176E-01  2.419366E-02  0.000000E+00  1.213446E-02 -2.832081E-03 -4.954674E-04 -1.225738E-01  0.000000E+00
  8.755643E-01  3.700729E-02  3.666667E-01  8.934300E-01  2.790415E-02 -1.132900E-16  1.369611E-02 -3.115421E-03 -5.177107E-04 -1.555124E-01  0.000000E+00
  8.585885E-01  4.081930E-02  3.666667E-01  8.761074E-01  3.179403E-02  3.098481E-14  1.529567E-02 -3.380509E-03 -5.382987E-04 -1.903899E-01  0.000000E+00
  8.403666E-01  4.478706E-02  3.666667E-01  8.575134E-01  3.584283E-02  3.098481E-14  1.695232E-02 -3.624424E-03 -5.571927E-04 -2.266568E-01  0.000000E+00
  8.208730E-01  4.888363E-02  3.666667E-01  8.376217E-01  4.002307E-02 -5.664499E-17  1.863944E-02 -3.837734E-03 -5.735425E-04 -2.640574E-01  0.000000E+00
  8.000947E-01  5.307941E-02  3.666667E-01  8.164190E-01  4.430456E-02 -5.664499E-17  2.031990E-02 -4.009983E-03 -5.865413E-04 -3.024041E-01  0.000000E+00
  7.780326E-01  5.733837E-02  3.666667E-01  7.939062E-01  4.865051E-02 -1.132900E-16  2.196378E-02 -4.131724E-03 -5.957134E-04 -3.413060E-01  0.000000E+00
  7.547032E-01  6.161861E-02  3.666667E-01  7.701003E-01  5.301817E-02  3.075823E-14  2.354099E-02 -4.194788E-03 -6.006895E-04 -3.799718E-01  0.000000E+00
  7.301402E-01  6.587252E-02  3.666667E-01  7.450356E-01  5.735897E-02 -5.664499E-17  2.501470E-02 -4.196286E-03 -6.011168E-04 -4.174220E-01  0.000000E+00
  2.444131E-01 -2.731049E-03  3.666667E-01  2.493873E-01 -1.264585E-02  3.092816E-14  2.807068E-02  1.255153E-03  1.610275E-04  1.671703E-01  0.000000E+00
  2.700250E-01 -1.591797E-03  3.666667E-01  2.755224E-01 -1.148333E-02  5.664499E-17  2.832630E-02  1.237755E-03  1.703709E-04  1.654737E-01  0.000000E+00
  2.967058E-01 -4.491738E-04  3.666667E-01  3.027482E-01 -1.031737E-02 -5.664499E-17  2.870934E-02  1.264323E-03  1.819752E-04  1.576068E-01  0.000000E+00
  3.243554E-01  7.988673E-04  3.666667E-01  3.309624E-01 -9.043837E-03  3.070158E-14  2.886183E-02  1.413196E-03  1.958823E-04  1.447700E-01  0.000000E+00
  3.528511E-01  2.301379E-03  3.666667E-01  3.600403E-01 -7.510637E-03 -5.664499E-17  2.838374E-02  1.704643E-03  2.115064E-04  1.332282E-01  0.000000E+00
  3.820469E-01  4.273720E-03  3.666667E-01  3.898323E-01 -5.498010E-03 -1.132900E-16  2.701759E-02  2.089591E-03  2.275534E-04  1.307045E-01  0.000000E+00
  4.117740E-01  6.883448E-03  3.666667E-01  4.201666E-01 -2.834977E-03  1.132900E-16  2.484083E-02  2.450199E-03  2.424907E-04  1.442197E-01  0.000000E+00
  4.418498E-01  1.020563E-02  3.666667E-01  4.508567E-01  5.550600E-04 -1.699350E-16  2.229355E-02  2.648466E-03  2.554061E-04  1.740336E-01  0.000000E+00
  4.721105E-01  1.408808E-02  3.666667E-01  4.817356E-01  4.516812E-03 -1.132900E-16  2.015129E-02  2.483792E-03  2.675460E-04  2.257056E-01  0.000000E+00
  5.024968E-01  1.766622E-02  3.666667E-01  5.127425E-01  8.168034E-03  5.664499E-17  1.887831E-02  2.038512E-03  2.802697E-04  2.802643E-01  0.000000E+00
  5.328693E-01  2.061401E-02  3.666667E-01  5.437353E-01  1.117604E-02 -2.265799E-16  1.827113E-02  1.631857E-03  2.937562E-04  3.065316E-01  0.000000E+00
  5.630297E-01  2.306014E-02  3.666667E-01  5.745118E-01  1.367213E-02  1.132900E-16  1.796925E-02  1.356427E-03  3.082767E-04  3.129532E-01  0.000000E+00
  5.927917E-01  2.513753E-02  3.666667E-01  6.048817E-01  1.579195E-02  0.000000E+00  1.769848E-02  1.175261E-03  3.229936E-04  3.177240E-01  0.000000E+00
  6.219828E-01  2.697206E-02  3.666667E-01  6.346691E-01  1.766395E-02  5.664499E-17  1.731376E-02  1.039736E-03  3.362933E-04  3.261900E-01  0.000000E+00
  6.504533E-01  2.859627E-02  3.666667E-01  6.637210E-01  1.932134E-02 -1.132900E-16  1.682376E-02  8.909983E-04  3.474180E-04  3.388115E-01  0.000000E+00
  6.780742E-01  2.993849E-02  3.666667E-01  6.919061E-01  2.069097E-02  3.092816E-14  1.632739E-02  6.981066E-04  3.565805E-04  3.535984E-01  0.000000E+00
  7.047326E-01  3.091304E-02  3.666667E-01  7.191090E-01  2.168543E-02 -5.664499E-17  1.593421E-02  4.658026E-04  3.644307E-04  3.671254E-01  0.000000E+00
  1.215943E-04  9.323893E-03  3.666667E-01  1.060955E-04 -3.446855E-04 -2.265799E-16 -4.463375E-02  7.965783E-02  2.243692E-04  7.548346E-01  0.000000E+00
  4.902502E-03  3.655223E-03  3.666667E-01  4.984654E-03 -6.129140E-03  5.664499E-17 -1.626842E-02  1.908541E-02  1.768733E-04  9.366016E-01  0.000000E+00
  1.254908E-02  1.352977E-05  3.666667E-01  1.278742E-02 -9.845216E-03  2.265799E-16  8.193698E-03 -2.181376E-03  1.320988E-04  5.400398E-01  0.000000E+00
  2.163699E-02 -2.375932E-03  3.666667E-01  2.206096E-02 -1.228348E-02  5.664499E-17  2.187241E-02 -4.515333E-03  1.130169E-04  3.389084E-01  0.000000E+00
  3.184423E-02 -4.053852E-03  3.666667E-01  3.247667E-02 -1.399568E-02  0.000000E+00  2.762273E-02 -3.632560E-03  1.110438E-04  3.055401E-01  0.000000E+00
  4.311596E-02 -5.230470E-03  3.666667E-01  4.397863E-02 -1.519633E-02 -1.132900E-16  2.983451E-02 -2.408506E-03  1.133340E-04  2.706321E-01  0.000000E+00
  5.546913E-02 -5.949079E-03  3.666667E-01  5.658412E-02 -1.592961E-02 -5.664499E-17  3.050796E-02 -1.428497E-03  1.163434E-04  2.382482E-01  0.000000E+00
  6.891473E-02 -6.423497E-03  3.666667E-01  7.030435E-02 -1.641372E-02  1.699350E-16  3.074671E-02 -8.933983E-04  1.196971E-04  2.264017E-01  0.000000E+00
  8.348882E-02 -6.760515E-03  3.666667E-01  8.517612E-02 -1.675762E-02  2.832249E-16  3.087142E-02 -5.423463E-04  1.229887E-04  2.144963E-01  0.000000E+00
  9.923792E-02 -6.954227E-03  3.666667E-01  1.012469E-01 -1.695529E-02 -1.132900E-16  3.083983E-02 -1.825196E-04  1.262652E-04  1.957182E-01  0.000000E+00
  1.162051E-01 -6.947122E-03  3.666667E-01  1.185606E-01 -1.694804E-02  5.664499E-17  3.061450E-02  1.864479E-04  1.298049E-04  1.789825E-01  0.000000E+00
  1.344203E-01 -6.731947E-03  3.666667E-01  1.371479E-01 -1.672847E-02  0.000000E+00  3.021907E-02  5.090789E-04  1.336924E-04  1.697850E-01  0.000000E+00
  1.539027E-01 -6.306190E-03  3.666667E-01  1.570283E-01 -1.629402E-02  3.064494E-14  2.967402E-02  7.864841E-04  1.378474E-04  1.648618E-01  0.000000E+00
  1.746592E-01 -5.659419E-03  3.666667E-01  1.782087E-01 -1.563404E-02  3.109810E-14  2.905603E-02  1.005453E-03  1.423767E-04  1.630382E-01  0.000000E+00
  1.966815E-01 -4.820956E-03  3.666667E-01  2.006808E-01 -1.477845E-02 -1.132900E-16  2.849842E-02  1.150027E-03  1.475272E-04  1.643268E-01  0.000000E+00
  2.199461E-01 -3.829872E-03  3.666667E-01  2.244206E-01 -1.376712E-02 -1.699350E-16  2.813341E-02  1.231773E-03  1.535929E-04  1.662926E-01  0.000000E+00
  2.444131E-01 -2.731049E-03  3.666667E-01  2.493873E-01 -1.264585E-02  3.092816E-14  2.807068E-02  1.255153E-03  1.610275E-04  1.671703E-01  0.000000E+00
  7.047326E-01  3.091304E-02  3.666667E-01  7.191090E-01  2.168543E-02 -5.664499E-17  1.593421E-02  4.658026E-04  3.644307E-04  3.671254E-01  0.000000E+00