 Title = "ADflow Slice Data"
Variables =  "CoordinateX"  "CoordinateY"  "CoordinateZ"  "XoC"  "YoC"  "ZoC" "VelocityX" "VelocityY" "VelocityZ" "CoefPressure" "Mach" 
Zone T= "Slice_0001 None Relative Regular z = 0.10000000"
 Nodes =          114  Elements=          106  ZONETYPE=FELINESEG
 DATAPACKING=POINT
  7.301402E-01  6.773605E-02  1.000000E-01  7.450341E-01  5.923879E-02  1.416122E-17  2.548656E-02 -4.256693E-03 -2.101737E-04 -4.367504E-01  0.000000E+00
  7.043967E-01  7.188948E-02  1.000000E-01  7.187648E-01  6.347705E-02 -4.248366E-17  2.686114E-02 -4.175993E-03 -2.079100E-04 -4.723026E-01  0.000000E+00
  6.775455E-01  7.591190E-02  1.000000E-01  6.913652E-01  6.758163E-02  3.965141E-16  2.805492E-02 -4.050235E-03 -2.030929E-04 -5.058034E-01  0.000000E+00
  6.496792E-01  7.978511E-02  1.000000E-01  6.629298E-01  7.153393E-02  4.248366E-17  2.910006E-02 -3.909019E-03 -1.956573E-04 -5.402297E-01  0.000000E+00
  6.209097E-01  8.351373E-02  1.000000E-01  6.335728E-01  7.533870E-02 -2.832244E-17  3.009682E-02 -3.763002E-03 -1.857484E-04 -5.776402E-01  0.000000E+00
  5.913667E-01  8.706893E-02  1.000000E-01  6.034264E-01  7.896652E-02 -2.832244E-17  3.116892E-02 -3.603113E-03 -1.736804E-04 -6.183600E-01  0.000000E+00
  5.611982E-01  9.040835E-02  1.000000E-01  5.726418E-01  8.237414E-02  0.000000E+00  3.241020E-02 -3.422512E-03 -1.598197E-04 -6.632884E-01  0.000000E+00
  5.305654E-01  9.348065E-02  1.000000E-01  5.413833E-01  8.550919E-02 -5.664488E-17  3.389066E-02 -3.213177E-03 -1.445906E-04 -7.142052E-01  0.000000E+00
  4.996398E-01  9.623550E-02  1.000000E-01  5.098261E-01  8.832030E-02  0.000000E+00  3.567692E-02 -2.951882E-03 -1.285090E-04 -7.722541E-01  0.000000E+00
  4.685986E-01  9.860040E-02  1.000000E-01  4.781509E-01  9.073349E-02  1.416122E-17  3.782185E-02 -2.593442E-03 -1.121873E-04 -8.359154E-01  0.000000E+00
  4.376215E-01  1.004845E-01  1.000000E-01  4.465412E-01  9.265603E-02 -8.496731E-17  4.030856E-02 -2.089736E-03 -9.627503E-05 -9.014898E-01  0.000000E+00
  4.068895E-01  1.018005E-01  1.000000E-01  4.151816E-01  9.399893E-02  0.000000E+00  4.302139E-02 -1.404999E-03 -8.139997E-05 -9.644486E-01  0.000000E+00
  3.765814E-01  1.024814E-01  1.000000E-01  3.842544E-01  9.469371E-02 -5.664488E-17  4.576450E-02 -5.431766E-04 -6.808869E-05 -1.022350E+00  0.000000E+00
  3.468696E-01  1.025160E-01  1.000000E-01  3.539359E-01  9.472909E-02 -5.664488E-17  4.837767E-02  4.751106E-04 -5.669442E-05 -1.074103E+00  0.000000E+00
  3.179133E-01  1.019085E-01  1.000000E-01  3.243882E-01  9.410916E-02 -2.832244E-17  5.080826E-02  1.640460E-03 -4.732067E-05 -1.119324E+00  0.000000E+00
  2.898519E-01  1.006776E-01  1.000000E-01  2.957536E-01  9.285313E-02 -4.248366E-17  5.307009E-02  2.931957E-03 -3.978377E-05 -1.161098E+00  0.000000E+00
  2.628044E-01  9.886468E-02  1.000000E-01  2.681538E-01  9.100318E-02  0.000000E+00  5.523727E-02  4.338709E-03 -3.370705E-05 -1.203451E+00  0.000000E+00
  9.800000E-01  1.211899E-02  1.000000E-01  9.999969E-01  2.485849E-03 -2.832244E-17  1.060940E-02 -1.317904E-02 -2.139555E-04 -5.660411E-02  0.000000E+00
  9.720124E-01  1.425289E-02  1.000000E-01  9.918462E-01  4.663326E-03 -2.832244E-17  1.211928E-02 -3.308297E-03 -1.974627E-04  6.886100E-02  0.000000E+00
  9.632634E-01  1.660431E-02  1.000000E-01  9.829185E-01  7.062768E-03 -2.832244E-17  9.058472E-03 -2.371442E-03 -1.674475E-04  2.211624E-02  0.000000E+00
  9.536907E-01  1.916190E-02  1.000000E-01  9.731503E-01  9.672599E-03 -2.832244E-17  7.135119E-03 -1.895642E-03 -1.465740E-04  4.357786E-03  0.000000E+00
  9.432303E-01  2.191015E-02  1.000000E-01  9.624762E-01  1.247697E-02  1.416122E-17  6.683882E-03 -1.740268E-03 -1.393171E-04 -1.532951E-02  0.000000E+00
  9.318220E-01  2.485260E-02  1.000000E-01  9.508349E-01  1.547952E-02  1.416122E-17  7.379911E-03 -1.882076E-03 -1.419733E-04 -4.101352E-02  0.000000E+00
  9.194070E-01  2.799253E-02  1.000000E-01  9.381664E-01  1.868357E-02 -8.496731E-17  8.728946E-03 -2.181140E-03 -1.496250E-04 -6.866506E-02  0.000000E+00
  9.059278E-01  3.132824E-02  1.000000E-01  9.244119E-01  2.208741E-02 -5.664488E-17  1.031978E-02 -2.520412E-03 -1.588317E-04 -9.815277E-02  0.000000E+00
  8.913299E-01  3.485398E-02  1.000000E-01  9.095158E-01  2.568516E-02  0.000000E+00  1.194590E-02 -2.845765E-03 -1.678878E-04 -1.300212E-01  0.000000E+00
  8.755643E-01  3.856455E-02  1.000000E-01  8.934283E-01  2.947151E-02 -2.832244E-17  1.357262E-02 -3.147461E-03 -1.763279E-04 -1.643950E-01  0.000000E+00
  8.585885E-01  4.244924E-02  1.000000E-01  8.761057E-01  3.343554E-02  4.106753E-16  1.524415E-02 -3.429473E-03 -1.842910E-04 -2.008614E-01  0.000000E+00
  8.403666E-01  4.648573E-02  1.000000E-01  8.575117E-01  3.755447E-02  3.965141E-16  1.698500E-02 -3.689271E-03 -1.917849E-04 -2.388276E-01  0.000000E+00
  8.208730E-01  5.064421E-02  1.000000E-01  8.376200E-01  4.179788E-02 -8.496731E-17  1.876695E-02 -3.915878E-03 -1.984570E-04 -2.779807E-01  0.000000E+00
  8.000947E-01  5.489164E-02  1.000000E-01  8.164174E-01  4.613205E-02 -2.832244E-17  2.054589E-02 -4.096229E-03 -2.039180E-04 -3.180588E-01  0.000000E+00
  7.780326E-01  5.918793E-02  1.000000E-01  7.939047E-01  5.051609E-02 -2.832244E-17  2.228493E-02 -4.218655E-03 -2.078810E-04 -3.585675E-01  0.000000E+00
  7.547032E-01  6.348675E-02  1.000000E-01  7.700988E-01  5.490270E-02  4.389978E-16  2.394692E-02 -4.273356E-03 -2.100695E-04 -3.985464E-01  0.000000E+00
  7.301402E-01  6.773605E-02  1.000000E-01  7.450341E-01  5.923879E-02  2.832244E-17  2.548656E-02 -4.256693E-03 -2.101737E-04 -4.367504E-01  0.000000E+00
  2.444131E-01 -2.517295E-03  1.000000E-01  2.493868E-01 -1.244936E-02  3.681917E-16  2.788488E-02  1.290282E-03  3.980569E-05  1.665818E-01  0.000000E+00
  2.700250E-01 -1.334024E-03  1.000000E-01  2.755218E-01 -1.124192E-02 -4.248366E-17  2.813124E-02  1.280769E-03  4.140317E-05  1.648168E-01  0.000000E+00
  2.967058E-01 -1.371938E-04  1.000000E-01  3.027476E-01 -1.002065E-02 -2.832244E-17  2.849758E-02  1.316564E-03  4.376323E-05  1.569396E-01  0.000000E+00
  3.243554E-01  1.177365E-03  1.000000E-01  3.309618E-01 -8.679244E-03  4.248366E-16  2.862789E-02  1.474579E-03  4.710435E-05  1.442024E-01  0.000000E+00
  3.528511E-01  2.760776E-03  1.000000E-01  3.600396E-01 -7.063495E-03 -4.248366E-17  2.812518E-02  1.772730E-03  5.152092E-05  1.329326E-01  0.000000E+00
  3.820469E-01  4.829835E-03  1.000000E-01  3.898316E-01 -4.952178E-03  5.664488E-17  2.673394E-02  2.158872E-03  5.686825E-05  1.309099E-01  0.000000E+00
  4.117740E-01  7.551597E-03  1.000000E-01  4.201658E-01 -2.174828E-03 -5.664488E-17  2.453319E-02  2.513478E-03  6.276994E-05  1.451624E-01  0.000000E+00
  4.418498E-01  1.099882E-02  1.000000E-01  4.508558E-01  1.342802E-03 -2.832244E-17  2.196469E-02  2.700573E-03  6.880065E-05  1.758764E-01  0.000000E+00
  4.721105E-01  1.501582E-02  1.000000E-01  4.817346E-01  5.441836E-03 -5.664488E-17  1.980040E-02  2.527766E-03  7.483793E-05  2.284422E-01  0.000000E+00
  5.024968E-01  1.873404E-02  1.000000E-01  5.127415E-01  9.235997E-03  1.416122E-17  1.849978E-02  2.081334E-03  8.109000E-05  2.838337E-01  0.000000E+00
  5.328693E-01  2.182259E-02  1.000000E-01  5.437343E-01  1.238763E-02 -4.248366E-17  1.785989E-02  1.675350E-03  8.781729E-05  3.110143E-01  0.000000E+00
  5.630297E-01  2.440498E-02  1.000000E-01  5.745107E-01  1.502275E-02  1.416122E-17  1.752244E-02  1.398682E-03  9.502408E-05  3.184727E-01  0.000000E+00
  5.927917E-01  2.660971E-02  1.000000E-01  6.048805E-01  1.727251E-02  5.664488E-17  1.721586E-02  1.213523E-03  1.022047E-04  3.243000E-01  0.000000E+00
  6.219828E-01  2.855945E-02  1.000000E-01  6.346678E-01  1.926208E-02 -4.248366E-17  1.679830E-02  1.071918E-03  1.086330E-04  3.337222E-01  0.000000E+00
  6.504533E-01  3.028484E-02  1.000000E-01  6.637197E-01  2.102270E-02  5.664488E-17  1.628213E-02  9.163917E-04  1.138927E-04  3.471848E-01  0.000000E+00
  6.780742E-01  3.170983E-02  1.000000E-01  6.919048E-01  2.247680E-02  4.531590E-16  1.577058E-02  7.164239E-04  1.180074E-04  3.627479E-01  0.000000E+00
  7.047326E-01  3.274258E-02  1.000000E-01  7.191076E-01  2.353064E-02  0.000000E+00  1.537536E-02  4.773357E-04  1.212859E-04  3.768835E-01  0.000000E+00
  1.215943E-04  9.345143E-03  1.000000E-01  1.060953E-04 -3.446524E-04 -5.664488E-17 -4.501775E-02  8.030349E-02  6.786301E-05  7.541491E-01  0.000000E+00
  4.902502E-03  3.677969E-03  1.000000E-01  4.984645E-03 -6.127569E-03 -8.496731E-17 -1.653781E-02  1.932830E-02  5.380575E-05  9.373565E-01  0.000000E+00
  1.254908E-02  3.878765E-05  1.000000E-01  1.278739E-02 -9.841075E-03 -2.832244E-17  8.011378E-03 -2.108612E-03  4.020777E-05  5.414994E-01  0.000000E+00
  2.163699E-02 -2.347500E-03  1.000000E-01  2.206091E-02 -1.227610E-02  1.416122E-17  2.169894E-02 -4.470642E-03  3.417426E-05  3.402808E-01  0.000000E+00
  3.184423E-02 -4.021599E-03  1.000000E-01  3.247661E-02 -1.398439E-02 -2.832244E-17  2.741644E-02 -3.594349E-03  3.325139E-05  3.065076E-01  0.000000E+00
  4.311596E-02 -5.193668E-03  1.000000E-01  4.397855E-02 -1.518039E-02 -8.496731E-17  2.960195E-02 -2.376871E-03  3.361402E-05  2.713438E-01  0.000000E+00
  5.546913E-02 -5.906868E-03  1.000000E-01  5.658401E-02 -1.590816E-02  1.416122E-17  3.026622E-02 -1.402873E-03  3.418010E-05  2.388423E-01  0.000000E+00
  6.891473E-02 -6.374859E-03  1.000000E-01  7.030422E-02 -1.638571E-02 -8.496731E-17  3.050462E-02 -8.706369E-04  3.479708E-05  2.268866E-01  0.000000E+00
  8.348882E-02 -6.704221E-03  1.000000E-01  8.517596E-02 -1.672180E-02  5.664488E-17  3.063172E-02 -5.208477E-04  3.532401E-05  2.148509E-01  0.000000E+00
  9.923792E-02 -6.888780E-03  1.000000E-01  1.012467E-01 -1.691013E-02 -9.912853E-17  3.060435E-02 -1.620805E-04  3.576291E-05  1.959441E-01  0.000000E+00
  1.162051E-01 -6.870688E-03  1.000000E-01  1.185604E-01 -1.689167E-02 -8.496731E-17  3.038575E-02  2.060835E-04  3.618589E-05  1.790914E-01  0.000000E+00
  1.344203E-01 -6.642273E-03  1.000000E-01  1.371476E-01 -1.665858E-02 -8.496731E-17  2.999964E-02  5.286637E-04  3.661541E-05  1.697775E-01  0.000000E+00
  1.539027E-01 -6.200494E-03  1.000000E-01  1.570280E-01 -1.620778E-02  4.389978E-16  2.946581E-02  8.068097E-04  3.703418E-05  1.647312E-01  0.000000E+00
  1.746592E-01 -5.534253E-03  1.000000E-01  1.782083E-01 -1.552794E-02  3.257080E-16  2.885912E-02  1.027487E-03  3.747610E-05  1.627824E-01  0.000000E+00
  1.966815E-01 -4.672039E-03  1.000000E-01  2.006804E-01 -1.464811E-02 -2.832244E-17  2.831031E-02  1.174974E-03  3.801481E-05  1.639499E-01  0.000000E+00
  2.199461E-01 -3.651864E-03  1.000000E-01  2.244202E-01 -1.360710E-02 -4.248366E-17  2.794952E-02  1.260972E-03  3.874307E-05  1.658021E-01  0.000000E+00
  2.444131E-01 -2.517295E-03  1.000000E-01  2.493868E-01 -1.244936E-02  3.823529E-16  2.788488E-02  1.290282E-03  3.980569E-05  1.665818E-01  0.000000E+00
  7.047326E-01  3.274258E-02  1.000000E-01  7.191076E-01  2.353064E-02 -2.832244E-17  1.537536E-02  4.773357E-04  1.212859E-04  3.768835E-01  0.000000E+00
  7.303325E-01  3.332601E-02  1.000000E-01  7.452303E-01  2.412598E-02 -2.832244E-17  1.518579E-02  2.118905E-04  1.241402E-04  3.873372E-01  0.000000E+00
  7.547951E-01  3.344021E-02  1.000000E-01  7.701926E-01  2.424252E-02  4.389978E-16  1.527599E-02 -8.330715E-05  1.269696E-04  3.939557E-01  0.000000E+00
  7.780600E-01  3.307154E-02  1.000000E-01  7.939326E-01  2.386632E-02  1.416122E-17  1.570096E-02 -4.229868E-04  1.300832E-04  3.964905E-01  0.000000E+00
  8.000833E-01  3.223303E-02  1.000000E-01  8.164057E-01  2.301068E-02 -4.248366E-17  1.647320E-02 -8.211687E-04  1.336359E-04  3.942311E-01  0.000000E+00
  8.208376E-01  3.095767E-02  1.000000E-01  8.375839E-01  2.170927E-02 -2.832244E-17  1.752667E-02 -1.261553E-03  1.375413E-04  3.861147E-01  0.000000E+00
  8.403144E-01  2.935341E-02  1.000000E-01  8.574585E-01  2.007225E-02  4.389978E-16  1.870145E-02 -1.678669E-03  1.414548E-04  3.713146E-01  0.000000E+00
  8.585258E-01  2.758293E-02  1.000000E-01  8.760418E-01  1.826561E-02  3.965141E-16  1.980155E-02 -2.005696E-03  1.448947E-04  3.523335E-01  0.000000E+00
  8.754993E-01  2.578963E-02  1.000000E-01  8.933620E-01  1.643569E-02 -2.832244E-17  2.068308E-02 -2.224832E-03  1.473612E-04  3.334040E-01  0.000000E+00
  8.912718E-01  2.405644E-02  1.000000E-01  9.094566E-01  1.466710E-02 -2.832244E-17  2.133086E-02 -2.394241E-03  1.485229E-04  3.182201E-01  0.000000E+00
  9.058836E-01  2.237615E-02  1.000000E-01  9.243668E-01  1.295249E-02 -4.248366E-17  2.187004E-02 -2.600036E-03  1.484623E-04  3.073907E-01  0.000000E+00
  9.193796E-01  2.071270E-02  1.000000E-01  9.381384E-01  1.125507E-02 -5.664488E-17  2.249354E-02 -2.870482E-03  1.479142E-04  2.962413E-01  0.000000E+00
  9.318118E-01  1.906636E-02  1.000000E-01  9.508245E-01  9.575100E-03  4.248366E-17  2.340498E-02 -3.222037E-03  1.483902E-04  2.820903E-01  0.000000E+00
  9.432349E-01  1.743141E-02  1.000000E-01  9.624809E-01  7.906764E-03 -2.832244E-17  2.464359E-02 -3.670881E-03  1.509915E-04  2.654696E-01  0.000000E+00
  9.537058E-01  1.580733E-02  1.000000E-01  9.731657E-01  6.249516E-03  0.000000E+00  2.556736E-02 -4.115480E-03  1.531717E-04  2.408043E-01  0.000000E+00
  9.632829E-01  1.419820E-02  1.000000E-01  9.829384E-01  4.607525E-03 -2.832244E-17  2.457308E-02 -4.301228E-03  1.467486E-04  2.060435E-01  0.000000E+00
  9.720275E-01  1.263641E-02  1.000000E-01  9.918616E-01  3.013831E-03  0.000000E+00  2.087254E-02 -3.745672E-03  1.266319E-04  2.035211E-01  0.000000E+00
  9.800000E-01  1.114377E-02  1.000000E-01  9.999969E-01  1.490712E-03  1.416122E-17  1.389216E-02  4.368112E-03  8.472827E-05 -1.027081E-02  0.000000E+00
  1.215943E-04  1.002581E-02  1.000000E-01  1.060953E-04  3.499205E-04 -9.912853E-17  2.284894E-02  5.302393E-02  3.361919E-05  4.623760E-01  0.000000E+00
  7.278129E-05  9.911152E-03  1.000000E-01  5.628530E-05  2.329169E-04  1.416122E-17  1.553909E-02  7.597143E-02  4.563335E-05  3.032951E-01  0.000000E+00
  1.762252E-05  9.682897E-03  1.000000E-01  0.000000E+00  0.000000E+00  0.000000E+00 -1.200450E-02  1.214145E-01  6.525568E-05  3.435808E-01  0.000000E+00
  8.694958E-05  9.457734E-03  1.000000E-01  7.074295E-05 -2.297621E-04  0.000000E+00 -5.047861E-02  1.310952E-01  7.426035E-05  3.925799E-01  0.000000E+00
  1.215943E-04  9.345143E-03  1.000000E-01  1.060953E-04 -3.446524E-04 -4.248366E-17 -4.501775E-02  8.030349E-02  6.786301E-05  7.541491E-01  0.000000E+00
  9.800000E-01  1.114377E-02  1.000000E-01  9.999969E-01  1.490712E-03  0.000000E+00  1.389216E-02  4.368112E-03  8.472827E-05 -1.027081E-02  0.000000E+00
  9.800000E-01  1.130631E-02  1.000000E-01  9.999969E-01  1.656568E-03  0.000000E+00  4.508886E-03 -1.541191E-03 -1.146096E-05 -2.111702E-01  0.000000E+00
  9.800000E-01  1.163138E-02  1.000000E-01  9.999969E-01  1.988280E-03 -2.832244E-17 -4.413861E-04 -1.596233E-02 -1.225175E-04 -1.755533E-01  0.000000E+00
  9.800000E-01  1.195646E-02  1.000000E-01  9.999969E-01  2.319993E-03 -5.664488E-17  3.434448E-03 -1.966228E-02 -1.902135E-04 -1.939592E-01  0.000000E+00
  9.800000E-01  1.211899E-02  1.000000E-01  9.999969E-01  2.485849E-03  0.000000E+00  1.060940E-02 -1.317904E-02 -2.139555E-04 -5.660411E-02  0.000000E+00
  2.628044E-01  9.886468E-02  1.000000E-01  2.681538E-01  9.100318E-02 -2.832244E-17  5.523727E-02  4.338709E-03 -3.370705E-05 -1.203451E+00  0.000000E+00
  2.368706E-01  9.651798E-02  1.000000E-01  2.416903E-01  8.860855E-02  3.681917E-16  5.746157E-02  5.945495E-03 -2.869591E-05 -1.243348E+00  0.000000E+00
  2.121362E-01  9.362908E-02  1.000000E-01  2.164507E-01  8.566065E-02  1.416122E-17  5.976713E-02  7.827454E-03 -2.441945E-05 -1.273964E+00  0.000000E+00
  1.886687E-01  9.021484E-02  1.000000E-01  1.925040E-01  8.217667E-02 -4.248366E-17  6.197314E-02  9.962559E-03 -2.063826E-05 -1.290393E+00  0.000000E+00
  1.665185E-01  8.630681E-02  1.000000E-01  1.699013E-01  7.818883E-02  4.814814E-16  6.385089E-02  1.228418E-02 -1.722221E-05 -1.290148E+00  0.000000E+00
  1.457161E-01  8.196144E-02  1.000000E-01  1.486742E-01  7.375471E-02  4.531590E-16  6.524698E-02  1.471862E-02 -1.410515E-05 -1.274779E+00  0.000000E+00
  1.262764E-01  7.723810E-02  1.000000E-01  1.288374E-01  6.893490E-02  0.000000E+00  6.614381E-02  1.722932E-02 -1.122514E-05 -1.249470E+00  0.000000E+00
  1.081990E-01  7.219623E-02  1.000000E-01  1.103908E-01  6.379006E-02  0.000000E+00  6.657769E-02  1.979255E-02 -8.482887E-06 -1.221317E+00  0.000000E+00
  9.146971E-02  6.689799E-02  1.000000E-01  9.331984E-02  5.838362E-02  0.000000E+00  6.665753E-02  2.256278E-02 -5.794085E-06 -1.185533E+00  0.000000E+00
  7.608258E-02  6.133889E-02  1.000000E-01  7.761846E-02  5.271098E-02  0.000000E+00  6.634120E-02  2.571112E-02 -3.126848E-06 -1.123791E+00  0.000000E+00
  6.202881E-02  5.550813E-02  1.000000E-01  6.327766E-02  4.676114E-02 -5.664488E-17  6.529178E-02  2.909851E-02 -4.916063E-07 -1.018903E+00  0.000000E+00
  4.929579E-02  4.942251E-02  1.000000E-01  5.028459E-02  4.055123E-02 -8.496731E-17  6.315234E-02  3.217677E-02  2.101450E-06 -8.758654E-01  0.000000E+00
  3.782553E-02  4.319266E-02  1.000000E-01  3.858007E-02  3.419414E-02  4.248366E-17  6.005741E-02  3.472744E-02  4.689865E-06 -7.214230E-01  0.000000E+00
  2.757469E-02  3.687233E-02  1.000000E-01  2.811988E-02  2.774473E-02 -2.832244E-17  5.650754E-02  3.698842E-02  7.509189E-06 -6.032375E-01  0.000000E+00
  1.848362E-02  3.053818E-02  1.000000E-01  1.884314E-02  2.128122E-02  5.664488E-17  5.317670E-02  4.040796E-02  1.130409E-05 -5.055971E-01  0.000000E+00
  1.064273E-02  2.406427E-02  1.000000E-01  1.084211E-02  1.467509E-02  1.416122E-17  4.941798E-02  4.661478E-02  1.749448E-05 -2.659240E-01  0.000000E+00
  4.262692E-03  1.730062E-02  1.000000E-01  4.331768E-03  7.773307E-03  1.416122E-17  4.006715E-02  5.385332E-02  2.634235E-05  2.457538E-01  0.000000E+00
  1.215943E-04  1.002581E-02  1.000000E-01  1.060953E-04  3.499205E-04 -8.496731E-17  2.284894E-02  5.302393E-02  3.361919E-05  4.623760E-01  0.000000E+00
    1    2
    2    3
    3    4
    4    5
    5    6
    6    7
    7    8
    8    9
    9   10
   10   11
   11   12
   12   13
   13   14
   14   15
   15   16
   16   17
   18   19
   19   20
   20   21
   21   22
   22   23
   23   24
   24   25
   25   26
   26   27
   27   28
   28   29
   29   30
   30   31
   31   32
   32   33
   33   34
   35   36
   36   37
   37   38
   38   39
   39   40
   40   41
   41   42
   42   43
   43   44
   44   45
   45   46
   46   47
   47   48
   48   49
   49   50
   50   51
   52   53
   53   54
   54   55
   55   56
   56   57
   57   58
   58   59
   59   60
   60   61
   61   62
   62   63
   63   64
   64   65
   65   66
   66   67
   67   68
   69   70
   70   71
   71   72
   72   73
   73   74
   74   75
   75   76
   76   77
   77   78
   78   79
   79   80
   80   81
   81   82
   82   83
   83   84
   84   85
   85   86
   87   88
   88   89
   89   90
   90   91
   92   93
   93   94
   94   95
   95   96
   97   98
   98   99
   99  100
  100  101
  101  102
  102  103
  103  104
  104  105
  105  106
  106  107
  107  108
  108  109
  109  110
  110  111
  111  112
  112  113
  113  114
Zone T= "Slice_0002 None Relative Regular z = 0.36666667"
 Nodes =          114  Elements=          106  ZONETYPE=FELINESEG
 DATAPACKING=POINT
  7.301402E-01  6.677080E-02  3.666667E-01  7.450348E-01  5.827636E-02 -5.664492E-17  2.564165E-02 -4.248325E-03 -6.490412E-04 -4.284926E-01  0.000000E+00
  7.043967E-01  7.089383E-02  3.666667E-01  7.187654E-01  6.248361E-02 -1.132898E-16  2.698170E-02 -4.168206E-03 -6.425353E-04 -4.630853E-01  0.000000E+00
  6.775455E-01  7.489549E-02  3.666667E-01  6.913658E-01  6.656700E-02  3.058826E-14  2.813869E-02 -4.046390E-03 -6.298299E-04 -4.957379E-01  0.000000E+00
  6.496792E-01  7.876055E-02  3.666667E-01  6.629304E-01  7.051100E-02 -1.699348E-16  2.914660E-02 -3.912581E-03 -6.112088E-04 -5.294964E-01  0.000000E+00
  6.209097E-01  8.249637E-02  3.666667E-01  6.335733E-01  7.432312E-02  0.000000E+00  3.010815E-02 -3.776991E-03 -5.873282E-04 -5.664635E-01  0.000000E+00
  5.913667E-01  8.607565E-02  3.666667E-01  6.034269E-01  7.797550E-02  1.132898E-16  3.114968E-02 -3.629887E-03 -5.589220E-04 -6.069948E-01  0.000000E+00
  5.611982E-01  8.945617E-02  3.666667E-01  5.726423E-01  8.142506E-02  2.265797E-16  3.236802E-02 -3.463888E-03 -5.264118E-04 -6.520096E-01  0.000000E+00
  5.305654E-01  9.258540E-02  3.666667E-01  5.413837E-01  8.461820E-02  1.132898E-16  3.383696E-02 -3.270352E-03 -4.900725E-04 -7.032802E-01  0.000000E+00
  4.996398E-01  9.541034E-02  3.666667E-01  5.098265E-01  8.750085E-02 -1.699348E-16  3.562718E-02 -3.025203E-03 -4.503135E-04 -7.619177E-01  0.000000E+00
  4.685986E-01  9.785461E-02  3.666667E-01  4.781513E-01  8.999504E-02  1.132898E-16  3.779430E-02 -2.682049E-03 -4.078315E-04 -8.263596E-01  0.000000E+00
  4.376215E-01  9.982272E-02  3.666667E-01  4.465416E-01  9.200335E-02 -5.664492E-17  4.032112E-02 -2.191039E-03 -3.634690E-04 -8.928532E-01  0.000000E+00
  4.068895E-01  1.012229E-01  3.666667E-01  4.151819E-01  9.343212E-02 -5.664492E-17  4.308849E-02 -1.514374E-03 -3.182409E-04 -9.567993E-01  0.000000E+00
  3.765814E-01  1.019841E-01  3.666667E-01  3.842548E-01  9.420883E-02  5.664492E-17  4.589566E-02 -6.543252E-04 -2.734005E-04 -1.015671E+00  0.000000E+00
  3.468696E-01  1.020922E-01  3.666667E-01  3.539362E-01  9.431915E-02 -5.664492E-17  4.857736E-02  3.690504E-04 -2.305989E-04 -1.068302E+00  0.000000E+00
  3.179133E-01  1.015497E-01  3.666667E-01  3.243885E-01  9.376557E-02  0.000000E+00  5.107580E-02  1.545633E-03 -1.915977E-04 -1.114256E+00  0.000000E+00
  2.898519E-01  1.003751E-01  3.666667E-01  2.957539E-01  9.256699E-02  5.664492E-17  5.340017E-02  2.853025E-03 -1.574660E-04 -1.156603E+00  0.000000E+00
  2.628044E-01  9.861018E-02  3.666667E-01  2.681540E-01  9.076604E-02  5.664492E-17  5.562142E-02  4.278689E-03 -1.283112E-04 -1.199379E+00  0.000000E+00
  9.800000E-01  1.174925E-02  3.666667E-01  9.999977E-01  2.131044E-03  5.664492E-17  1.059474E-02 -1.305903E-02 -6.590967E-04 -5.691668E-02  0.000000E+00
  9.720124E-01  1.385956E-02  3.666667E-01  9.918470E-01  4.284459E-03  0.000000E+00  1.214766E-02 -3.280876E-03 -6.207967E-04  6.964440E-02  0.000000E+00
  9.632634E-01  1.618533E-02  3.666667E-01  9.829193E-01  6.657733E-03  1.132898E-16  9.188791E-03 -2.379905E-03 -5.277101E-04  2.301960E-02  0.000000E+00
  9.536907E-01  1.871510E-02  3.666667E-01  9.731511E-01  9.239170E-03 -5.664492E-17  7.340285E-03 -1.928785E-03 -4.632112E-04  5.260908E-03  0.000000E+00
  9.432303E-01  2.143324E-02  3.666667E-01  9.624770E-01  1.201282E-02 -1.699348E-16  6.931317E-03 -1.784855E-03 -4.407206E-04 -1.436602E-02  0.000000E+00
  9.318220E-01  2.434323E-02  3.666667E-01  9.508357E-01  1.498224E-02 -5.664492E-17  7.647183E-03 -1.928830E-03 -4.485321E-04 -3.989033E-02  0.000000E+00
  9.194070E-01  2.744832E-02  3.666667E-01  9.381672E-01  1.815076E-02  0.000000E+00  9.000861E-03 -2.224338E-03 -4.714803E-04 -6.730128E-02  0.000000E+00
  9.059278E-01  3.074684E-02  3.666667E-01  9.244126E-01  2.151665E-02 -1.132898E-16  1.058808E-02 -2.557413E-03 -4.991193E-04 -9.647535E-02  0.000000E+00
  8.913299E-01  3.423312E-02  3.666667E-01  9.095166E-01  2.507413E-02  0.000000E+00  1.221114E-02 -2.876814E-03 -5.263980E-04 -1.279495E-01  0.000000E+00
  8.755643E-01  3.790212E-02  3.666667E-01  8.934290E-01  2.881807E-02 -1.132898E-16  1.384167E-02 -3.174433E-03 -5.519705E-04 -1.618396E-01  0.000000E+00
  8.585885E-01  4.174343E-02  3.666667E-01  8.761064E-01  3.273783E-02  3.098477E-14  1.551996E-02 -3.453182E-03 -5.760547E-04 -1.977338E-01  0.000000E+00
  8.403666E-01  4.573513E-02  3.666667E-01  8.575124E-01  3.681106E-02  3.098477E-14  1.725938E-02 -3.708115E-03 -5.983267E-04 -2.350388E-01  0.000000E+00
  8.208730E-01  4.984802E-02  3.666667E-01  8.376207E-01  4.100795E-02 -5.664492E-17  1.902782E-02 -3.927908E-03 -6.176422E-04 -2.734425E-01  0.000000E+00
  8.000947E-01  5.404987E-02  3.666667E-01  8.164181E-01  4.529562E-02 -5.664492E-17  2.078556E-02 -4.101045E-03 -6.330125E-04 -3.126853E-01  0.000000E+00
  7.780326E-01  5.830174E-02  3.666667E-01  7.939053E-01  4.963433E-02 -1.132898E-16  2.249948E-02 -4.217188E-03 -6.437789E-04 -3.522801E-01  0.000000E+00
  7.547032E-01  6.255877E-02  3.666667E-01  7.700994E-01  5.397830E-02  3.075819E-14  2.413337E-02 -4.267298E-03 -6.493274E-04 -3.912850E-01  0.000000E+00
  7.301402E-01  6.677080E-02  3.666667E-01  7.450348E-01  5.827636E-02 -5.664492E-17  2.564165E-02 -4.248325E-03 -6.490412E-04 -4.284926E-01  0.000000E+00
  2.444131E-01 -2.743427E-03  3.666667E-01  2.493870E-01 -1.265763E-02  3.092813E-14  2.813065E-02  1.259600E-03  1.349886E-04  1.651305E-01  0.000000E+00
  2.700250E-01 -1.601452E-03  3.666667E-01  2.755221E-01 -1.149233E-02  5.664492E-17  2.839682E-02  1.245138E-03  1.438629E-04  1.632631E-01  0.000000E+00
  2.967058E-01 -4.532571E-04  3.666667E-01  3.027478E-01 -1.032069E-02 -5.664492E-17  2.878897E-02  1.275867E-03  1.556537E-04  1.552064E-01  0.000000E+00
  3.243554E-01  8.045655E-04  3.666667E-01  3.309621E-01 -9.037176E-03  3.070155E-14  2.894582E-02  1.430486E-03  1.707644E-04  1.421850E-01  0.000000E+00
  3.528511E-01  2.322774E-03  3.666667E-01  3.600399E-01 -7.487960E-03 -5.664492E-17  2.846402E-02  1.728960E-03  1.889036E-04  1.305109E-01  0.000000E+00
  3.820469E-01  4.318566E-03  3.666667E-01  3.898319E-01 -5.451405E-03 -1.132898E-16  2.708481E-02  2.120793E-03  2.088379E-04  1.279771E-01  0.000000E+00
  4.117740E-01  6.960795E-03  3.666667E-01  4.201662E-01 -2.755211E-03  1.132898E-16  2.488686E-02  2.486187E-03  2.287270E-04  1.416563E-01  0.000000E+00
  4.418498E-01  1.032529E-02  3.666667E-01  4.508562E-01  6.779964E-04 -1.699348E-16  2.231280E-02  2.686132E-03  2.470555E-04  1.718051E-01  0.000000E+00
  4.721105E-01  1.426022E-02  3.666667E-01  4.817350E-01  4.693299E-03 -1.132898E-16  2.014085E-02  2.521327E-03  2.642771E-04  2.239391E-01  0.000000E+00
  5.024968E-01  1.790117E-02  3.666667E-01  5.127419E-01  8.408610E-03  5.664492E-17  1.883582E-02  2.076509E-03  2.814931E-04  2.790257E-01  0.000000E+00
  5.328693E-01  2.092155E-02  3.666667E-01  5.437347E-01  1.149068E-02 -2.265797E-16  1.819252E-02  1.671460E-03  2.992042E-04  3.058655E-01  0.000000E+00
  5.630297E-01  2.344870E-02  3.666667E-01  5.745112E-01  1.406945E-02  1.132898E-16  1.784879E-02  1.397788E-03  3.177725E-04  3.129315E-01  0.000000E+00
  5.927917E-01  2.561373E-02  3.666667E-01  6.048810E-01  1.627870E-02  0.000000E+00  1.753055E-02  1.217543E-03  3.361692E-04  3.184419E-01  0.000000E+00
  6.219828E-01  2.754050E-02  3.666667E-01  6.346684E-01  1.824482E-02  5.664492E-17  1.709527E-02  1.081730E-03  3.525195E-04  3.277169E-01  0.000000E+00
  6.504533E-01  2.925949E-02  3.666667E-01  6.637203E-01  1.999891E-02 -1.132898E-16  1.655700E-02  9.312736E-04  3.659045E-04  3.412109E-01  0.000000E+00
  6.780742E-01  3.069313E-02  3.666667E-01  6.919053E-01  2.146184E-02  3.092813E-14  1.602182E-02  7.347142E-04  3.765796E-04  3.569460E-01  0.000000E+00
  7.047326E-01  3.174691E-02  3.666667E-01  7.191082E-01  2.253714E-02 -5.664492E-17  1.560418E-02  4.975147E-04  3.853925E-04  3.713336E-01  0.000000E+00
  1.215943E-04  9.323070E-03  3.666667E-01  1.060954E-04 -3.446887E-04 -2.265797E-16 -4.413332E-02  7.876816E-02  2.111634E-04  7.580385E-01  0.000000E+00
  4.902502E-03  3.654218E-03  3.666667E-01  4.984649E-03 -6.129322E-03  5.664492E-17 -1.590333E-02  1.875087E-02  1.645473E-04  9.352401E-01  0.000000E+00
  1.254908E-02  1.219954E-05  3.666667E-01  1.278740E-02 -9.845726E-03  2.265797E-16  8.384334E-03 -2.261973E-03  1.211587E-04  5.375258E-01  0.000000E+00
  2.163699E-02 -2.377694E-03  3.666667E-01  2.206093E-02 -1.228443E-02  5.664492E-17  2.193527E-02 -4.531591E-03  1.021666E-04  3.367554E-01  0.000000E+00
  3.184423E-02 -4.056150E-03  3.666667E-01  3.247664E-02 -1.399717E-02  0.000000E+00  2.763367E-02 -3.635958E-03  9.923946E-05  3.036892E-01  0.000000E+00
  4.311596E-02 -5.233418E-03  3.666667E-01  4.397859E-02 -1.519848E-02 -1.132898E-16  2.983088E-02 -2.410185E-03  1.003800E-04  2.689231E-01  0.000000E+00
  5.546913E-02 -5.952800E-03  3.666667E-01  5.658406E-02 -1.593256E-02 -5.664492E-17  3.050293E-02 -1.430396E-03  1.021980E-04  2.366208E-01  0.000000E+00
  6.891473E-02 -6.428123E-03  3.666667E-01  7.030427E-02 -1.641759E-02  1.699348E-16  3.074485E-02 -8.956369E-04  1.042896E-04  2.248521E-01  0.000000E+00
  8.348882E-02 -6.766182E-03  3.666667E-01  8.517603E-02 -1.676255E-02  2.832246E-16  3.087452E-02 -5.448347E-04  1.063109E-04  2.129990E-01  0.000000E+00
  9.923792E-02 -6.961068E-03  3.666667E-01  1.012468E-01 -1.696142E-02 -1.132898E-16  3.084856E-02 -1.850975E-04  1.083223E-04  1.942323E-01  0.000000E+00
  1.162051E-01 -6.955254E-03  3.666667E-01  1.185605E-01 -1.695548E-02  5.664492E-17  3.062912E-02  1.839978E-04  1.105741E-04  1.774780E-01  0.000000E+00
  1.344203E-01 -6.741444E-03  3.666667E-01  1.371477E-01 -1.673731E-02  0.000000E+00  3.023977E-02  5.069897E-04  1.131560E-04  1.682439E-01  0.000000E+00
  1.539027E-01 -6.317053E-03  3.666667E-01  1.570281E-01 -1.630425E-02  3.064490E-14  2.970105E-02  7.850155E-04  1.160355E-04  1.632657E-01  0.000000E+00
  1.746592E-01 -5.671519E-03  3.666667E-01  1.782085E-01 -1.564553E-02  3.109806E-14  2.908981E-02  1.004887E-03  1.193418E-04  1.613657E-01  0.000000E+00
  1.966815E-01 -4.833962E-03  3.666667E-01  2.006806E-01 -1.479087E-02 -1.132898E-16  2.853974E-02  1.150679E-03  1.233405E-04  1.625558E-01  0.000000E+00
  2.199461E-01 -3.843131E-03  3.666667E-01  2.244204E-01 -1.377980E-02 -1.699348E-16  2.818343E-02  1.234052E-03  1.283784E-04  1.643995E-01  0.000000E+00
  2.444131E-01 -2.743427E-03  3.666667E-01  2.493870E-01 -1.265763E-02  3.092813E-14  2.813065E-02  1.259600E-03  1.349886E-04  1.651305E-01  0.000000E+00
  7.047326E-01  3.174691E-02  3.666667E-01  7.191082E-01  2.253714E-02 -5.664492E-17  1.560418E-02  4.975147E-04  3.853925E-04  3.713336E-01  0.000000E+00