 Title= "ADflow Lift Distribution Data"
Variables = "eta" "CoordinateX" "CoordinateY" "CoordinateZ" "Lift" "Drag" "Moment" "Normalized Lift" "Normalized Drag" "Normalized Moment" "CL" "CD" "CM" "CLp" "CDp" "CMp" "CLv" "CDv" "CMv" "Elliptical" "thickness" "twist" "chord" "fx" "fy" "fz" 
Zone T= "LiftDist_01 allWalls: : z normal"
 I=          150
 DATAPACKING=BLOCK
  0.000000E+00
  6.711405E-03
  1.342281E-02
  2.013422E-02
  2.684563E-02
  3.355704E-02
  4.026845E-02
  4.697986E-02
  5.369127E-02
  6.040268E-02
  6.711409E-02
  7.382550E-02
  8.053691E-02
  8.724832E-02
  9.395973E-02
  1.006711E-01
  1.073825E-01
  1.140940E-01
  1.208054E-01
  1.275168E-01
  1.342282E-01
  1.409396E-01
  1.476510E-01
  1.543624E-01
  1.610738E-01
  1.677852E-01
  1.744966E-01
  1.812081E-01
  1.879195E-01
  1.946309E-01
  2.013423E-01
  2.080537E-01
  2.147651E-01
  2.214765E-01
  2.281879E-01
  2.348993E-01
  2.416107E-01
  2.483221E-01
  2.550336E-01
  2.617450E-01
  2.684564E-01
  2.751678E-01
  2.818792E-01
  2.885906E-01
  2.953020E-01
  3.020134E-01
  3.087248E-01
  3.154362E-01
  3.221476E-01
  3.288591E-01
  3.355705E-01
  3.422819E-01
  3.489933E-01
  3.557047E-01
  3.624161E-01
  3.691275E-01
  3.758389E-01
  3.825503E-01
  3.892617E-01
  3.959732E-01
  4.026846E-01
  4.093960E-01
  4.161074E-01
  4.228188E-01
  4.295302E-01
  4.362416E-01
  4.429530E-01
  4.496644E-01
  4.563758E-01
  4.630872E-01
  4.697987E-01
  4.765101E-01
  4.832215E-01
  4.899329E-01
  4.966443E-01
  5.033557E-01
  5.100671E-01
  5.167785E-01
  5.234899E-01
  5.302013E-01
  5.369128E-01
  5.436242E-01
  5.503356E-01
  5.570470E-01
  5.637584E-01
  5.704698E-01
  5.771812E-01
  5.838926E-01
  5.906040E-01
  5.973154E-01
  6.040268E-01
  6.107383E-01
  6.174497E-01
  6.241611E-01
  6.308725E-01
  6.375839E-01
  6.442953E-01
  6.510067E-01
  6.577181E-01
  6.644295E-01
  6.711409E-01
  6.778524E-01
  6.845638E-01
  6.912752E-01
  6.979866E-01
  7.046980E-01
  7.114094E-01
  7.181208E-01
  7.248322E-01
  7.315436E-01
  7.382550E-01
  7.449664E-01
  7.516779E-01
  7.583893E-01
  7.651007E-01
  7.718121E-01
  7.785235E-01
  7.852349E-01
  7.919463E-01
  7.986577E-01
  8.053691E-01
  8.120805E-01
  8.187919E-01
  8.255034E-01
  8.322148E-01
  8.389262E-01
  8.456376E-01
  8.523490E-01
  8.590604E-01
  8.657718E-01
  8.724832E-01
  8.791946E-01
  8.859060E-01
  8.926175E-01
  8.993289E-01
  9.060403E-01
  9.127517E-01
  9.194631E-01
  9.261745E-01
  9.328859E-01
  9.395973E-01
  9.463087E-01
  9.530201E-01
  9.597315E-01
  9.664430E-01
  9.731544E-01
  9.798658E-01
  9.865772E-01
  9.932886E-01
  1.000000E+00
  0.000000E+00
  0.000000E+00
  0.000000E+00
  0.000000E+00
  0.000000E+00
  0.000000E+00
  0.000000E+00
  0.000000E+00
  0.000000E+00
  0.000000E+00
  0.000000E+00
  0.000000E+00
  0.000000E+00
  0.000000E+00
  0.000000E+00
  0.000000E+00
  0.000000E+00
  0.000000E+00
  0.000000E+00
  0.000000E+00
  0.000000E+00
  0.000000E+00
  0.000000E+00
  0.000000E+00
  0.000000E+00
  0.000000E+00
  0.000000E+00
  0.000000E+00
  0.000000E+00
  0.000000E+00
  0.000000E+00
  0.000000E+00
  0.000000E+00
  0.000000E+00
  0.000000E+00
  0.000000E+00
  0.000000E+00
  0.000000E+00
  0.000000E+00
  0.000000E+00
  0.000000E+00
  0.000000E+00
  0.000000E+00
  0.000000E+00
  0.000000E+00
  0.000000E+00
  0.000000E+00
  0.000000E+00
  0.000000E+00
  0.000000E+00
  0.000000E+00
  0.000000E+00
  0.000000E+00
  0.000000E+00
  0.000000E+00
  0.000000E+00
  0.000000E+00
  0.000000E+00
  0.000000E+00
  0.000000E+00
  0.000000E+00
  0.000000E+00
  0.000000E+00
  0.000000E+00
  0.000000E+00
  0.000000E+00
  0.000000E+00
  0.000000E+00
  0.000000E+00
  0.000000E+00
  0.000000E+00
  0.000000E+00
  0.000000E+00
  0.000000E+00
  0.000000E+00
  0.000000E+00
  0.000000E+00
  0.000000E+00
  0.000000E+00
  0.000000E+00
  0.000000E+00
  0.000000E+00
  0.000000E+00
  0.000000E+00
  0.000000E+00
  0.000000E+00
  0.000000E+00
  0.000000E+00
  0.000000E+00
  0.000000E+00
  0.000000E+00
  0.000000E+00
  0.000000E+00
  0.000000E+00
  0.000000E+00
  0.000000E+00
  0.000000E+00
  0.000000E+00
  0.000000E+00
  0.000000E+00
  0.000000E+00
  0.000000E+00
  0.000000E+00
  0.000000E+00
  0.000000E+00
  0.000000E+00
  0.000000E+00
  0.000000E+00
  0.000000E+00
  0.000000E+00
  0.000000E+00
  0.000000E+00
  0.000000E+00
  0.000000E+00
  0.000000E+00
  0.000000E+00
  0.000000E+00
  0.000000E+00
  0.000000E+00
  0.000000E+00
  0.000000E+00
  0.000000E+00
  0.000000E+00
  0.000000E+00
  0.000000E+00
  0.000000E+00
  0.000000E+00
  0.000000E+00
  0.000000E+00
  0.000000E+00
  0.000000E+00
  0.000000E+00
  0.000000E+00
  0.000000E+00
  0.000000E+00
  0.000000E+00
  0.000000E+00
  0.000000E+00
  0.000000E+00
  0.000000E+00
  0.000000E+00
  0.000000E+00
  0.000000E+00
  0.000000E+00
  0.000000E+00
  0.000000E+00
  0.000000E+00
  0.000000E+00
  0.000000E+00
  0.000000E+00
  0.000000E+00
  0.000000E+00
  0.000000E+00
  0.000000E+00
  0.000000E+00
  0.000000E+00
  0.000000E+00
  0.000000E+00
  0.000000E+00
  0.000000E+00
  0.000000E+00
  0.000000E+00
  0.000000E+00
  0.000000E+00
  0.000000E+00
  0.000000E+00
  0.000000E+00
  0.000000E+00
  0.000000E+00
  0.000000E+00
  0.000000E+00
  0.000000E+00
  0.000000E+00
  0.000000E+00
  0.000000E+00
  0.000000E+00
  0.000000E+00
  0.000000E+00
  0.000000E+00
  0.000000E+00
  0.000000E+00
  0.000000E+00
  0.000000E+00
  0.000000E+00
  0.000000E+00
  0.000000E+00
  0.000000E+00
  0.000000E+00
  0.000000E+00
  0.000000E+00
  0.000000E+00
  0.000000E+00
  0.000000E+00
  0.000000E+00
  0.000000E+00
  0.000000E+00
  0.000000E+00
  0.000000E+00
  0.000000E+00
  0.000000E+00
  0.000000E+00
  0.000000E+00
  0.000000E+00
  0.000000E+00
  0.000000E+00
  0.000000E+00
  0.000000E+00
  0.000000E+00
  0.000000E+00
  0.000000E+00
  0.000000E+00
  0.000000E+00
  0.000000E+00
  0.000000E+00
  0.000000E+00
  0.000000E+00
  0.000000E+00
  0.000000E+00
  0.000000E+00
  0.000000E+00
  0.000000E+00
  0.000000E+00
  0.000000E+00
  0.000000E+00
  0.000000E+00
  0.000000E+00
  0.000000E+00
  0.000000E+00
  0.000000E+00
  0.000000E+00
  0.000000E+00
  0.000000E+00
  0.000000E+00
  0.000000E+00
  0.000000E+00
  0.000000E+00
  0.000000E+00
  0.000000E+00
  0.000000E+00
  0.000000E+00
  0.000000E+00
  0.000000E+00
  0.000000E+00
  0.000000E+00
  0.000000E+00
  0.000000E+00
  0.000000E+00
  0.000000E+00
  0.000000E+00
  0.000000E+00
  0.000000E+00
  0.000000E+00
  0.000000E+00
  0.000000E+00
  0.000000E+00
  0.000000E+00
  0.000000E+00
  0.000000E+00
  0.000000E+00
  0.000000E+00
  0.000000E+00
  0.000000E+00
  0.000000E+00
  0.000000E+00
  0.000000E+00
  0.000000E+00
  0.000000E+00
  0.000000E+00
  0.000000E+00
  0.000000E+00
  0.000000E+00
  0.000000E+00
  0.000000E+00
  0.000000E+00
  0.000000E+00
  0.000000E+00
  0.000000E+00
  0.000000E+00
  0.000000E+00
  0.000000E+00
  0.000000E+00
  0.000000E+00
  0.000000E+00
  0.000000E+00
  0.000000E+00
  0.000000E+00
  0.000000E+00
  0.000000E+00
  0.000000E+00
  0.000000E+00
  0.000000E+00
  0.000000E+00
  0.000000E+00
  0.000000E+00
  0.000000E+00
  0.000000E+00
  0.000000E+00
  0.000000E+00
  0.000000E+00
  0.000000E+00
  1.000000E-08
  1.695085E-02
  3.390169E-02
  5.085254E-02
  6.780338E-02
  8.475423E-02
  1.017051E-01
  1.186559E-01
  1.356068E-01
  1.525576E-01
  1.695085E-01
  1.864593E-01
  2.034101E-01
  2.203610E-01
  2.373118E-01
  2.542627E-01
  2.712135E-01
  2.881644E-01
  3.051152E-01
  3.220661E-01
  3.390169E-01
  3.559678E-01
  3.729186E-01
  3.898694E-01
  4.068203E-01
  4.237711E-01
  4.407220E-01
  4.576728E-01
  4.746237E-01
  4.915745E-01
  5.085254E-01
  5.254762E-01
  5.424271E-01
  5.593779E-01
  5.763287E-01
  5.932796E-01
  6.102304E-01
  6.271813E-01
  6.441321E-01
  6.610830E-01
  6.780338E-01
  6.949847E-01
  7.119355E-01
  7.288864E-01
  7.458372E-01
  7.627880E-01
  7.797389E-01
  7.966897E-01
  8.136406E-01
  8.305914E-01
  8.475423E-01
  8.644931E-01
  8.814440E-01
  8.983948E-01
  9.153457E-01
  9.322965E-01
  9.492473E-01
  9.661982E-01
  9.831490E-01
  1.000100E+00
  1.017051E+00
  1.034002E+00
  1.050952E+00
  1.067903E+00
  1.084854E+00
  1.101805E+00
  1.118756E+00
  1.135707E+00
  1.152657E+00
  1.169608E+00
  1.186559E+00
  1.203510E+00
  1.220461E+00
  1.237412E+00
  1.254363E+00
  1.271313E+00
  1.288264E+00
  1.305215E+00
  1.322166E+00
  1.339117E+00
  1.356068E+00
  1.373018E+00
  1.389969E+00
  1.406920E+00
  1.423871E+00
  1.440822E+00
  1.457773E+00
  1.474724E+00
  1.491674E+00
  1.508625E+00
  1.525576E+00
  1.542527E+00
  1.559478E+00
  1.576429E+00
  1.593379E+00
  1.610330E+00
  1.627281E+00
  1.644232E+00
  1.661183E+00
  1.678134E+00
  1.695085E+00
  1.712035E+00
  1.728986E+00
  1.745937E+00
  1.762888E+00
  1.779839E+00
  1.796790E+00
  1.813740E+00
  1.830691E+00
  1.847642E+00
  1.864593E+00
  1.881544E+00
  1.898495E+00
  1.915446E+00
  1.932396E+00
  1.949347E+00
  1.966298E+00
  1.983249E+00
  2.000200E+00
  2.017151E+00
  2.034101E+00
  2.051052E+00
  2.068003E+00
  2.084954E+00
  2.101905E+00
  2.118856E+00
  2.135807E+00
  2.152757E+00
  2.169708E+00
  2.186659E+00
  2.203610E+00
  2.220561E+00
  2.237512E+00
  2.254462E+00
  2.271413E+00
  2.288364E+00
  2.305315E+00
  2.322266E+00
  2.339217E+00
  2.356168E+00
  2.373118E+00
  2.390069E+00
  2.407020E+00
  2.423971E+00
  2.440922E+00
  2.457873E+00
  2.474823E+00
  2.491774E+00
  2.508725E+00
  2.525676E+00
  1.106507E+04
  1.106320E+04
  1.106133E+04
  1.105946E+04
  1.105760E+04
  1.105573E+04
  1.105386E+04
  1.105200E+04
  1.105013E+04
  1.104458E+04
  1.103893E+04
  1.103329E+04
  1.102765E+04
  1.102201E+04
  1.101636E+04
  1.101072E+04
  1.100387E+04
  1.099479E+04
  1.098572E+04
  1.097664E+04
  1.096757E+04
  1.095850E+04
  1.094942E+04
  1.094000E+04
  1.092777E+04
  1.091555E+04
  1.090332E+04
  1.089110E+04
  1.087887E+04
  1.086665E+04
  1.085366E+04
  1.083812E+04
  1.082257E+04
  1.080703E+04
  1.079149E+04
  1.077596E+04
  1.076042E+04
  1.074251E+04
  1.072357E+04
  1.070462E+04
  1.068568E+04
  1.066674E+04
  1.064780E+04
  1.062724E+04
  1.060497E+04
  1.058270E+04
  1.056042E+04
  1.053815E+04
  1.051589E+04
  1.049168E+04
  1.046611E+04
  1.044054E+04
  1.041497E+04
  1.038941E+04
  1.036385E+04
  1.033504E+04
  1.030619E+04
  1.027734E+04
  1.024849E+04
  1.021964E+04
  1.018867E+04
  1.015661E+04
  1.012456E+04
  1.009250E+04
  1.006045E+04
  1.002643E+04
  9.991126E+03
  9.955821E+03
  9.920520E+03
  9.885222E+03
  9.847120E+03
  9.808317E+03
  9.769517E+03
  9.730721E+03
  9.691048E+03
  9.648521E+03
  9.605996E+03
  9.563473E+03
  9.520952E+03
  9.474996E+03
  9.428656E+03
  9.382318E+03
  9.335981E+03
  9.286693E+03
  9.236575E+03
  9.186459E+03
  9.136344E+03
  9.083272E+03
  9.029748E+03
  8.976227E+03
  8.922280E+03
  8.865901E+03
  8.809526E+03
  8.753157E+03
  8.695176E+03
  8.636206E+03
  8.577247E+03
  8.517627E+03
  8.456139E+03
  8.394675E+03
  8.333062E+03
  8.269337E+03
  8.205651E+03
  8.141882E+03
  8.075720E+03
  8.009605E+03
  7.942965E+03
  7.873601E+03
  7.804283E+03
  7.733257E+03
  7.660024E+03
  7.586833E+03
  7.510026E+03
  7.432568E+03
  7.353474E+03
  7.271637E+03
  7.189681E+03
  7.103493E+03
  7.017325E+03
  6.927706E+03
  6.837274E+03
  6.743932E+03
  6.649304E+03
  6.551836E+03
  6.453062E+03
  6.351196E+03
  6.248442E+03
  6.142137E+03
  6.034896E+03
  5.925111E+03
  5.813490E+03
  5.700524E+03
  5.584853E+03
  5.467573E+03
  5.348590E+03
  5.227161E+03
  5.103103E+03
  4.976749E+03
  4.848287E+03
  4.719017E+03
  4.593257E+03
  4.481369E+03
  4.401079E+03
  4.387658E+03
  4.478269E+03
  4.441673E+03
  4.001587E+03
  4.498088E+03
  1.343655E+03
 -1.148346E-04
  6.297588E+02
  6.296974E+02
  6.296359E+02
  6.295745E+02
  6.295131E+02
  6.294516E+02
  6.293902E+02
  6.293288E+02
  6.292674E+02
  6.291278E+02
  6.289862E+02
  6.288446E+02
  6.287030E+02
  6.285615E+02
  6.284199E+02
  6.282784E+02
  6.281354E+02
  6.279899E+02
  6.278444E+02
  6.276989E+02
  6.275535E+02
  6.274080E+02
  6.272625E+02
  6.271136E+02
  6.269374E+02
  6.267612E+02
  6.265850E+02
  6.264088E+02
  6.262326E+02
  6.260564E+02
  6.258582E+02
  6.255871E+02
  6.253160E+02
  6.250448E+02
  6.247737E+02
  6.245025E+02
  6.242312E+02
  6.238875E+02
  6.235121E+02
  6.231366E+02
  6.227610E+02
  6.223854E+02
  6.220098E+02
  6.215750E+02
  6.210778E+02
  6.205805E+02
  6.200831E+02
  6.195857E+02
  6.190881E+02
  6.184719E+02
  6.177725E+02
  6.170730E+02
  6.163733E+02
  6.156736E+02
  6.149737E+02
  6.139947E+02
  6.130113E+02
  6.120277E+02
  6.110439E+02
  6.100600E+02
  6.088926E+02
  6.076309E+02
  6.063691E+02
  6.051071E+02
  6.038450E+02
  6.024436E+02
  6.009507E+02
  5.994576E+02
  5.979643E+02
  5.964707E+02
  5.948460E+02
  5.931881E+02
  5.915298E+02
  5.898713E+02
  5.882018E+02
  5.864974E+02
  5.847927E+02
  5.830875E+02
  5.813820E+02
  5.796355E+02
  5.778841E+02
  5.761325E+02
  5.743806E+02
  5.724481E+02
  5.704647E+02
  5.684809E+02
  5.664969E+02
  5.641735E+02
  5.617979E+02
  5.594223E+02
  5.569740E+02
  5.541140E+02
  5.512546E+02
  5.483958E+02
  5.450990E+02
  5.415334E+02
  5.379706E+02
  5.341855E+02
  5.297747E+02
  5.253707E+02
  5.209283E+02
  5.159397E+02
  5.109618E+02
  5.059838E+02
  5.008052E+02
  4.956384E+02
  4.904865E+02
  4.853621E+02
  4.802480E+02
  4.752412E+02
  4.703676E+02
  4.655011E+02
  4.609748E+02
  4.565151E+02
  4.522493E+02
  4.483011E+02
  4.443723E+02
  4.409930E+02
  4.376121E+02
  4.347229E+02
  4.319487E+02
  4.295845E+02
  4.274003E+02
  4.255798E+02
  4.239265E+02
  4.226626E+02
  4.215120E+02
  4.208568E+02
  4.203581E+02
  4.202886E+02
  4.206092E+02
  4.212301E+02
  4.225696E+02
  4.244327E+02
  4.268740E+02
  4.302114E+02
  4.346387E+02
  4.402251E+02
  4.473705E+02
  4.568082E+02
  4.700096E+02
  4.898104E+02
  5.208513E+02
  5.713008E+02
  6.491357E+02
  7.177123E+02
  7.307049E+02
  8.824667E+02
  2.124348E+02
  3.890810E-04
  1.812684E+03
  1.811997E+03
  1.811310E+03
  1.810623E+03
  1.809936E+03
  1.809249E+03
  1.808563E+03
  1.807876E+03
  1.807189E+03
  1.805542E+03
  1.803872E+03
  1.802201E+03
  1.800531E+03
  1.798860E+03
  1.797190E+03
  1.795520E+03
  1.793675E+03
  1.791509E+03
  1.789344E+03
  1.787179E+03
  1.785014E+03
  1.782849E+03
  1.780684E+03
  1.778453E+03
  1.775689E+03
  1.772926E+03
  1.770162E+03
  1.767399E+03
  1.764636E+03
  1.761872E+03
  1.758948E+03
  1.755487E+03
  1.752026E+03
  1.748565E+03
  1.745105E+03
  1.741644E+03
  1.738184E+03
  1.734254E+03
  1.730118E+03
  1.725983E+03
  1.721848E+03
  1.717713E+03
  1.713578E+03
  1.709147E+03
  1.704405E+03
  1.699662E+03
  1.694919E+03
  1.690177E+03
  1.685435E+03
  1.680370E+03
  1.675079E+03
  1.669788E+03
  1.664497E+03
  1.659207E+03
  1.653917E+03
  1.648183E+03
  1.642442E+03
  1.636703E+03
  1.630963E+03
  1.625224E+03
  1.619271E+03
  1.613207E+03
  1.607145E+03
  1.601083E+03
  1.595022E+03
  1.588767E+03
  1.582386E+03
  1.576006E+03
  1.569627E+03
  1.563249E+03
  1.556606E+03
  1.549898E+03
  1.543191E+03
  1.536484E+03
  1.529752E+03
  1.522935E+03
  1.516118E+03
  1.509302E+03
  1.502486E+03
  1.495692E+03
  1.488900E+03
  1.482109E+03
  1.475318E+03
  1.468406E+03
  1.461459E+03
  1.454513E+03
  1.447567E+03
  1.440525E+03
  1.433470E+03
  1.426415E+03
  1.419391E+03
  1.412542E+03
  1.405695E+03
  1.398849E+03
  1.392069E+03
  1.385331E+03
  1.378599E+03
  1.371775E+03
  1.364694E+03
  1.357624E+03
  1.350527E+03
  1.343006E+03
  1.335502E+03
  1.327988E+03
  1.319972E+03
  1.311978E+03
  1.303827E+03
  1.294841E+03
  1.285877E+03
  1.276270E+03
  1.265832E+03
  1.255413E+03
  1.243557E+03
  1.231442E+03
  1.218672E+03
  1.204800E+03
  1.190880E+03
  1.175275E+03
  1.159675E+03
  1.142804E+03
  1.125631E+03
  1.107576E+03
  1.089132E+03
  1.070049E+03
  1.050673E+03
  1.030854E+03
  1.010910E+03
  9.908075E+02
  9.707668E+02
  9.509332E+02
  9.315254E+02
  9.124541E+02
  8.944146E+02
  8.771757E+02
  8.608118E+02
  8.457973E+02
  8.323401E+02
  8.205033E+02
  8.109380E+02
  8.050679E+02
  8.061851E+02
  8.213902E+02
  8.625970E+02
  9.482711E+02
  1.092742E+03
  1.203244E+03
  1.135617E+03
  1.287155E+03
  2.071035E+02
 -8.402637E-11
  1.245135E+00
  1.244925E+00
  1.244715E+00
  1.244505E+00
  1.244295E+00
  1.244084E+00
  1.243874E+00
  1.243664E+00
  1.243454E+00
  1.242829E+00
  1.242194E+00
  1.241559E+00
  1.240924E+00
  1.240290E+00
  1.239655E+00
  1.239020E+00
  1.238248E+00
  1.237227E+00
  1.236206E+00
  1.235185E+00
  1.234164E+00
  1.233143E+00
  1.232122E+00
  1.231061E+00
  1.229686E+00
  1.228310E+00
  1.226934E+00
  1.225559E+00
  1.224183E+00
  1.222807E+00
  1.221345E+00
  1.219597E+00
  1.217848E+00
  1.216099E+00
  1.214350E+00
  1.212602E+00
  1.210853E+00
  1.208838E+00
  1.206707E+00
  1.204575E+00
  1.202444E+00
  1.200312E+00
  1.198181E+00
  1.195867E+00
  1.193361E+00
  1.190855E+00
  1.188348E+00
  1.185842E+00
  1.183337E+00
  1.180612E+00
  1.177735E+00
  1.174858E+00
  1.171981E+00
  1.169105E+00
  1.166228E+00
  1.162987E+00
  1.159740E+00
  1.156493E+00
  1.153247E+00
  1.150001E+00
  1.146516E+00
  1.142908E+00
  1.139301E+00
  1.135694E+00
  1.132087E+00
  1.128259E+00
  1.124286E+00
  1.120313E+00
  1.116341E+00
  1.112369E+00
  1.108081E+00
  1.103715E+00
  1.099349E+00
  1.094983E+00
  1.090519E+00
  1.085733E+00
  1.080948E+00
  1.076163E+00
  1.071378E+00
  1.066207E+00
  1.060992E+00
  1.055778E+00
  1.050564E+00
  1.045017E+00
  1.039378E+00
  1.033738E+00
  1.028099E+00
  1.022127E+00
  1.016104E+00
  1.010081E+00
  1.004011E+00
  9.976663E-01
  9.913226E-01
  9.849794E-01
  9.784549E-01
  9.718191E-01
  9.651846E-01
  9.584756E-01
  9.515564E-01
  9.446400E-01
  9.377067E-01
  9.305359E-01
  9.233694E-01
  9.161935E-01
  9.087485E-01
  9.013087E-01
  8.938097E-01
  8.860043E-01
  8.782041E-01
  8.702116E-01
  8.619709E-01
  8.537347E-01
  8.450917E-01
  8.363755E-01
  8.274753E-01
  8.182662E-01
  8.090438E-01
  7.993453E-01
  7.896489E-01
  7.795642E-01
  7.693881E-01
  7.588843E-01
  7.482360E-01
  7.372682E-01
  7.261533E-01
  7.146904E-01
  7.031277E-01
  6.911653E-01
  6.790976E-01
  6.667437E-01
  6.541832E-01
  6.414712E-01
  6.284550E-01
  6.152576E-01
  6.018687E-01
  5.882045E-01
  5.742444E-01
  5.600260E-01
  5.455704E-01
  5.310238E-01
  5.168722E-01
  5.042817E-01
  4.952468E-01
  4.937364E-01
  5.039328E-01
  4.998147E-01
  4.502924E-01
  5.061630E-01
  1.511995E-01
 -1.292217E-08
  1.124403E+00
  1.124294E+00
  1.124184E+00
  1.124074E+00
  1.123965E+00
  1.123855E+00
  1.123745E+00
  1.123636E+00
  1.123526E+00
  1.123277E+00
  1.123024E+00
  1.122771E+00
  1.122518E+00
  1.122266E+00
  1.122013E+00
  1.121760E+00
  1.121505E+00
  1.121245E+00
  1.120985E+00
  1.120726E+00
  1.120466E+00
  1.120206E+00
  1.119946E+00
  1.119681E+00
  1.119366E+00
  1.119051E+00
  1.118737E+00
  1.118422E+00
  1.118108E+00
  1.117793E+00
  1.117439E+00
  1.116955E+00
  1.116471E+00
  1.115987E+00
  1.115503E+00
  1.115019E+00
  1.114534E+00
  1.113921E+00
  1.113250E+00
  1.112580E+00
  1.111909E+00
  1.111239E+00
  1.110568E+00
  1.109792E+00
  1.108904E+00
  1.108016E+00
  1.107128E+00
  1.106240E+00
  1.105351E+00
  1.104251E+00
  1.103003E+00
  1.101754E+00
  1.100504E+00
  1.099255E+00
  1.098005E+00
  1.096258E+00
  1.094502E+00
  1.092745E+00
  1.090989E+00
  1.089232E+00
  1.087148E+00
  1.084895E+00
  1.082642E+00
  1.080389E+00
  1.078136E+00
  1.075634E+00
  1.072968E+00
  1.070302E+00
  1.067636E+00
  1.064969E+00
  1.062068E+00
  1.059108E+00
  1.056148E+00
  1.053186E+00
  1.050206E+00
  1.047162E+00
  1.044119E+00
  1.041074E+00
  1.038029E+00
  1.034911E+00
  1.031784E+00
  1.028656E+00
  1.025528E+00
  1.022078E+00
  1.018537E+00
  1.014995E+00
  1.011452E+00
  1.007304E+00
  1.003063E+00
  9.988210E-01
  9.944497E-01
  9.893433E-01
  9.842380E-01
  9.791338E-01
  9.732475E-01
  9.668813E-01
  9.605200E-01
  9.537620E-01
  9.458867E-01
  9.380237E-01
  9.300920E-01
  9.211850E-01
  9.122972E-01
  9.034093E-01
  8.941632E-01
  8.849381E-01
  8.757396E-01
  8.665903E-01
  8.574592E-01
  8.485199E-01
  8.398182E-01
  8.311294E-01
  8.230479E-01
  8.150853E-01
  8.074690E-01
  8.004196E-01
  7.934050E-01
  7.873714E-01
  7.813349E-01
  7.761765E-01
  7.712232E-01
  7.670021E-01
  7.631023E-01
  7.598519E-01
  7.568999E-01
  7.546434E-01
  7.525890E-01
  7.514192E-01
  7.505288E-01
  7.504047E-01
  7.509771E-01
  7.520857E-01
  7.544773E-01
  7.578037E-01
  7.621626E-01
  7.681214E-01
  7.760260E-01
  7.860003E-01
  7.987580E-01
  8.156086E-01
  8.391790E-01
  8.745324E-01
  9.299544E-01
  1.020030E+00
  1.159000E+00
  1.281440E+00
  1.304638E+00
  1.575601E+00
  3.792920E-01
  6.946850E-07
  1.249977E+00
  1.249503E+00
  1.249029E+00
  1.248556E+00
  1.248082E+00
  1.247609E+00
  1.247135E+00
  1.246661E+00
  1.246188E+00
  1.245052E+00
  1.243900E+00
  1.242748E+00
  1.241596E+00
  1.240444E+00
  1.239293E+00
  1.238141E+00
  1.236869E+00
  1.235376E+00
  1.233883E+00
  1.232390E+00
  1.230897E+00
  1.229404E+00
  1.227911E+00
  1.226372E+00
  1.224466E+00
  1.222561E+00
  1.220655E+00
  1.218750E+00
  1.216844E+00
  1.214939E+00
  1.212922E+00
  1.210535E+00
  1.208149E+00
  1.205762E+00
  1.203376E+00
  1.200990E+00
  1.198604E+00
  1.195894E+00
  1.193042E+00
  1.190190E+00
  1.187339E+00
  1.184488E+00
  1.181636E+00
  1.178581E+00
  1.175310E+00
  1.172040E+00
  1.168770E+00
  1.165500E+00
  1.162230E+00
  1.158737E+00
  1.155088E+00
  1.151440E+00
  1.147791E+00
  1.144143E+00
  1.140496E+00
  1.136542E+00
  1.132583E+00
  1.128625E+00
  1.124667E+00
  1.120710E+00
  1.116604E+00
  1.112423E+00
  1.108243E+00
  1.104063E+00
  1.099883E+00
  1.095570E+00
  1.091170E+00
  1.086770E+00
  1.082371E+00
  1.077973E+00
  1.073393E+00
  1.068767E+00
  1.064142E+00
  1.059517E+00
  1.054875E+00
  1.050174E+00
  1.045473E+00
  1.040773E+00
  1.036073E+00
  1.031388E+00
  1.026705E+00
  1.022022E+00
  1.017339E+00
  1.012572E+00
  1.007782E+00
  1.002992E+00
  9.982024E-01
  9.933467E-01
  9.884812E-01
  9.836162E-01
  9.787728E-01
  9.740499E-01
  9.693283E-01
  9.646079E-01
  9.599322E-01
  9.552863E-01
  9.506436E-01
  9.459386E-01
  9.410556E-01
  9.361798E-01
  9.312865E-01
  9.260999E-01
  9.209251E-01
  9.157441E-01
  9.102165E-01
  9.047036E-01
  8.990832E-01
  8.928867E-01
  8.867050E-01
  8.800804E-01
  8.728827E-01
  8.656981E-01
  8.575224E-01
  8.491688E-01
  8.403629E-01
  8.307971E-01
  8.211984E-01
  8.104372E-01
  7.996802E-01
  7.880462E-01
  7.762040E-01
  7.637541E-01
  7.510351E-01
  7.378764E-01
  7.245151E-01
  7.108488E-01
  6.970958E-01
  6.832336E-01
  6.694141E-01
  6.557373E-01
  6.423542E-01
  6.292032E-01
  6.167637E-01
  6.048762E-01
  5.935921E-01
  5.832385E-01
  5.739588E-01
  5.657965E-01
  5.592005E-01
  5.551527E-01
  5.559231E-01
  5.664081E-01
  5.948231E-01
  6.539016E-01
  7.535250E-01
  8.297238E-01
  7.830899E-01
  8.875867E-01
  1.428128E-01
 -5.794227E-14
  9.893869E-01
  9.892200E-01
  9.890530E-01
  9.888861E-01
  9.887192E-01
  9.885523E-01
  9.883854E-01
  9.882185E-01
  9.880516E-01
  9.875552E-01
  9.870507E-01
  9.865461E-01
  9.860416E-01
  9.855371E-01
  9.850326E-01
  9.845281E-01
  9.839154E-01
  9.831040E-01
  9.822926E-01
  9.814813E-01
  9.806700E-01
  9.798587E-01
  9.790474E-01
  9.782048E-01
  9.771117E-01
  9.760186E-01
  9.749256E-01
  9.738325E-01
  9.727395E-01
  9.716466E-01
  9.704850E-01
  9.690955E-01
  9.677059E-01
  9.663165E-01
  9.649271E-01
  9.635377E-01
  9.621483E-01
  9.605472E-01
  9.588535E-01
  9.571599E-01
  9.554663E-01
  9.537727E-01
  9.520793E-01
  9.502408E-01
  9.482493E-01
  9.462579E-01
  9.442665E-01
  9.422753E-01
  9.402842E-01
  9.381195E-01
  9.358333E-01
  9.335472E-01
  9.312613E-01
  9.289755E-01
  9.266899E-01
  9.241143E-01
  9.215343E-01
  9.189546E-01
  9.163751E-01
  9.137958E-01
  9.110264E-01
  9.081597E-01
  9.052933E-01
  9.024273E-01
  8.995615E-01
  8.965196E-01
  8.933625E-01
  8.902056E-01
  8.870491E-01
  8.838929E-01
  8.804859E-01
  8.770163E-01
  8.735470E-01
  8.700779E-01
  8.665305E-01
  8.627279E-01
  8.589255E-01
  8.551233E-01
  8.513213E-01
  8.472121E-01
  8.430686E-01
  8.389253E-01
  8.347821E-01
  8.303750E-01
  8.258937E-01
  8.214125E-01
  8.169314E-01
  8.121859E-01
  8.074000E-01
  8.026143E-01
  7.977905E-01
  7.927491E-01
  7.877081E-01
  7.826675E-01
  7.774827E-01
  7.722092E-01
  7.669368E-01
  7.616049E-01
  7.561057E-01
  7.506085E-01
  7.450976E-01
  7.393975E-01
  7.337005E-01
  7.279960E-01
  7.220771E-01
  7.161621E-01
  7.102000E-01
  7.039942E-01
  6.977925E-01
  6.914380E-01
  6.848864E-01
  6.783384E-01
  6.714678E-01
  6.645391E-01
  6.574645E-01
  6.501452E-01
  6.428155E-01
  6.351085E-01
  6.274033E-01
  6.193906E-01
  6.113054E-01
  6.029608E-01
  5.945016E-01
  5.857892E-01
  5.769602E-01
  5.678553E-01
  5.586710E-01
  5.491697E-01
  5.395845E-01
  5.297721E-01
  5.197954E-01
  5.096981E-01
  4.993589E-01
  4.888755E-01
  4.782395E-01
  4.673845E-01
  4.562938E-01
  4.449974E-01
  4.335121E-01
  4.219539E-01
  4.107088E-01
  4.007035E-01
  3.935229E-01
  3.923209E-01
  4.004202E-01
  3.971447E-01
  3.577916E-01
  4.021803E-01
  1.650200E-01
 -2.497785E-03
  5.631012E-02
  5.630462E-02
  5.629913E-02
  5.629364E-02
  5.628815E-02
  5.628266E-02
  5.627717E-02
  5.627168E-02
  5.626619E-02
  5.625371E-02
  5.624105E-02
  5.622839E-02
  5.621573E-02
  5.620308E-02
  5.619042E-02
  5.617777E-02
  5.616499E-02
  5.615199E-02
  5.613898E-02
  5.612597E-02
  5.611297E-02
  5.609996E-02
  5.608695E-02
  5.607364E-02
  5.605789E-02
  5.604214E-02
  5.602639E-02
  5.601064E-02
  5.599489E-02
  5.597914E-02
  5.596142E-02
  5.593718E-02
  5.591294E-02
  5.588870E-02
  5.586446E-02
  5.584021E-02
  5.581597E-02
  5.578524E-02
  5.575167E-02
  5.571810E-02
  5.568452E-02
  5.565094E-02
  5.561735E-02
  5.557848E-02
  5.553403E-02
  5.548956E-02
  5.544509E-02
  5.540062E-02
  5.535613E-02
  5.530104E-02
  5.523850E-02
  5.517596E-02
  5.511340E-02
  5.505083E-02
  5.498825E-02
  5.490072E-02
  5.481278E-02
  5.472483E-02
  5.463687E-02
  5.454889E-02
  5.444450E-02
  5.433169E-02
  5.421886E-02
  5.410602E-02
  5.399317E-02
  5.386786E-02
  5.373437E-02
  5.360086E-02
  5.346733E-02
  5.333378E-02
  5.318850E-02
  5.304025E-02
  5.289198E-02
  5.274368E-02
  5.259440E-02
  5.244200E-02
  5.228956E-02
  5.213710E-02
  5.198460E-02
  5.182843E-02
  5.167184E-02
  5.151522E-02
  5.135857E-02
  5.118578E-02
  5.100842E-02
  5.083105E-02
  5.065364E-02
  5.044589E-02
  5.023348E-02
  5.002105E-02
  4.980213E-02
  4.954639E-02
  4.929070E-02
  4.903506E-02
  4.874025E-02
  4.842139E-02
  4.810277E-02
  4.776428E-02
  4.736980E-02
  4.697594E-02
  4.657862E-02
  4.613242E-02
  4.568717E-02
  4.524190E-02
  4.477867E-02
  4.431647E-02
  4.385560E-02
  4.339719E-02
  4.293968E-02
  4.249178E-02
  4.205579E-02
  4.162043E-02
  4.121553E-02
  4.081659E-02
  4.043502E-02
  4.008187E-02
  3.973047E-02
  3.942826E-02
  3.912592E-02
  3.886760E-02
  3.861957E-02
  3.840826E-02
  3.821305E-02
  3.805041E-02
  3.790273E-02
  3.778992E-02
  3.768724E-02
  3.762889E-02
  3.758454E-02
  3.757857E-02
  3.760748E-02
  3.766324E-02
  3.778325E-02
  3.795007E-02
  3.816857E-02
  3.846717E-02
  3.886321E-02
  3.936285E-02
  4.000186E-02
  4.084580E-02
  4.202619E-02
  4.379660E-02
  4.657197E-02
  5.108266E-02
  5.804186E-02
  6.417304E-02
  6.533411E-02
  7.890257E-02
  2.609002E-02
  8.462959E-03
  1.620818E-01
  1.620204E-01
  1.619590E-01
  1.618975E-01
  1.618361E-01
  1.617747E-01
  1.617133E-01
  1.616519E-01
  1.615905E-01
  1.614433E-01
  1.612939E-01
  1.611445E-01
  1.609952E-01
  1.608458E-01
  1.606965E-01
  1.605471E-01
  1.603822E-01
  1.601886E-01
  1.599950E-01
  1.598014E-01
  1.596078E-01
  1.594142E-01
  1.592207E-01
  1.590212E-01
  1.587741E-01
  1.585270E-01
  1.582799E-01
  1.580328E-01
  1.577857E-01
  1.575387E-01
  1.572772E-01
  1.569677E-01
  1.566583E-01
  1.563489E-01
  1.560394E-01
  1.557300E-01
  1.554206E-01
  1.550692E-01
  1.546995E-01
  1.543297E-01
  1.539600E-01
  1.535903E-01
  1.532206E-01
  1.528244E-01
  1.524003E-01
  1.519763E-01
  1.515522E-01
  1.511282E-01
  1.507042E-01
  1.502513E-01
  1.497782E-01
  1.493051E-01
  1.488320E-01
  1.483590E-01
  1.478860E-01
  1.473733E-01
  1.468600E-01
  1.463468E-01
  1.458336E-01
  1.453204E-01
  1.447881E-01
  1.442459E-01
  1.437038E-01
  1.431618E-01
  1.426199E-01
  1.420606E-01
  1.414900E-01
  1.409195E-01
  1.403491E-01
  1.397788E-01
  1.391848E-01
  1.385850E-01
  1.379853E-01
  1.373856E-01
  1.367836E-01
  1.361741E-01
  1.355646E-01
  1.349551E-01
  1.343457E-01
  1.337381E-01
  1.331309E-01
  1.325236E-01
  1.319164E-01
  1.312983E-01
  1.306772E-01
  1.300561E-01
  1.294351E-01
  1.288054E-01
  1.281745E-01
  1.275437E-01
  1.269156E-01
  1.263032E-01
  1.256909E-01
  1.250787E-01
  1.244724E-01
  1.238699E-01
  1.232677E-01
  1.226575E-01
  1.220241E-01
  1.213917E-01
  1.207569E-01
  1.200840E-01
  1.194126E-01
  1.187404E-01
  1.180231E-01
  1.173077E-01
  1.165784E-01
  1.157743E-01
  1.149721E-01
  1.141125E-01
  1.131786E-01
  1.122464E-01
  1.111858E-01
  1.101021E-01
  1.089599E-01
  1.077192E-01
  1.064743E-01
  1.050789E-01
  1.036840E-01
  1.021755E-01
  1.006401E-01
  9.902609E-02
  9.737719E-02
  9.567138E-02
  9.393936E-02
  9.216786E-02
  9.038513E-02
  8.858830E-02
  8.679699E-02
  8.502421E-02
  8.328948E-02
  8.158482E-02
  7.997238E-02
  7.843147E-02
  7.696874E-02
  7.562661E-02
  7.442367E-02
  7.336554E-02
  7.251043E-02
  7.198567E-02
  7.208553E-02
  7.344495E-02
  7.712920E-02
  8.478933E-02
  9.770653E-02
  1.075860E-01
  1.015382E-01
  1.150863E-01
  2.543525E-02
 -1.827670E-09
  9.895164E-01
  9.893496E-01
  9.891827E-01
  9.890159E-01
  9.888491E-01
  9.886822E-01
  9.885154E-01
  9.883486E-01
  9.881818E-01
  9.876856E-01
  9.871813E-01
  9.866770E-01
  9.861727E-01
  9.856685E-01
  9.851642E-01
  9.846599E-01
  9.840474E-01
  9.832364E-01
  9.824254E-01
  9.816144E-01
  9.808034E-01
  9.799924E-01
  9.791814E-01
  9.783392E-01
  9.772465E-01