 Title = "ADflow Slice Data"
Variables =  "CoordinateX"  "CoordinateY"  "CoordinateZ"  "XoC"  "YoC"  "ZoC" "VelocityX" "VelocityY" "VelocityZ" "CoefPressure" "Mach" 
Zone T= "Slice_0001 None Relative Regular z = 0.10000000"
 Nodes =          114  Elements=          106  ZONETYPE=FELINESEG
 DATAPACKING=POINT
  7.301402E-01  6.696246E-02  1.000000E-01  7.450348E-01  5.846323E-02  1.416123E-17  2.524593E-02 -4.229164E-03 -1.739481E-04 -4.311339E-01  0.000000E+00
  7.043967E-01  7.113453E-02  1.000000E-01  7.187655E-01  6.272051E-02 -4.248370E-17  2.661622E-02 -4.165810E-03 -1.735453E-04 -4.673938E-01  0.000000E+00
  6.775455E-01  7.519102E-02  1.000000E-01  6.913659E-01  6.685985E-02  3.965145E-16  2.783595E-02 -4.059606E-03 -1.720839E-04 -5.022872E-01  0.000000E+00
  6.496792E-01  7.910977E-02  1.000000E-01  6.629304E-01  7.085864E-02  4.248370E-17  2.893511E-02 -3.934277E-03 -1.695556E-04 -5.382975E-01  0.000000E+00
  6.209097E-01  8.288637E-02  1.000000E-01  6.335734E-01  7.471238E-02 -2.832246E-17  2.999962E-02 -3.797429E-03 -1.660197E-04 -5.770081E-01  0.000000E+00
  5.913667E-01  8.648646E-02  1.000000E-01  6.034270E-01  7.838600E-02 -2.832246E-17  3.113303E-02 -3.641738E-03 -1.615456E-04 -6.186846E-01  0.000000E+00
  5.611982E-01  8.986700E-02  1.000000E-01  5.726423E-01  8.183558E-02  0.000000E+00  3.241635E-02 -3.462037E-03 -1.561086E-04 -6.642381E-01  0.000000E+00
  5.305654E-01  9.297658E-02  1.000000E-01  5.413838E-01  8.500867E-02 -5.664493E-17  3.391609E-02 -3.251176E-03 -1.496248E-04 -7.154318E-01  0.000000E+00
  4.996398E-01  9.576540E-02  1.000000E-01  5.098266E-01  8.785445E-02  0.000000E+00  3.570040E-02 -2.987391E-03 -1.420268E-04 -7.734380E-01  0.000000E+00
  4.685986E-01  9.816199E-02  1.000000E-01  4.781514E-01  9.029999E-02  1.416123E-17  3.782591E-02 -2.627184E-03 -1.333166E-04 -8.367868E-01  0.000000E+00
  4.376215E-01  1.000768E-01  1.000000E-01  4.465416E-01  9.225392E-02 -8.496739E-17  4.028089E-02 -2.124038E-03 -1.235336E-04 -9.018838E-01  0.000000E+00
  4.068895E-01  1.014241E-01  1.000000E-01  4.151820E-01  9.362869E-02  0.000000E+00  4.295697E-02 -1.443445E-03 -1.127830E-04 -9.643948E-01  0.000000E+00
  3.765814E-01  1.021378E-01  1.000000E-01  3.842548E-01  9.435701E-02 -5.664493E-17  4.566768E-02 -5.896514E-04 -1.012937E-04 -1.022123E+00  0.000000E+00
  3.468696E-01  1.022077E-01  1.000000E-01  3.539362E-01  9.442832E-02 -5.664493E-17  4.826263E-02  4.186967E-04 -8.954222E-05 -1.074086E+00  0.000000E+00
  3.179133E-01  1.016367E-01  1.000000E-01  3.243885E-01  9.384566E-02 -2.832246E-17  5.069530E-02  1.575973E-03 -7.818443E-05 -1.119785E+00  0.000000E+00
  2.898519E-01  1.004414E-01  1.000000E-01  2.957539E-01  9.262593E-02 -4.248370E-17  5.297734E-02  2.863542E-03 -6.772371E-05 -1.162158E+00  0.000000E+00
  2.628044E-01  9.866159E-02  1.000000E-01  2.681540E-01  9.080979E-02  0.000000E+00  5.517512E-02  4.270449E-03 -5.835742E-05 -1.205135E+00  0.000000E+00
  9.800000E-01  1.170649E-02  1.000000E-01  9.999978E-01  2.078694E-03 -2.832246E-17  1.056261E-02 -1.313842E-02 -1.814154E-04 -5.588257E-02  0.000000E+00
  9.720124E-01  1.382703E-02  1.000000E-01  9.918471E-01  4.242550E-03 -2.832246E-17  1.212365E-02 -3.290344E-03 -1.735747E-04  6.957540E-02  0.000000E+00
  9.632634E-01  1.616324E-02  1.000000E-01  9.829194E-01  6.626475E-03 -2.832246E-17  9.109508E-03 -2.370096E-03 -1.473486E-04  2.276511E-02  0.000000E+00
  9.536907E-01  1.870336E-02  1.000000E-01  9.731512E-01  9.218467E-03 -2.832246E-17  7.217941E-03 -1.904970E-03 -1.290508E-04  4.939717E-03  0.000000E+00
  9.432303E-01  2.143146E-02  1.000000E-01  9.624771E-01  1.200229E-02  1.416123E-17  6.787116E-03 -1.754653E-03 -1.224976E-04 -1.476526E-02  0.000000E+00
  9.318220E-01  2.435098E-02  1.000000E-01  9.508358E-01  1.498144E-02  1.416123E-17  7.493173E-03 -1.896661E-03 -1.243232E-04 -4.039143E-02  0.000000E+00
  9.194070E-01  2.746514E-02  1.000000E-01  9.381673E-01  1.815920E-02 -8.496739E-17  8.841898E-03 -2.192006E-03 -1.302631E-04 -6.790329E-02  0.000000E+00
  9.059278E-01  3.077233E-02  1.000000E-01  9.244128E-01  2.153395E-02 -5.664493E-17  1.042326E-02 -2.524961E-03 -1.373708E-04 -9.715179E-02  0.000000E+00
  8.913299E-01  3.426709E-02  1.000000E-01  9.095167E-01  2.510008E-02  0.000000E+00  1.203251E-02 -2.842628E-03 -1.441922E-04 -1.286699E-01  0.000000E+00
  8.755643E-01  3.794475E-02  1.000000E-01  8.934291E-01  2.885286E-02 -2.832246E-17  1.363552E-02 -3.135931E-03 -1.503325E-04 -1.625778E-01  0.000000E+00
  8.585885E-01  4.179551E-02  1.000000E-01  8.761065E-01  3.278227E-02  4.106757E-16  1.527507E-02 -3.408969E-03 -1.559246E-04 -1.984651E-01  0.000000E+00
  8.403666E-01  4.579831E-02  1.000000E-01  8.575125E-01  3.686682E-02  3.965145E-16  1.697440E-02 -3.659588E-03 -1.610297E-04 -2.357561E-01  0.000000E+00
  8.208730E-01  4.992511E-02  1.000000E-01  8.376208E-01  4.107791E-02 -8.496739E-17  1.870681E-02 -3.878052E-03 -1.654549E-04 -2.741755E-01  0.000000E+00
  8.000947E-01  5.414516E-02  1.000000E-01  8.164181E-01  4.538415E-02 -2.832246E-17  2.043210E-02 -4.053021E-03 -1.690157E-04 -3.135185E-01  0.000000E+00
  7.780326E-01  5.842118E-02  1.000000E-01  7.939054E-01  4.974750E-02 -2.832246E-17  2.211845E-02 -4.174517E-03 -1.716420E-04 -3.533729E-01  0.000000E+00
  7.547032E-01  6.270995E-02  1.000000E-01  7.700995E-01  5.412386E-02  4.389982E-16  2.373534E-02 -4.234200E-03 -1.733011E-04 -3.929169E-01  0.000000E+00
  7.301402E-01  6.696246E-02  1.000000E-01  7.450348E-01  5.846323E-02  2.832246E-17  2.524593E-02 -4.229164E-03 -1.739481E-04 -4.311339E-01  0.000000E+00
  2.444131E-01 -2.700181E-03  1.000000E-01  2.493870E-01 -1.262222E-02  3.681920E-16  2.790905E-02  1.259644E-03  5.052865E-05  1.673997E-01  0.000000E+00
  2.700250E-01 -1.548047E-03  1.000000E-01  2.755221E-01 -1.144656E-02 -4.248370E-17  2.816773E-02  1.248129E-03  5.347272E-05  1.654597E-01  0.000000E+00
  2.967058E-01 -3.858683E-04  1.000000E-01  3.027479E-01 -1.026064E-02 -2.832246E-17  2.854686E-02  1.282422E-03  5.712402E-05  1.573712E-01  0.000000E+00
  3.243554E-01  8.911978E-04  1.000000E-01  3.309621E-01 -8.957492E-03  4.248370E-16  2.868790E-02  1.440524E-03  6.145617E-05  1.443945E-01  0.000000E+00
  3.528511E-01  2.435657E-03  1.000000E-01  3.600399E-01 -7.381488E-03 -4.248370E-17  2.819065E-02  1.741411E-03  6.622718E-05  1.328749E-01  0.000000E+00
  3.820469E-01  4.466368E-03  1.000000E-01  3.898319E-01 -5.309301E-03  5.664493E-17  2.679783E-02  2.132545E-03  7.096915E-05  1.306591E-01  0.000000E+00
  4.117740E-01  7.151465E-03  1.000000E-01  4.201662E-01 -2.569363E-03 -5.664493E-17  2.458912E-02  2.492592E-03  7.516710E-05  1.448414E-01  0.000000E+00
  4.418498E-01  1.056392E-02  1.000000E-01  4.508563E-01  9.127884E-04 -2.832246E-17  2.200833E-02  2.683907E-03  7.854512E-05  1.755876E-01  0.000000E+00
  4.721105E-01  1.454786E-02  1.000000E-01  4.817351E-01  4.978099E-03 -5.664493E-17  1.983077E-02  2.512918E-03  8.147327E-05  2.282442E-01  0.000000E+00
  5.024968E-01  1.823383E-02  1.000000E-01  5.127420E-01  8.739355E-03  1.416123E-17  1.851941E-02  2.066270E-03  8.439643E-05  2.837191E-01  0.000000E+00
  5.328693E-01  2.128993E-02  1.000000E-01  5.437348E-01  1.185787E-02 -4.248370E-17  1.787406E-02  1.659372E-03  8.742986E-05  3.109036E-01  0.000000E+00
  5.630297E-01  2.383880E-02  1.000000E-01  5.745113E-01  1.445880E-02  1.416123E-17  1.753893E-02  1.381702E-03  9.065866E-05  3.182676E-01  0.000000E+00
  5.927917E-01  2.600828E-02  1.000000E-01  6.048810E-01  1.667259E-02  5.664493E-17  1.724406E-02  1.195681E-03  9.385634E-05  3.238949E-01  0.000000E+00
  6.219828E-01  2.792059E-02  1.000000E-01  6.346684E-01  1.862396E-02 -4.248370E-17  1.684717E-02  1.053492E-03  9.661249E-05  3.330116E-01  0.000000E+00
  6.504533E-01  2.960626E-02  1.000000E-01  6.637204E-01  2.034406E-02  5.664493E-17  1.635700E-02  8.982690E-04  9.878165E-05  3.460415E-01  0.000000E+00
  6.780742E-01  3.099247E-02  1.000000E-01  6.919054E-01  2.175857E-02  4.531594E-16  1.587047E-02  7.004832E-04  1.004986E-04  3.610256E-01  0.000000E+00
  7.047326E-01  3.199348E-02  1.000000E-01  7.191083E-01  2.278003E-02  0.000000E+00  1.549386E-02  4.652232E-04  1.020094E-04  3.745759E-01  0.000000E+00
  1.215943E-04  9.331616E-03  1.000000E-01  1.060954E-04 -3.446842E-04 -5.664493E-17 -4.531687E-02  8.085048E-02  7.037352E-05  7.522286E-01  0.000000E+00
  4.902502E-03  3.663072E-03  1.000000E-01  4.984649E-03 -6.129004E-03 -8.496739E-17 -1.676273E-02  1.953732E-02  5.530663E-05  9.382221E-01  0.000000E+00
  1.254908E-02  2.161051E-05  1.000000E-01  1.278740E-02 -9.844840E-03 -2.832246E-17  7.884890E-03 -2.058769E-03  4.146776E-05  5.432321E-01  0.000000E+00
  2.163699E-02 -2.367595E-03  1.000000E-01  2.206093E-02 -1.228284E-02  1.416123E-17  2.164674E-02 -4.465878E-03  3.564954E-05  3.419162E-01  0.000000E+00
  3.184423E-02 -4.045262E-03  1.000000E-01  3.247664E-02 -1.399478E-02 -2.832246E-17  2.739415E-02 -3.601284E-03  3.506373E-05  3.080056E-01  0.000000E+00
  4.311596E-02 -5.221641E-03  1.000000E-01  4.397859E-02 -1.519518E-02 -8.496739E-17  2.958824E-02 -2.387622E-03  3.578955E-05  2.727832E-01  0.000000E+00
  5.546913E-02 -5.940027E-03  1.000000E-01  5.658406E-02 -1.592824E-02  1.416123E-17  3.025418E-02 -1.415645E-03  3.675546E-05  2.402533E-01  0.000000E+00
  6.891473E-02 -6.414230E-03  1.000000E-01  7.030428E-02 -1.641213E-02 -8.496739E-17  3.049214E-02 -8.850679E-04  3.782537E-05  2.282586E-01  0.000000E+00
  8.348882E-02 -6.751018E-03  1.000000E-01  8.517604E-02 -1.675579E-02  5.664493E-17  3.061856E-02 -5.369808E-04  3.886358E-05  2.161888E-01  0.000000E+00
  9.923792E-02 -6.944440E-03  1.000000E-01  1.012468E-01 -1.695317E-02 -9.912862E-17  3.059121E-02 -1.800266E-04  3.988350E-05  1.972617E-01  0.000000E+00
  1.162051E-01 -6.936907E-03  1.000000E-01  1.185605E-01 -1.694548E-02 -8.496739E-17  3.037370E-02  1.862634E-04  4.096961E-05  1.803898E-01  0.000000E+00
  1.344203E-01 -6.721034E-03  1.000000E-01  1.371477E-01 -1.672520E-02 -8.496739E-17  2.998982E-02  5.069748E-04  4.214713E-05  1.710444E-01  0.000000E+00
  1.539027E-01 -6.294104E-03  1.000000E-01  1.570281E-01 -1.628955E-02  4.389982E-16  2.945952E-02  7.833130E-04  4.339701E-05  1.659506E-01  0.000000E+00
  1.746592E-01 -5.645363E-03  1.000000E-01  1.782085E-01 -1.562756E-02  3.257083E-16  2.885774E-02  1.002255E-03  4.476098E-05  1.639371E-01  0.000000E+00
  1.966815E-01 -4.803651E-03  1.000000E-01  2.006806E-01 -1.476865E-02 -2.832246E-17  2.831547E-02  1.148029E-03  4.632706E-05  1.650189E-01  0.000000E+00
  2.199461E-01 -3.807315E-03  1.000000E-01  2.244204E-01 -1.375197E-02 -4.248370E-17  2.796314E-02  1.232252E-03  4.820042E-05  1.667605E-01  0.000000E+00
  2.444131E-01 -2.700181E-03  1.000000E-01  2.493870E-01 -1.262222E-02  3.823533E-16  2.790905E-02  1.259644E-03  5.052865E-05  1.673997E-01  0.000000E+00
  7.047326E-01  3.199348E-02  1.000000E-01  7.191083E-01  2.278003E-02 -2.832246E-17  1.549386E-02  4.652232E-04  1.020094E-04  3.745759E-01  0.000000E+00
  7.303325E-01  3.255591E-02  1.000000E-01  7.452310E-01  2.335395E-02 -2.832246E-17  1.531437E-02  2.041897E-04  1.035754E-04  3.846043E-01  0.000000E+00
  7.547951E-01  3.266114E-02  1.000000E-01  7.701933E-01  2.346133E-02  4.389982E-16  1.540666E-02 -8.654932E-05  1.054424E-04  3.909757E-01  0.000000E+00
  7.780600E-01  3.229500E-02  1.000000E-01  7.939334E-01  2.308771E-02  1.416123E-17  1.582748E-02 -4.217400E-04  1.077965E-04  3.933974E-01  0.000000E+00
  8.000833E-01  3.146891E-02  1.000000E-01  8.164064E-01  2.224475E-02 -4.248370E-17  1.659125E-02 -8.151631E-04  1.107142E-04  3.911203E-01  0.000000E+00
  8.208376E-01  3.021364E-02  1.000000E-01  8.375847E-01  2.096384E-02 -2.832246E-17  1.763336E-02 -1.250181E-03  1.140700E-04  3.830508E-01  0.000000E+00
  8.403144E-01  2.863487E-02  1.000000E-01  8.574593E-01  1.935283E-02  4.389982E-16  1.879458E-02 -1.661044E-03  1.174980E-04  3.683368E-01  0.000000E+00
  8.585258E-01  2.689339E-02  1.000000E-01  8.760426E-01  1.757577E-02  3.965145E-16  1.987898E-02 -1.981045E-03  1.205323E-04  3.494777E-01  0.000000E+00
  8.754993E-01  2.513117E-02  1.000000E-01  8.933628E-01  1.577757E-02 -2.832246E-17  2.074274E-02 -2.192885E-03  1.227319E-04  3.307189E-01  0.000000E+00
  8.912718E-01  2.343009E-02  1.000000E-01  9.094575E-01  1.404174E-02 -2.832246E-17  2.137126E-02 -2.355403E-03  1.238529E-04  3.157678E-01  0.000000E+00
  9.058836E-01  2.178194E-02  1.000000E-01  9.243677E-01  1.235993E-02 -4.248370E-17  2.189090E-02 -2.555105E-03  1.240217E-04  3.052297E-01  0.000000E+00
  9.193796E-01  2.014972E-02  1.000000E-01  9.381393E-01  1.069437E-02 -5.664493E-17  2.249551E-02 -2.819981E-03  1.238786E-04  2.943972E-01  0.000000E+00
  9.318118E-01  1.853303E-02  1.000000E-01  9.508254E-01  9.044662E-03  4.248370E-17  2.338944E-02 -3.166011E-03  1.247317E-04  2.805652E-01  0.000000E+00
  9.432349E-01  1.692566E-02  1.000000E-01  9.624818E-01  7.404463E-03 -2.832246E-17  2.461356E-02 -3.609583E-03  1.275546E-04  2.642730E-01  0.000000E+00
  9.537058E-01  1.532672E-02  1.000000E-01  9.731666E-01  5.772870E-03  0.000000E+00  2.553131E-02 -4.051560E-03  1.301357E-04  2.399607E-01  0.000000E+00
  9.632829E-01  1.374011E-02  1.000000E-01  9.829393E-01  4.153851E-03 -2.832246E-17  2.454840E-02 -4.242506E-03  1.252828E-04  2.055200E-01  0.000000E+00
  9.720275E-01  1.219834E-02  1.000000E-01  9.918626E-01  2.580587E-03  0.000000E+00  2.086990E-02 -3.699938E-03  1.078409E-04  2.033511E-01  0.000000E+00
  9.800000E-01  1.072342E-02  1.000000E-01  9.999978E-01  1.075550E-03  1.416123E-17  1.384612E-02  4.373999E-03  6.580270E-05 -9.835712E-03  0.000000E+00
  1.215943E-04  1.001229E-02  1.000000E-01  1.060954E-04  3.498951E-04 -9.912862E-17  2.286018E-02  5.300184E-02  3.270592E-05  4.594623E-01  0.000000E+00
  7.278129E-05  9.897643E-03  1.000000E-01  5.628535E-05  2.329039E-04  1.416123E-17  1.553970E-02  7.599296E-02  4.606771E-05  2.997339E-01  0.000000E+00
  1.762252E-05  9.669401E-03  1.000000E-01  0.000000E+00  0.000000E+00  0.000000E+00 -1.210389E-02  1.217971E-01  6.752397E-05  3.397443E-01  0.000000E+00
  8.694958E-05  9.444217E-03  1.000000E-01  7.074301E-05 -2.297833E-04  0.000000E+00 -5.074656E-02  1.317911E-01  7.740030E-05  3.888461E-01  0.000000E+00
  1.215943E-04  9.331616E-03  1.000000E-01  1.060954E-04 -3.446842E-04 -4.248370E-17 -4.531687E-02  8.085048E-02  7.037352E-05  7.522286E-01  0.000000E+00
  9.800000E-01  1.072342E-02  1.000000E-01  9.999978E-01  1.075550E-03  0.000000E+00  1.384612E-02  4.373999E-03  6.580270E-05 -9.835712E-03  0.000000E+00
  9.800000E-01  1.088727E-02  1.000000E-01  9.999978E-01  1.242740E-03  0.000000E+00  4.459505E-03 -1.574545E-03 -1.346064E-05 -2.105643E-01  0.000000E+00
  9.800000E-01  1.121496E-02  1.000000E-01  9.999978E-01  1.577122E-03 -2.832246E-17 -4.445234E-04 -1.601872E-02 -1.001356E-04 -1.748370E-01  0.000000E+00
  9.800000E-01  1.154264E-02  1.000000E-01  9.999978E-01  1.911503E-03 -5.664493E-17  3.395410E-03 -1.967170E-02 -1.565017E-04 -1.930868E-01  0.000000E+00
  9.800000E-01  1.170649E-02  1.000000E-01  9.999978E-01  2.078694E-03  0.000000E+00  1.056261E-02 -1.313842E-02 -1.814154E-04 -5.588257E-02  0.000000E+00
  2.628044E-01  9.866159E-02  1.000000E-01  2.681540E-01  9.080979E-02 -2.832246E-17  5.517512E-02  4.270449E-03 -5.835742E-05 -1.205135E+00  0.000000E+00
  2.368706E-01  9.634483E-02  1.000000E-01  2.416905E-01  8.844571E-02  3.681920E-16  5.743272E-02  5.880517E-03 -5.010093E-05 -1.245612E+00  0.000000E+00
  2.121362E-01  9.348238E-02  1.000000E-01  2.164509E-01  8.552480E-02  1.416123E-17  5.976891E-02  7.767940E-03 -4.284109E-05 -1.276712E+00  0.000000E+00
  1.886687E-01  9.009114E-02  1.000000E-01  1.925042E-01  8.206429E-02 -4.248370E-17  6.200024E-02  9.910051E-03 -3.639841E-05 -1.293499E+00  0.000000E+00
  1.665185E-01  8.620287E-02  1.000000E-01  1.699015E-01  7.809661E-02  4.814819E-16  6.389715E-02  1.223963E-02 -3.064539E-05 -1.293477E+00  0.000000E+00
  1.457161E-01  8.187433E-02  1.000000E-01  1.486743E-01  7.367966E-02  4.531594E-16  6.530640E-02  1.468238E-02 -2.549713E-05 -1.278222E+00  0.000000E+00
  1.262764E-01  7.716520E-02  1.000000E-01  1.288375E-01  6.887436E-02  0.000000E+00  6.621127E-02  1.720126E-02 -2.085930E-05 -1.252951E+00  0.000000E+00
  1.081990E-01  7.213527E-02  1.000000E-01  1.103909E-01  6.374170E-02  0.000000E+00  6.664930E-02  1.977226E-02 -1.658007E-05 -1.224782E+00  0.000000E+00
  9.146971E-02  6.684702E-02  1.000000E-01  9.331993E-02  5.834543E-02  0.000000E+00  6.673084E-02  2.254992E-02 -1.253667E-05 -1.188918E+00  0.000000E+00
  7.608258E-02  6.129620E-02  1.000000E-01  7.761853E-02  5.268125E-02  0.000000E+00  6.641457E-02  2.570559E-02 -8.689199E-06 -1.127007E+00  0.000000E+00
  6.202881E-02  5.547230E-02  1.000000E-01  6.327772E-02  4.673839E-02 -5.664493E-17  6.536328E-02  2.910003E-02 -5.058577E-06 -1.021873E+00  0.000000E+00
  4.929579E-02  4.939230E-02  1.000000E-01  5.028464E-02  4.053421E-02 -8.496739E-17  6.321961E-02  3.218433E-02 -1.660293E-06 -8.785759E-01  0.000000E+00
  3.782553E-02  4.316705E-02  1.000000E-01  3.858011E-02  3.418181E-02  4.248370E-17  6.011931E-02  3.474008E-02  1.563515E-06 -7.239416E-01  0.000000E+00
  2.757469E-02  3.685047E-02  1.000000E-01  2.811990E-02  2.773622E-02 -2.832246E-17  5.656533E-02  3.700644E-02  4.924943E-06 -6.056413E-01  0.000000E+00
  1.848362E-02  3.051936E-02  1.000000E-01  1.884316E-02  2.127580E-02  5.664493E-17  5.323407E-02  4.043468E-02  9.248108E-06 -5.078584E-01  0.000000E+00
  1.064273E-02  2.404786E-02  1.000000E-01  1.084212E-02  1.467213E-02  1.416123E-17  4.947619E-02  4.665487E-02  1.590308E-05 -2.680276E-01  0.000000E+00
  4.262692E-03  1.728602E-02  1.000000E-01  4.331772E-03  7.772183E-03  1.416123E-17  4.011224E-02  5.390106E-02  2.503947E-05  2.433603E-01  0.000000E+00
  1.215943E-04  1.001229E-02  1.000000E-01  1.060954E-04  3.498951E-04 -8.496739E-17  2.286018E-02  5.300184E-02  3.270592E-05  4.594623E-01  0.000000E+00
    1    2
    2    3
    3    4
    4    5
    5    6
    6    7
    7    8
    8    9
    9   10
   10   11
   11   12
   12   13
   13   14
   14   15
   15   16
   16   17
   18   19
   19   20
   20   21
   21   22
   22   23
   23   24
   24   25
   25   26
   26   27
   27   28
   28   29
   29   30
   30   31
   31   32
   32   33
   33   34
   35   36
   36   37
   37   38
   38   39
   39   40
   40   41
   41   42
   42   43
   43   44
   44   45
   45   46
   46   47
   47   48
   48   49
   49   50
   50   51
   52   53
   53   54
   54   55
   55   56
   56   57
   57   58
   58   59
   59   60
   60   61
   61   62
   62   63
   63   64
   64   65
   65   66
   66   67
   67   68
   69   70
   70   71
   71   72
   72   73
   73   74
   74   75
   75   76
   76   77
   77   78
   78   79
   79   80
   80   81
   81   82
   82   83
   83   84
   84   85
   85   86
   87   88
   88   89
   89   90
   90   91
   92   93
   93   94
   94   95
   95   96
   97   98
   98   99
   99  100
  100  101
  101  102
  102  103
  103  104
  104  105
  105  106
  106  107
  107  108
  108  109
  109  110
  110  111
  111  112
  112  113
  113  114
Zone T= "Slice_0002 None Relative Regular z = 0.36666667"
 Nodes =          114  Elements=          106  ZONETYPE=FELINESEG
 DATAPACKING=POINT
  7.301402E-01  6.656276E-02  3.666667E-01  7.450350E-01  5.808225E-02 -5.664494E-17  2.542514E-02 -4.241675E-03 -5.635344E-04 -4.261370E-01  0.000000E+00
  7.043967E-01  7.071787E-02  3.666667E-01  7.187657E-01  6.232223E-02 -1.132899E-16  2.679320E-02 -4.177348E-03 -5.598431E-04 -4.619047E-01  0.000000E+00
  6.775455E-01  7.475904E-02  3.666667E-01  6.913661E-01  6.644594E-02  3.058827E-14  2.801054E-02 -4.070881E-03 -5.529583E-04 -4.963204E-01  0.000000E+00
  6.496792E-01  7.866481E-02  3.666667E-01  6.629306E-01  7.043149E-02 -1.699348E-16  2.910640E-02 -3.945998E-03 -5.432323E-04 -5.318593E-01  0.000000E+00
  6.209097E-01  8.243157E-02  3.666667E-01  6.335735E-01  7.427517E-02  0.000000E+00  3.016604E-02 -3.810244E-03 -5.311074E-04 -5.700947E-01  0.000000E+00
  5.913667E-01  8.602577E-02  3.666667E-01  6.034271E-01  7.794279E-02  1.132899E-16  3.129273E-02 -3.656312E-03 -5.168392E-04 -6.112984E-01  0.000000E+00
  5.611982E-01  8.940523E-02  3.666667E-01  5.726425E-01  8.139127E-02  2.265798E-16  3.256842E-02 -3.479233E-03 -5.002144E-04 -6.563937E-01  0.000000E+00
  5.305654E-01  9.251921E-02  3.666667E-01  5.413839E-01  8.456885E-02  1.132899E-16  3.406214E-02 -3.272125E-03 -4.807409E-04 -7.071539E-01  0.000000E+00
  4.996398E-01  9.531832E-02  3.666667E-01  5.098267E-01  8.742513E-02 -1.699348E-16  3.584521E-02 -3.013356E-03 -4.579422E-04 -7.647636E-01  0.000000E+00
  4.685986E-01  9.773112E-02  3.666667E-01  4.781515E-01  8.988722E-02  1.132899E-16  3.797613E-02 -2.659173E-03 -4.315565E-04 -8.277783E-01  0.000000E+00
  4.376215E-01  9.966775E-02  3.666667E-01  4.465418E-01  9.186340E-02 -5.664494E-17  4.044247E-02 -2.162451E-03 -4.014379E-04 -8.926528E-01  0.000000E+00
  4.068895E-01  1.010417E-01  3.666667E-01  4.151821E-01  9.326540E-02 -5.664494E-17  4.313432E-02 -1.487946E-03 -3.676903E-04 -9.551296E-01  0.000000E+00
  3.765814E-01  1.017861E-01  3.666667E-01  3.842549E-01  9.402498E-02  5.664494E-17  4.586555E-02 -6.392224E-04 -3.308915E-04 -1.013094E+00  0.000000E+00
  3.468696E-01  1.018894E-01  3.666667E-01  3.539363E-01  9.413047E-02 -5.664494E-17  4.848841E-02  3.663626E-04 -2.925445E-04 -1.065561E+00  0.000000E+00
  3.179133E-01  1.013531E-01  3.666667E-01  3.243886E-01  9.358314E-02  0.000000E+00  5.095805E-02  1.525057E-03 -2.548794E-04 -1.111906E+00  0.000000E+00
  2.898519E-01  1.001915E-01  3.666667E-01  2.957540E-01  9.239779E-02  5.664494E-17  5.328370E-02  2.818951E-03 -2.197172E-04 -1.154933E+00  0.000000E+00
  2.628044E-01  9.844312E-02  3.666667E-01  2.681541E-01  9.061375E-02  5.664494E-17  5.552623E-02  4.236396E-03 -1.879120E-04 -1.198500E+00  0.000000E+00
  9.800000E-01  1.155788E-02  3.666667E-01  9.999981E-01  1.953919E-03  5.664494E-17  1.055806E-02 -1.304876E-02 -6.000721E-04 -5.660651E-02  0.000000E+00
  9.720124E-01  1.366810E-02  3.666667E-01  9.918474E-01  4.107237E-03  0.000000E+00  1.214529E-02 -3.279814E-03 -5.703599E-04  6.993202E-02  0.000000E+00
  9.632634E-01  1.599316E-02  3.666667E-01  9.829197E-01  6.479788E-03  1.132899E-16  9.205678E-03 -2.383405E-03 -4.850448E-04  2.323834E-02  0.000000E+00
  9.536907E-01  1.852129E-02  3.666667E-01  9.731515E-01  9.059553E-03 -5.664494E-17  7.368537E-03 -1.934814E-03 -4.258580E-04  5.475466E-03  0.000000E+00
  9.432303E-01  2.123657E-02  3.666667E-01  9.624773E-01  1.183029E-02 -1.699348E-16  6.965259E-03 -1.791648E-03 -4.047380E-04 -1.413976E-02  0.000000E+00
  9.318220E-01  2.414242E-02  3.666667E-01  9.508361E-01  1.479549E-02 -5.664494E-17  7.681476E-03 -1.934711E-03 -4.107066E-04 -3.961372E-02  0.000000E+00
  9.194070E-01  2.724207E-02  3.666667E-01  9.381675E-01  1.795845E-02  0.000000E+00  9.030053E-03 -2.227700E-03 -4.298919E-04 -6.691851E-02  0.000000E+00
  9.059278E-01  3.053393E-02  3.666667E-01  9.244130E-01  2.131755E-02 -1.132899E-16  1.060671E-02 -2.556940E-03 -4.528123E-04 -9.592103E-02  0.000000E+00
  8.913299E-01  3.401256E-02  3.666667E-01  9.095169E-01  2.486723E-02  0.000000E+00  1.221340E-02 -2.871489E-03 -4.748907E-04 -1.271532E-01  0.000000E+00
  8.755643E-01  3.767336E-02  3.666667E-01  8.934294E-01  2.860280E-02 -1.132899E-16  1.382085E-02 -3.163414E-03 -4.949044E-04 -1.607307E-01  0.000000E+00
  8.585885E-01  4.150660E-02  3.666667E-01  8.761068E-01  3.251433E-02  3.098478E-14  1.546906E-02 -3.435993E-03 -5.131105E-04 -1.962488E-01  0.000000E+00
  8.403666E-01  4.549131E-02  3.666667E-01  8.575127E-01  3.658043E-02  3.098478E-14  1.717293E-02 -3.685168E-03 -5.294000E-04 -2.331363E-01  0.000000E+00
  8.208730E-01  4.959960E-02  3.666667E-01  8.376210E-01  4.077263E-02 -5.664494E-17  1.890306E-02 -3.900773E-03 -5.430130E-04 -2.711217E-01  0.000000E+00
  8.000947E-01  5.380087E-02  3.666667E-01  8.164183E-01  4.505971E-02 -5.664494E-17  2.062296E-02 -4.072451E-03 -5.533845E-04 -3.100039E-01  0.000000E+00
  7.780326E-01  5.805807E-02  3.666667E-01  7.939056E-01  4.940386E-02 -1.132899E-16  2.230418E-02 -4.191009E-03 -5.603160E-04 -3.493754E-01  0.000000E+00
  7.547032E-01  6.232825E-02  3.666667E-01  7.700997E-01  5.376125E-02  3.075820E-14  2.391727E-02 -4.248373E-03 -5.637207E-04 -3.884214E-01  0.000000E+00
  7.301402E-01  6.656276E-02  3.666667E-01  7.450350E-01  5.808225E-02 -5.664494E-17  2.542514E-02 -4.241675E-03 -5.635344E-04 -4.261370E-01  0.000000E+00
  2.444131E-01 -2.898934E-03  3.666667E-01  2.493871E-01 -1.279817E-02  3.092814E-14  2.816957E-02  1.242080E-03  1.620487E-04  1.649100E-01  0.000000E+00
  2.700250E-01 -1.774580E-03  3.666667E-01  2.755222E-01 -1.165085E-02  5.664494E-17  2.844601E-02  1.229286E-03  1.724842E-04  1.627864E-01  0.000000E+00
  2.967058E-01 -6.427064E-04  3.666667E-01  3.027479E-01 -1.049586E-02 -5.664494E-17  2.884576E-02  1.263196E-03  1.853107E-04  1.544525E-01  0.000000E+00
  3.243554E-01  6.021947E-04  3.666667E-01  3.309622E-01 -9.225529E-03  3.070156E-14  2.900320E-02  1.423382E-03  2.003901E-04  1.411703E-01  0.000000E+00
  3.528511E-01  2.113857E-03  3.666667E-01  3.600400E-01 -7.682992E-03 -5.664494E-17  2.851093E-02  1.729900E-03  2.168301E-04  1.293109E-01  0.000000E+00
  3.820469E-01  4.112916E-03  3.666667E-01  3.898320E-01 -5.643103E-03 -1.132899E-16  2.710987E-02  2.129853E-03  2.329821E-04  1.267934E-01  0.000000E+00
  4.117740E-01  6.768873E-03  3.666667E-01  4.201663E-01 -2.932899E-03  1.132899E-16  2.488271E-02  2.499835E-03  2.470511E-04  1.407821E-01  0.000000E+00
  4.418498E-01  1.015572E-02  3.666667E-01  4.508564E-01  5.231195E-04 -1.699348E-16  2.227750E-02  2.699513E-03  2.580706E-04  1.714541E-01  0.000000E+00
  4.721105E-01  1.411851E-02  3.666667E-01  4.817352E-01  4.566848E-03 -1.132899E-16  2.007724E-02  2.531660E-03  2.674719E-04  2.241705E-01  0.000000E+00
  5.024968E-01  1.778850E-02  3.666667E-01  5.127421E-01  8.311801E-03  5.664494E-17  1.875052E-02  2.083512E-03  2.768055E-04  2.797895E-01  0.000000E+00
  5.328693E-01  2.083425E-02  3.666667E-01  5.437349E-01  1.141976E-02 -2.265798E-16  1.809559E-02  1.674861E-03  2.863283E-04  3.070784E-01  0.000000E+00
  5.630297E-01  2.337849E-02  3.666667E-01  5.745114E-01  1.401596E-02  1.132899E-16  1.775333E-02  1.396609E-03  2.964547E-04  3.144778E-01  0.000000E+00
  5.927917E-01  2.554873E-02  3.666667E-01  6.048812E-01  1.623053E-02  0.000000E+00  1.745150E-02  1.210821E-03  3.066429E-04  3.201382E-01  0.000000E+00
  6.219828E-01  2.746660E-02  3.666667E-01  6.346686E-01  1.818757E-02  5.664494E-17  1.704682E-02  1.069090E-03  3.156646E-04  3.293364E-01  0.000000E+00
  6.504533E-01  2.916185E-02  3.666667E-01  6.637205E-01  1.991745E-02 -1.132899E-16  1.654832E-02  9.138462E-04  3.231005E-04  3.424889E-01  0.000000E+00
  6.780742E-01  3.056093E-02  3.666667E-01  6.919056E-01  2.134510E-02  3.092814E-14  1.605365E-02  7.153031E-04  3.293535E-04  3.576130E-01  0.000000E+00
  7.047326E-01  3.157741E-02  3.666667E-01  7.191085E-01  2.238235E-02 -5.664494E-17  1.566984E-02  4.786999E-04  3.350923E-04  3.713083E-01  0.000000E+00
  1.215943E-04  9.305247E-03  3.666667E-01  1.060954E-04 -3.447203E-04 -2.265798E-16 -4.429926E-02  7.907777E-02  2.174219E-04  7.569587E-01  0.000000E+00
  4.902502E-03  3.634945E-03  3.666667E-01  4.984651E-03 -6.130836E-03  5.664494E-17 -1.603107E-02  1.887086E-02  1.708025E-04  9.357446E-01  0.000000E+00
  1.254908E-02 -9.515676E-06  3.666667E-01  1.278741E-02 -9.849733E-03  2.265798E-16  8.310191E-03 -2.234098E-03  1.274907E-04  5.385750E-01  0.000000E+00
  2.163699E-02 -2.402502E-03  3.666667E-01  2.206094E-02 -1.229160E-02  5.664494E-17  2.190342E-02 -4.531699E-03  1.092748E-04  3.377667E-01  0.000000E+00
  3.184423E-02 -4.084675E-03  3.666667E-01  3.247665E-02 -1.400813E-02  0.000000E+00  2.761971E-02 -3.644059E-03  1.076006E-04  3.046091E-01  0.000000E+00
  4.311596E-02 -5.266344E-03  3.666667E-01  4.397860E-02 -1.521393E-02 -1.132899E-16  2.982294E-02 -2.421174E-03  1.100463E-04  2.697916E-01  0.000000E+00
  5.546913E-02 -5.990904E-03  3.666667E-01  5.658408E-02 -1.595329E-02 -5.664494E-17  3.049719E-02 -1.442929E-03  1.132046E-04  2.374541E-01  0.000000E+00
  6.891473E-02 -6.472282E-03  3.666667E-01  7.030430E-02 -1.644450E-02  1.699348E-16  3.074018E-02 -9.093826E-04  1.167164E-04  2.256405E-01  0.000000E+00
  8.348882E-02 -6.817393E-03  3.666667E-01  8.517606E-02 -1.679666E-02  2.832247E-16  3.087090E-02 -5.597517E-04  1.201977E-04  2.137397E-01  0.000000E+00
  9.923792E-02 -7.020461E-03  3.666667E-01  1.012468E-01 -1.700387E-02 -1.132899E-16  3.084654E-02 -2.011443E-04  1.237058E-04  1.949254E-01  0.000000E+00
  1.162051E-01 -7.024094E-03  3.666667E-01  1.185605E-01 -1.700758E-02  5.664494E-17  3.062952E-02  1.669301E-04  1.275186E-04  1.781146E-01  0.000000E+00
  1.344203E-01 -6.821123E-03  3.666667E-01  1.371478E-01 -1.680046E-02  0.000000E+00  3.024347E-02  4.890736E-04  1.317224E-04  1.688054E-01  0.000000E+00
  1.539027E-01 -6.409062E-03  3.666667E-01  1.570281E-01 -1.637999E-02  3.064491E-14  2.970902E-02  7.665005E-04  1.362514E-04  1.637295E-01  0.000000E+00
  1.746592E-01 -5.777402E-03  3.666667E-01  1.782085E-01 -1.573543E-02  3.109807E-14  2.910323E-02  9.860704E-04  1.412322E-04  1.617061E-01  0.000000E+00
  1.966815E-01 -4.955222E-03  3.666667E-01  2.006806E-01 -1.489645E-02 -1.132899E-16  2.856005E-02  1.131882E-03  1.469418E-04  1.627435E-01  0.000000E+00
  2.199461E-01 -3.981078E-03  3.666667E-01  2.244204E-01 -1.390241E-02 -1.699348E-16  2.821231E-02  1.215649E-03  1.537169E-04  1.644011E-01  0.000000E+00
  2.444131E-01 -2.898934E-03  3.666667E-01  2.493871E-01 -1.279817E-02  3.092814E-14  2.816957E-02  1.242080E-03  1.620487E-04  1.649100E-01  0.000000E+00
  7.047326E-01  3.157741E-02  3.666667E-01  7.191085E-01  2.238235E-02 -5.664494E-17  1.566984E-02  4.786999E-04  3.350923E-04  3.713083E-01  0.000000E+00