 Title = "ADflow Slice Data"
Variables =  "CoordinateX"  "CoordinateY"  "CoordinateZ"  "XoC"  "YoC"  "ZoC" "VelocityX" "VelocityY" "VelocityZ" "CoefPressure" "Mach" 
Zone T= "Slice_0001 None Relative Regular z = 0.10000000"
 Nodes =          114  Elements=          106  ZONETYPE=FELINESEG
 DATAPACKING=POINT
  7.301402E-01  6.728020E-02  1.000000E-01  7.450344E-01  5.877487E-02  1.416122E-17  2.550009E-02 -4.229635E-03 -1.877686E-04 -4.340615E-01  0.000000E+00
  7.043967E-01  7.140462E-02  1.000000E-01  7.187650E-01  6.298352E-02 -4.248367E-17  2.682838E-02 -4.144744E-03 -1.868457E-04 -4.687510E-01  0.000000E+00
  6.775455E-01  7.540294E-02  1.000000E-01  6.913655E-01  6.706350E-02  3.965142E-16  2.796727E-02 -4.017881E-03 -1.844206E-04 -5.013472E-01  0.000000E+00
  6.496792E-01  7.926066E-02  1.000000E-01  6.629300E-01  7.100001E-02  4.248367E-17  2.895332E-02 -3.880091E-03 -1.804978E-04 -5.350353E-01  0.000000E+00
  6.209097E-01  8.298678E-02  1.000000E-01  6.335730E-01  7.480223E-02 -2.832245E-17  2.989433E-02 -3.742250E-03 -1.751952E-04 -5.720458E-01  0.000000E+00
  5.913667E-01  8.655472E-02  1.000000E-01  6.034266E-01  7.844304E-02 -2.832245E-17  3.092213E-02 -3.594173E-03 -1.686716E-04 -6.127507E-01  0.000000E+00
  5.611982E-01  8.992186E-02  1.000000E-01  5.726420E-01  8.187895E-02  0.000000E+00  3.213584E-02 -3.427876E-03 -1.609839E-04 -6.580645E-01  0.000000E+00
  5.305654E-01  9.303524E-02  1.000000E-01  5.413835E-01  8.505592E-02 -5.664489E-17  3.360733E-02 -3.234144E-03 -1.521257E-04 -7.097617E-01  0.000000E+00
  4.996398E-01  9.584150E-02  1.000000E-01  5.098263E-01  8.791949E-02  0.000000E+00  3.540310E-02 -2.988271E-03 -1.421240E-04 -7.689418E-01  0.000000E+00
  4.685986E-01  9.826398E-02  1.000000E-01  4.781511E-01  9.039145E-02  1.416122E-17  3.757549E-02 -2.643574E-03 -1.311000E-04 -8.340100E-01  0.000000E+00
  4.376215E-01  1.002072E-01  1.000000E-01  4.465414E-01  9.237433E-02 -8.496734E-17  4.010687E-02 -2.150268E-03 -1.192341E-04 -9.011377E-01  0.000000E+00
  4.068895E-01  1.015795E-01  1.000000E-01  4.151817E-01  9.377464E-02  0.000000E+00  4.287795E-02 -1.470730E-03 -1.067724E-04 -9.655949E-01  0.000000E+00
  3.765814E-01  1.023101E-01  1.000000E-01  3.842546E-01  9.452024E-02 -5.664489E-17  4.568466E-02 -6.074641E-04 -9.405637E-05 -1.024700E+00  0.000000E+00
  3.468696E-01  1.023857E-01  1.000000E-01  3.539360E-01  9.459735E-02 -5.664489E-17  4.835565E-02  4.181701E-04 -8.160080E-05 -1.077230E+00  0.000000E+00
  3.179133E-01  1.018100E-01  1.000000E-01  3.243883E-01  9.400987E-02 -2.832245E-17  5.082908E-02  1.593681E-03 -7.000856E-05 -1.122856E+00  0.000000E+00
  2.898519E-01  1.006033E-01  1.000000E-01  2.957537E-01  9.277855E-02 -4.248367E-17  5.311640E-02  2.895433E-03 -5.968353E-05 -1.164785E+00  0.000000E+00
  2.628044E-01  9.880863E-02  1.000000E-01  2.681539E-01  9.094722E-02  0.000000E+00  5.529519E-02  4.311275E-03 -5.071650E-05 -1.207136E+00  0.000000E+00
  9.800000E-01  1.199571E-02  1.000000E-01  9.999972E-01  2.361260E-03 -2.832245E-17  1.060529E-02 -1.315486E-02 -1.923793E-04 -5.631801E-02  0.000000E+00
  9.720124E-01  1.412025E-02  1.000000E-01  9.918465E-01  4.529188E-03 -2.832245E-17  1.212812E-02 -3.297499E-03 -1.826971E-04  6.911902E-02  0.000000E+00
  9.632634E-01  1.646125E-02  1.000000E-01  9.829188E-01  6.918004E-03 -2.832245E-17  9.090706E-03 -2.370112E-03 -1.549843E-04  2.235040E-02  0.000000E+00
  9.536907E-01  1.900726E-02  1.000000E-01  9.731506E-01  9.516015E-03 -2.832245E-17  7.186965E-03 -1.901294E-03 -1.356329E-04  4.495437E-03  0.000000E+00
  9.432303E-01  2.174262E-02  1.000000E-01  9.624765E-01  1.230724E-02  1.416122E-17  6.751976E-03 -1.750264E-03 -1.287396E-04 -1.527114E-02  0.000000E+00
  9.318220E-01  2.467075E-02  1.000000E-01  9.508352E-01  1.529518E-02  1.416122E-17  7.460679E-03 -1.893988E-03 -1.308134E-04 -4.100908E-02  0.000000E+00
  9.194070E-01  2.779480E-02  1.000000E-01  9.381667E-01  1.848303E-02 -8.496734E-17  8.818394E-03 -2.192974E-03 -1.373532E-04 -6.869863E-02  0.000000E+00
  9.059278E-01  3.111293E-02  1.000000E-01  9.244122E-01  2.186892E-02 -5.664489E-17  1.041479E-02 -2.530895E-03 -1.452302E-04 -9.819993E-02  0.000000E+00
  8.913299E-01  3.461924E-02  1.000000E-01  9.095161E-01  2.544685E-02  0.000000E+00  1.204546E-02 -2.854423E-03 -1.528971E-04 -1.300487E-01  0.000000E+00
  8.755643E-01  3.830843E-02  1.000000E-01  8.934286E-01  2.921138E-02 -2.832245E-17  1.367751E-02 -3.154297E-03 -1.599349E-04 -1.643622E-01  0.000000E+00
  8.585885E-01  4.216970E-02  1.000000E-01  8.761060E-01  3.315151E-02  4.106755E-16  1.535416E-02 -3.434198E-03 -1.664710E-04 -2.007172E-01  0.000000E+00
  8.403666E-01  4.618067E-02  1.000000E-01  8.575120E-01  3.724441E-02  3.965142E-16  1.709625E-02 -3.690793E-03 -1.725236E-04 -2.385082E-01  0.000000E+00
  8.208730E-01  5.031160E-02  1.000000E-01  8.376203E-01  4.145970E-02 -8.496734E-17  1.887313E-02 -3.912815E-03 -1.778287E-04 -2.774081E-01  0.000000E+00
  8.000947E-01  5.452960E-02  1.000000E-01  8.164176E-01  4.576385E-02 -2.832245E-17  2.064052E-02 -4.087555E-03 -1.821342E-04 -3.171389E-01  0.000000E+00
  7.780326E-01  5.879500E-02  1.000000E-01  7.939049E-01  5.011637E-02 -2.832245E-17  2.236116E-02 -4.203773E-03 -1.853022E-04 -3.571902E-01  0.000000E+00
  7.547032E-01  6.306216E-02  1.000000E-01  7.700990E-01  5.447068E-02  4.389979E-16  2.399660E-02 -4.252117E-03 -1.872218E-04 -3.965849E-01  0.000000E+00
  7.301402E-01  6.728020E-02  1.000000E-01  7.450344E-01  5.877487E-02  2.832245E-17  2.550009E-02 -4.229635E-03 -1.877686E-04 -4.340615E-01  0.000000E+00
  2.444131E-01 -2.563326E-03  1.000000E-01  2.493869E-01 -1.249512E-02  3.681918E-16  2.786664E-02  1.275825E-03  4.664403E-05  1.678638E-01  0.000000E+00
  2.700250E-01 -1.394538E-03  1.000000E-01  2.755219E-01 -1.130246E-02 -4.248367E-17  2.811378E-02  1.262578E-03  4.931602E-05  1.661364E-01  0.000000E+00
  2.967058E-01 -2.168871E-04  1.000000E-01  3.027477E-01 -1.010076E-02 -2.832245E-17  2.848525E-02  1.293662E-03  5.283724E-05  1.582684E-01  0.000000E+00
  3.243554E-01  1.072417E-03  1.000000E-01  3.309619E-01 -8.785125E-03  4.248367E-16  2.862764E-02  1.446261E-03  5.726422E-05  1.454759E-01  0.000000E+00
  3.528511E-01  2.622958E-03  1.000000E-01  3.600397E-01 -7.202916E-03 -4.248367E-17  2.814536E-02  1.739399E-03  6.243581E-05  1.340401E-01  0.000000E+00
  3.820469E-01  4.650233E-03  1.000000E-01  3.898317E-01 -5.134237E-03  5.664489E-17  2.678146E-02  2.123251E-03  6.792638E-05  1.316761E-01  0.000000E+00
  4.117740E-01  7.322026E-03  1.000000E-01  4.201660E-01 -2.407876E-03 -5.664489E-17  2.461077E-02  2.480388E-03  7.318746E-05  1.453936E-01  0.000000E+00
  4.418498E-01  1.071363E-02  1.000000E-01  4.508560E-01  1.052995E-03 -2.832245E-17  2.207029E-02  2.674360E-03  7.783192E-05  1.754639E-01  0.000000E+00
  4.721105E-01  1.467284E-02  1.000000E-01  4.817348E-01  5.093066E-03 -5.664489E-17  1.992945E-02  2.508714E-03  8.206490E-05  2.274208E-01  0.000000E+00
  5.024968E-01  1.833510E-02  1.000000E-01  5.127417E-01  8.830123E-03  1.416122E-17  1.864630E-02  2.067009E-03  8.624744E-05  2.822930E-01  0.000000E+00
  5.328693E-01  2.137384E-02  1.000000E-01  5.437344E-01  1.193092E-02 -4.248367E-17  1.801581E-02  1.664942E-03  9.051779E-05  3.089944E-01  0.000000E+00
  5.630297E-01  2.391654E-02  1.000000E-01  5.745109E-01  1.452556E-02  1.416122E-17  1.767820E-02  1.393003E-03  9.495598E-05  3.160304E-01  0.000000E+00
  5.927917E-01  2.609465E-02  1.000000E-01  6.048807E-01  1.674815E-02  5.664489E-17  1.736128E-02  1.213580E-03  9.927612E-05  3.215697E-01  0.000000E+00
  6.219828E-01  2.803242E-02  1.000000E-01  6.346680E-01  1.872550E-02 -4.248367E-17  1.692381E-02  1.078118E-03  1.029919E-04  3.308874E-01  0.000000E+00
  6.504533E-01  2.976072E-02  1.000000E-01  6.637199E-01  2.048910E-02  5.664489E-17  1.638118E-02  9.279194E-04  1.059092E-04  3.444472E-01  0.000000E+00
  6.780742E-01  3.120131E-02  1.000000E-01  6.919050E-01  2.195911E-02  4.531591E-16  1.584124E-02  7.315069E-04  1.081688E-04  3.602888E-01  0.000000E+00
  7.047326E-01  3.225808E-02  1.000000E-01  7.191079E-01  2.303747E-02  0.000000E+00  1.541975E-02  4.944366E-04  1.100648E-04  3.747806E-01  0.000000E+00
  1.215943E-04  9.343951E-03  1.000000E-01  1.060953E-04 -3.446556E-04 -5.664489E-17 -4.538244E-02  8.095448E-02  6.996440E-05  7.518126E-01  0.000000E+00
  4.902502E-03  3.676633E-03  1.000000E-01  4.984646E-03 -6.127722E-03 -8.496734E-17 -1.680268E-02  1.957184E-02  5.543554E-05  9.383354E-01  0.000000E+00
  1.254908E-02  3.719513E-05  1.000000E-01  1.278740E-02 -9.841490E-03 -2.832245E-17  7.872889E-03 -2.050733E-03  4.158192E-05  5.433189E-01  0.000000E+00
  2.163699E-02 -2.349440E-03  1.000000E-01  2.206092E-02 -1.227687E-02  1.416122E-17  2.165305E-02 -4.460576E-03  3.557563E-05  3.418492E-01  0.000000E+00
  3.184423E-02 -4.023990E-03  1.000000E-01  3.247662E-02 -1.398562E-02 -2.832245E-17  2.740817E-02 -3.594369E-03  3.482187E-05  3.078620E-01  0.000000E+00
  4.311596E-02 -5.196639E-03  1.000000E-01  4.397856E-02 -1.518222E-02 -8.496734E-17  2.960442E-02 -2.378717E-03  3.538511E-05  2.725973E-01  0.000000E+00
  5.546913E-02 -5.910586E-03  1.000000E-01  5.658403E-02 -1.591075E-02  1.416122E-17  3.027013E-02 -1.405069E-03  3.616870E-05  2.400372E-01  0.000000E+00
  6.891473E-02 -6.379538E-03  1.000000E-01  7.030424E-02 -1.638928E-02 -8.496734E-17  3.050685E-02 -8.731118E-04  3.702728E-05  2.280240E-01  0.000000E+00
  8.348882E-02 -6.710141E-03  1.000000E-01  8.517599E-02 -1.672663E-02  5.664489E-17  3.063123E-02 -5.237177E-04  3.782072E-05  2.159473E-01  0.000000E+00
  9.923792E-02 -6.896309E-03  1.000000E-01  1.012467E-01 -1.691660E-02 -9.912856E-17  3.060098E-02 -1.655006E-04  3.855935E-05  1.970261E-01  0.000000E+00
  1.162051E-01 -6.880311E-03  1.000000E-01  1.185604E-01 -1.690028E-02 -8.496734E-17  3.037966E-02  2.019298E-04  3.932745E-05  1.801771E-01  0.000000E+00
  1.344203E-01 -6.654631E-03  1.000000E-01  1.371477E-01 -1.666999E-02 -8.496734E-17  2.999105E-02  5.235796E-04  4.015513E-05  1.708763E-01  0.000000E+00
  1.539027E-01 -6.216437E-03  1.000000E-01  1.570280E-01 -1.622284E-02  4.389979E-16  2.945496E-02  8.005803E-04  4.103112E-05  1.658514E-01  0.000000E+00
  1.746592E-01 -5.554912E-03  1.000000E-01  1.782084E-01 -1.554781E-02  3.257081E-16  2.884613E-02  1.019855E-03  4.200511E-05  1.639336E-01  0.000000E+00
  1.966815E-01 -4.698920E-03  1.000000E-01  2.006805E-01 -1.467433E-02 -2.832245E-17  2.829525E-02  1.165603E-03  4.317563E-05  1.651404E-01  0.000000E+00
  2.199461E-01 -3.686979E-03  1.000000E-01  2.244202E-01 -1.364172E-02 -4.248367E-17  2.793252E-02  1.249386E-03  4.466442E-05  1.670379E-01  0.000000E+00
  2.444131E-01 -2.563326E-03  1.000000E-01  2.493869E-01 -1.249512E-02  3.823530E-16  2.786664E-02  1.275825E-03  4.664403E-05  1.678638E-01  0.000000E+00
  7.047326E-01  3.225808E-02  1.000000E-01  7.191079E-01  2.303747E-02 -2.832245E-17  1.541975E-02  4.944366E-04  1.100648E-04  3.747806E-01  0.000000E+00
  7.303325E-01  3.287041E-02  1.000000E-01  7.452306E-01  2.366230E-02 -2.832245E-17  1.520828E-02  2.303483E-04  1.119198E-04  3.855617E-01  0.000000E+00
  7.547951E-01  3.301575E-02  1.000000E-01  7.701928E-01  2.381060E-02  4.389979E-16  1.528162E-02 -6.353573E-05  1.140323E-04  3.924535E-01  0.000000E+00
  7.780600E-01  3.267865E-02  1.000000E-01  7.939329E-01  2.346662E-02  1.416122E-17  1.569443E-02 -4.016366E-04  1.166235E-04  3.952158E-01  0.000000E+00
  8.000833E-01  3.187098E-02  1.000000E-01  8.164059E-01  2.264245E-02 -4.248367E-17  1.645840E-02 -7.978937E-04  1.197865E-04  3.931451E-01  0.000000E+00
  8.208376E-01  3.062500E-02  1.000000E-01  8.375841E-01  2.137103E-02 -2.832245E-17  1.750646E-02 -1.236148E-03  1.233934E-04  3.851835E-01  0.000000E+00
  8.403144E-01  2.904827E-02  1.000000E-01  8.574588E-01  1.976210E-02  4.389979E-16  1.867774E-02 -1.651250E-03  1.270626E-04  3.705123E-01  0.000000E+00
  8.585258E-01  2.730329E-02  1.000000E-01  8.760420E-01  1.798148E-02  3.965142E-16  1.977541E-02 -1.976698E-03  1.303021E-04  3.516425E-01  0.000000E+00
  8.754993E-01  2.553343E-02  1.000000E-01  8.933622E-01  1.617547E-02 -2.832245E-17  2.065516E-02 -2.194839E-03  1.326411E-04  3.328124E-01  0.000000E+00
  8.912718E-01  2.382162E-02  1.000000E-01  9.094569E-01  1.442870E-02 -2.832245E-17  2.130164E-02 -2.363719E-03  1.338105E-04  3.177172E-01  0.000000E+00
  9.058836E-01  2.216078E-02  1.000000E-01  9.243671E-01  1.273394E-02 -4.248367E-17  2.183991E-02 -2.569143E-03  1.339330E-04  3.069653E-01  0.000000E+00
  9.193796E-01  2.051494E-02  1.000000E-01  9.381387E-01  1.105449E-02 -5.664489E-17  2.246269E-02 -2.839088E-03  1.336874E-04  2.958841E-01  0.000000E+00
  9.318118E-01  1.888450E-02  1.000000E-01  9.508248E-01  9.390749E-03  4.248367E-17  2.337347E-02 -3.189766E-03  1.344636E-04  2.817948E-01  0.000000E+00
  9.432349E-01  1.726389E-02  1.000000E-01  9.624812E-01  7.737040E-03 -2.832245E-17  2.461227E-02 -3.637443E-03  1.372921E-04  2.652362E-01  0.000000E+00
  9.537058E-01  1.565271E-02  1.000000E-01  9.731660E-01  6.092952E-03  0.000000E+00  2.554057E-02 -4.081913E-03  1.398171E-04  2.406462E-01  0.000000E+00
  9.632829E-01  1.405517E-02  1.000000E-01  9.829387E-01  4.462788E-03 -2.832245E-17  2.456063E-02 -4.271494E-03  1.343942E-04  2.059546E-01  0.000000E+00
  9.720275E-01  1.250378E-02  1.000000E-01  9.918619E-01  2.879713E-03  0.000000E+00  2.088128E-02 -3.724148E-03  1.156959E-04  2.035015E-01  0.000000E+00
  9.800000E-01  1.102049E-02  1.000000E-01  9.999972E-01  1.366124E-03  1.416122E-17  1.389956E-02  4.367683E-03  7.206811E-05 -1.009318E-02  0.000000E+00
  1.215943E-04  1.002462E-02  1.000000E-01  1.060953E-04  3.499175E-04 -9.912856E-17  2.284712E-02  5.297081E-02  3.337120E-05  4.588234E-01  0.000000E+00
  7.278129E-05  9.909962E-03  1.000000E-01  5.628532E-05  2.329153E-04  1.416122E-17  1.552885E-02  7.595922E-02  4.616005E-05  2.989869E-01  0.000000E+00
  1.762252E-05  9.681709E-03  1.000000E-01  0.000000E+00  0.000000E+00  0.000000E+00 -1.212721E-02  1.218330E-01  6.686218E-05  3.389006E-01  0.000000E+00
  8.694958E-05  9.456543E-03  1.000000E-01  7.074297E-05 -2.297642E-04  0.000000E+00 -5.080348E-02  1.319125E-01  7.650188E-05  3.879932E-01  0.000000E+00
  1.215943E-04  9.343951E-03  1.000000E-01  1.060953E-04 -3.446556E-04 -4.248367E-17 -4.538244E-02  8.095448E-02  6.996440E-05  7.518126E-01  0.000000E+00
  9.800000E-01  1.102049E-02  1.000000E-01  9.999972E-01  1.366124E-03  0.000000E+00  1.389956E-02  4.367683E-03  7.206811E-05 -1.009318E-02  0.000000E+00
  9.800000E-01  1.118303E-02  1.000000E-01  9.999972E-01  1.531980E-03  0.000000E+00  4.506557E-03 -1.560889E-03 -1.301053E-05 -2.108422E-01  0.000000E+00
  9.800000E-01  1.150810E-02  1.000000E-01  9.999972E-01  1.863692E-03 -2.832245E-17 -4.421112E-04 -1.596963E-02 -1.069163E-04 -1.751794E-01  0.000000E+00
  9.800000E-01  1.183317E-02  1.000000E-01  9.999972E-01  2.195404E-03 -5.664489E-17  3.431455E-03 -1.964251E-02 -1.670230E-04 -1.935785E-01  0.000000E+00
  9.800000E-01  1.199571E-02  1.000000E-01  9.999972E-01  2.361260E-03  0.000000E+00  1.060529E-02 -1.315486E-02 -1.923793E-04 -5.631801E-02  0.000000E+00
  2.628044E-01  9.880863E-02  1.000000E-01  2.681539E-01  9.094722E-02 -2.832245E-17  5.529519E-02  4.311275E-03 -5.071650E-05 -1.207136E+00  0.000000E+00
  2.368706E-01  9.647562E-02  1.000000E-01  2.416904E-01  8.856656E-02  3.681918E-16  5.752264E-02  5.925624E-03 -4.301783E-05 -1.246939E+00  0.000000E+00
  2.121362E-01  9.359698E-02  1.000000E-01  2.164508E-01  8.562913E-02  1.416122E-17  5.982731E-02  7.813791E-03 -3.639347E-05 -1.277402E+00  0.000000E+00
  1.886687E-01  9.019042E-02  1.000000E-01  1.925040E-01  8.215299E-02 -4.248367E-17  6.203059E-02  9.954009E-03 -3.061577E-05 -1.293643E+00  0.000000E+00
  1.665185E-01  8.628815E-02  1.000000E-01  1.699014E-01  7.817103E-02  4.814816E-16  6.390456E-02  1.227980E-02 -2.552616E-05 -1.293196E+00  0.000000E+00
  1.457161E-01  8.194713E-02  1.000000E-01  1.486742E-01  7.374134E-02  4.531591E-16  6.529618E-02  1.471757E-02 -2.101960E-05 -1.277641E+00  0.000000E+00
  1.262764E-01  7.722706E-02  1.000000E-01  1.288374E-01  6.892487E-02  0.000000E+00  6.618831E-02  1.723087E-02 -1.699053E-05 -1.252183E+00  0.000000E+00
  1.081990E-01  7.218767E-02  1.000000E-01  1.103908E-01  6.378256E-02  0.000000E+00  6.661781E-02  1.979618E-02 -1.328612E-05 -1.223921E+00  0.000000E+00
  9.146971E-02  6.689131E-02  1.000000E-01  9.331987E-02  5.837803E-02  0.000000E+00  6.669413E-02  2.256829E-02 -9.780588E-06 -1.188047E+00  0.000000E+00
  7.608258E-02  6.133364E-02  1.000000E-01  7.761848E-02  5.270686E-02  0.000000E+00  6.637517E-02  2.571857E-02 -6.422129E-06 -1.126201E+00  0.000000E+00
  6.202881E-02  5.550398E-02  1.000000E-01  6.327768E-02  4.675813E-02 -5.664489E-17  6.532347E-02  2.910788E-02 -3.214090E-06 -1.021194E+00  0.000000E+00
  4.929579E-02  4.941919E-02  1.000000E-01  5.028461E-02  4.054907E-02 -8.496734E-17  6.318163E-02  3.218776E-02 -1.574542E-07 -8.780595E-01  0.000000E+00
  3.782553E-02  4.318998E-02  1.000000E-01  3.858009E-02  3.419263E-02  4.248367E-17  6.008493E-02  3.474015E-02  2.805524E-06 -7.235938E-01  0.000000E+00
  2.757469E-02  3.687014E-02  1.000000E-01  2.811989E-02  2.774372E-02 -2.832245E-17  5.653582E-02  3.700445E-02  5.960921E-06 -6.054451E-01  0.000000E+00
  1.848362E-02  3.053636E-02  1.000000E-01  1.884314E-02  2.128058E-02  5.664489E-17  5.321014E-02  4.043167E-02  1.010582E-05 -5.077949E-01  0.000000E+00
  1.064273E-02  2.406275E-02  1.000000E-01  1.084211E-02  1.467475E-02  1.416122E-17  4.945762E-02  4.665049E-02  1.664371E-05 -2.681307E-01  0.000000E+00
  4.262692E-03  1.729931E-02  1.000000E-01  4.331770E-03  7.773178E-03  1.416122E-17  4.009771E-02  5.389081E-02  2.577063E-05  2.429399E-01  0.000000E+00
  1.215943E-04  1.002462E-02  1.000000E-01  1.060953E-04  3.499175E-04 -8.496734E-17  2.284712E-02  5.297081E-02  3.337120E-05  4.588234E-01  0.000000E+00
    1    2
    2    3
    3    4
    4    5
    5    6
    6    7
    7    8
    8    9
    9   10
   10   11
   11   12
   12   13
   13   14
   14   15
   15   16
   16   17
   18   19
   19   20
   20   21
   21   22
   22   23
   23   24
   24   25
   25   26
   26   27
   27   28
   28   29
   29   30
   30   31
   31   32
   32   33
   33   34
   35   36
   36   37
   37   38
   38   39
   39   40
   40   41
   41   42
   42   43
   43   44
   44   45
   45   46
   46   47
   47   48
   48   49
   49   50
   50   51
   52   53
   53   54
   54   55
   55   56
   56   57
   57   58
   58   59
   59   60
   60   61
   61   62
   62   63
   63   64
   64   65
   65   66
   66   67
   67   68
   69   70
   70   71
   71   72
   72   73
   73   74
   74   75
   75   76
   76   77
   77   78
   78   79
   79   80
   80   81
   81   82
   82   83
   83   84
   84   85
   85   86
   87   88
   88   89
   89   90
   90   91
   92   93
   93   94
   94   95
   95   96
   97   98
   98   99
   99  100
  100  101
  101  102
  102  103
  103  104
  104  105
  105  106
  106  107
  107  108
  108  109
  109  110
  110  111
  111  112
  112  113
  113  114
Zone T= "Slice_0002 None Relative Regular z = 0.36666667"
 Nodes =          114  Elements=          106  ZONETYPE=FELINESEG
 DATAPACKING=POINT
  7.301402E-01  6.673282E-02  3.666667E-01  7.450347E-01  5.824126E-02 -5.664492E-17  2.567521E-02 -4.234944E-03 -6.011302E-04 -4.282081E-01  0.000000E+00
  7.043967E-01  7.083540E-02  3.666667E-01  7.187653E-01  6.242764E-02 -1.132898E-16  2.699135E-02 -4.149371E-03 -5.965396E-04 -4.622567E-01  0.000000E+00
  6.775455E-01  7.481572E-02  3.666667E-01  6.913657E-01  6.648925E-02  3.058825E-14  2.811793E-02 -4.023387E-03 -5.877003E-04 -4.942707E-01  0.000000E+00
  6.496792E-01  7.866053E-02  3.666667E-01  6.629303E-01  7.041259E-02 -1.699347E-16  2.909145E-02 -3.887932E-03 -5.751031E-04 -5.274347E-01  0.000000E+00
  6.209097E-01  8.237999E-02  3.666667E-01  6.335732E-01  7.420801E-02  0.000000E+00  3.001944E-02 -3.753603E-03 -5.594225E-04 -5.639683E-01  0.000000E+00
  5.913667E-01  8.594843E-02  3.666667E-01  6.034268E-01  7.784934E-02  1.132898E-16  3.103364E-02 -3.610044E-03 -5.411601E-04 -6.042512E-01  0.000000E+00
  5.611982E-01  8.932399E-02  3.666667E-01  5.726422E-01  8.129384E-02  2.265797E-16  3.223413E-02 -3.449313E-03 -5.202314E-04 -6.492113E-01  0.000000E+00
  5.305654E-01  9.245397E-02  3.666667E-01  5.413837E-01  8.448775E-02  1.132898E-16  3.369555E-02 -3.262303E-03 -4.961851E-04 -7.006281E-01  0.000000E+00
  4.996398E-01  9.528475E-02  3.666667E-01  5.098265E-01  8.737634E-02 -1.699347E-16  3.548821E-02 -3.024320E-03 -4.685871E-04 -7.596033E-01  0.000000E+00
  4.685986E-01  9.773883E-02  3.666667E-01  4.781513E-01  8.988055E-02  1.132898E-16  3.766721E-02 -2.688325E-03 -4.372630E-04 -8.245533E-01  0.000000E+00
  4.376215E-01  9.971936E-02  3.666667E-01  4.465416E-01  9.190153E-02 -5.664492E-17  4.021477E-02 -2.203711E-03 -4.022016E-04 -8.916811E-01  0.000000E+00
  4.068895E-01  1.011331E-01  3.666667E-01  4.151819E-01  9.334413E-02 -5.664492E-17  4.300970E-02 -1.531775E-03 -3.636756E-04 -9.563104E-01  0.000000E+00
  3.765814E-01  1.019076E-01  3.666667E-01  3.842547E-01  9.413450E-02  5.664492E-17  4.584717E-02 -6.739887E-04 -3.224818E-04 -1.015817E+00  0.000000E+00
  3.468696E-01  1.020279E-01  3.666667E-01  3.539361E-01  9.425726E-02 -5.664492E-17  4.855690E-02  3.496105E-04 -2.803531E-04 -1.068963E+00  0.000000E+00
  3.179133E-01  1.014960E-01  3.666667E-01  3.243884E-01  9.371444E-02  0.000000E+00  5.107720E-02  1.528046E-03 -2.396911E-04 -1.115303E+00  0.000000E+00
  2.898519E-01  1.003303E-01  3.666667E-01  2.957539E-01  9.252498E-02  5.664492E-17  5.341607E-02  2.838004E-03 -2.024093E-04 -1.157925E+00  0.000000E+00
  2.628044E-01  9.857290E-02  3.666667E-01  2.681540E-01  9.073165E-02  5.664492E-17  5.564551E-02  4.266367E-03 -1.693479E-04 -1.200888E+00  0.000000E+00
  9.800000E-01  1.179314E-02  3.666667E-01  9.999976E-01  2.179486E-03  5.664492E-17  1.059598E-02 -1.305814E-02 -6.216239E-04 -5.697980E-02  0.000000E+00
  9.720124E-01  1.390467E-02  3.666667E-01  9.918469E-01  4.334142E-03  0.000000E+00  1.215295E-02 -3.283856E-03 -5.889631E-04  6.952786E-02  0.000000E+00
  9.632634E-01  1.623150E-02  3.666667E-01  9.829192E-01  6.708499E-03  1.132898E-16  9.198604E-03 -2.383487E-03 -5.006171E-04  2.285302E-02  0.000000E+00
  9.536907E-01  1.876210E-02  3.666667E-01  9.731510E-01  9.290787E-03 -5.664492E-17  7.356268E-03 -1.933542E-03 -4.393204E-04  5.022366E-03  0.000000E+00
  9.432303E-01  2.148074E-02  3.666667E-01  9.624769E-01  1.206495E-02 -1.699347E-16  6.954563E-03 -1.791120E-03 -4.176694E-04 -1.468732E-02  0.000000E+00
  9.318220E-01  2.439081E-02  3.666667E-01  9.508356E-01  1.503445E-02 -5.664492E-17  7.677669E-03 -1.936492E-03 -4.244513E-04 -4.029561E-02  0.000000E+00
  9.194070E-01  2.749540E-02  3.666667E-01  9.381671E-01  1.820246E-02  0.000000E+00  9.037767E-03 -2.232958E-03 -4.453109E-04 -6.779123E-02  0.000000E+00
  9.059278E-01  3.079267E-02  3.666667E-01  9.244126E-01  2.156707E-02 -1.132898E-16  1.063068E-02 -2.566517E-03 -4.703991E-04 -9.704663E-02  0.000000E+00
  8.913299E-01  3.427676E-02  3.666667E-01  9.095165E-01  2.512232E-02  0.000000E+00  1.225957E-02 -2.886114E-03 -4.949682E-04 -1.285929E-01  0.000000E+00
  8.755643E-01  3.794240E-02  3.666667E-01  8.934290E-01  2.886283E-02 -1.132898E-16  1.389679E-02 -3.183774E-03 -5.177584E-04 -1.625398E-01  0.000000E+00
  8.585885E-01  4.177892E-02  3.666667E-01  8.761064E-01  3.277771E-02  3.098477E-14  1.558182E-02 -3.462147E-03 -5.389650E-04 -1.984672E-01  0.000000E+00
  8.403666E-01  4.576413E-02  3.666667E-01  8.575123E-01  3.684430E-02  3.098477E-14  1.732602E-02 -3.715800E-03 -5.582965E-04 -2.357719E-01  0.000000E+00
  8.208730E-01  4.986852E-02  3.666667E-01  8.376206E-01  4.103252E-02 -5.664492E-17  1.909612E-02 -3.933200E-03 -5.747786E-04 -2.741293E-01  0.000000E+00
  8.000947E-01  5.405958E-02  3.666667E-01  8.164180E-01  4.530919E-02 -5.664492E-17  2.085218E-02 -4.102904E-03 -5.876619E-04 -3.132660E-01  0.000000E+00
  7.780326E-01  5.829815E-02  3.666667E-01  7.939052E-01  4.963432E-02 -1.132898E-16  2.256052E-02 -4.214667E-03 -5.965487E-04 -3.526785E-01  0.000000E+00
  7.547032E-01  6.253924E-02  3.666667E-01  7.700994E-01  5.396203E-02  3.075819E-14  2.418380E-02 -4.259583E-03 -6.011272E-04 -3.914042E-01  0.000000E+00
  7.301402E-01  6.673282E-02  3.666667E-01  7.450347E-01  5.824126E-02 -5.664492E-17  2.567521E-02 -4.234944E-03 -6.011302E-04 -4.282081E-01  0.000000E+00
  2.444131E-01 -2.776948E-03  3.666667E-01  2.493870E-01 -1.268818E-02  3.092812E-14  2.812896E-02  1.253275E-03  1.533978E-04  1.655431E-01  0.000000E+00
  2.700250E-01 -1.641152E-03  3.666667E-01  2.755220E-01 -1.152919E-02  5.664492E-17  2.839637E-02  1.237792E-03  1.640328E-04  1.636288E-01  0.000000E+00
  2.967058E-01 -5.003680E-04  3.666667E-01  3.027478E-01 -1.036510E-02 -5.664492E-17  2.879198E-02  1.267350E-03  1.774543E-04  1.555049E-01  0.000000E+00
  3.243554E-01  7.486126E-04  3.666667E-01  3.309620E-01 -9.090612E-03  3.070154E-14  2.895551E-02  1.420850E-03  1.937203E-04  1.423826E-01  0.000000E+00
  3.528511E-01  2.256377E-03  3.666667E-01  3.600398E-01 -7.552052E-03 -5.664492E-17  2.848395E-02  1.718724E-03  2.120868E-04  1.305611E-01  0.000000E+00
  3.820469E-01  4.240090E-03  3.666667E-01  3.898318E-01 -5.527824E-03 -1.132898E-16  2.711778E-02  2.111264E-03  2.309137E-04  1.278202E-01  0.000000E+00
  4.117740E-01  6.869145E-03  3.666667E-01  4.201661E-01 -2.845073E-03  1.132898E-16  2.493386E-02  2.479265E-03  2.482201E-04  1.412399E-01  0.000000E+00
  4.418498E-01  1.022040E-02  3.666667E-01  4.508562E-01  5.746321E-04 -1.699347E-16  2.237279E-02  2.683321E-03  2.627179E-04  1.711180E-01  0.000000E+00
  4.721105E-01  1.414333E-02  3.666667E-01  4.817350E-01  4.577685E-03 -1.132898E-16  2.021172E-02  2.522298E-03  2.754725E-04  2.230297E-01  0.000000E+00
  5.024968E-01  1.777487E-02  3.666667E-01  5.127419E-01  8.283391E-03  5.664492E-17  1.891460E-02  2.079867E-03  2.879031E-04  2.779570E-01  0.000000E+00
  5.328693E-01  2.078977E-02  3.666667E-01  5.437346E-01  1.135987E-02 -2.265797E-16  1.827468E-02  1.676703E-03  3.003763E-04  3.046688E-01  0.000000E+00
  5.630297E-01  2.331644E-02  3.666667E-01  5.745111E-01  1.393815E-02  1.132898E-16  1.792879E-02  1.405134E-03  3.133348E-04  3.116461E-01  0.000000E+00
  5.927917E-01  2.548664E-02  3.666667E-01  6.048809E-01  1.615267E-02  0.000000E+00  1.760245E-02  1.227204E-03  3.261012E-04  3.171453E-01  0.000000E+00
  6.219828E-01  2.742436E-02  3.666667E-01  6.346683E-01  1.812996E-02  5.664492E-17  1.715363E-02  1.093610E-03  3.372482E-04  3.265052E-01  0.000000E+00
  6.504533E-01  2.915976E-02  3.666667E-01  6.637202E-01  1.990081E-02 -1.132898E-16  1.659834E-02  9.446809E-04  3.462449E-04  3.401854E-01  0.000000E+00
  6.780742E-01  3.061362E-02  3.666667E-01  6.919053E-01  2.138436E-02  3.092812E-14  1.604565E-02  7.484959E-04  3.535323E-04  3.561961E-01  0.000000E+00
  7.047326E-01  3.168866E-02  3.666667E-01  7.191082E-01  2.248136E-02 -5.664492E-17  1.561252E-02  5.107890E-04  3.599119E-04  3.708799E-01  0.000000E+00
  1.215943E-04  9.319479E-03  3.666667E-01  1.060954E-04 -3.446937E-04 -2.265797E-16 -4.442025E-02  7.928198E-02  2.173521E-04  7.561887E-01  0.000000E+00
  4.902502E-03  3.650378E-03  3.666667E-01  4.984648E-03 -6.129580E-03  5.664492E-17 -1.611266E-02  1.894384E-02  1.693574E-04  9.360096E-01  0.000000E+00
  1.254908E-02  7.929651E-06  3.666667E-01  1.278740E-02 -9.846423E-03  2.265797E-16  8.275457E-03 -2.216614E-03  1.252679E-04  5.389452E-01  0.000000E+00
  2.163699E-02 -2.382512E-03  3.666667E-01  2.206093E-02 -1.228569E-02  5.664492E-17  2.190094E-02 -4.524666E-03  1.064455E-04  3.379496E-01  0.000000E+00
  3.184423E-02 -4.061628E-03  3.666667E-01  3.247663E-02 -1.399910E-02  0.000000E+00  2.763041E-02 -3.637193E-03  1.041236E-04  3.046862E-01  0.000000E+00
  4.311596E-02 -5.239679E-03  3.666667E-01  4.397858E-02 -1.520121E-02 -1.132898E-16  2.983714E-02 -2.412799E-03  1.059584E-04  2.698131E-01  0.000000E+00
  5.546913E-02 -5.959986E-03  3.666667E-01  5.658405E-02 -1.593623E-02 -5.664492E-17  3.051113E-02 -1.433127E-03  1.085173E-04  2.374374E-01  0.000000E+00
  6.891473E-02 -6.436398E-03  3.666667E-01  7.030427E-02 -1.642237E-02  1.699347E-16  3.075246E-02 -8.984218E-04  1.114190E-04  2.255960E-01  0.000000E+00
  8.348882E-02 -6.775739E-03  3.666667E-01  8.517602E-02 -1.676864E-02  2.832246E-16  3.088070E-02 -5.477343E-04  1.143129E-04  2.136804E-01  0.000000E+00
  9.923792E-02 -6.972140E-03  3.666667E-01  1.012468E-01 -1.696905E-02 -1.132898E-16  3.085314E-02 -1.881600E-04  1.172729E-04  1.948674E-01  0.000000E+00
  1.162051E-01 -6.968115E-03  3.666667E-01  1.185605E-01 -1.696495E-02  5.664492E-17  3.063222E-02  1.807146E-04  1.205721E-04  1.780768E-01  0.000000E+00
  1.344203E-01 -6.756427E-03  3.666667E-01  1.371477E-01 -1.674894E-02  0.000000E+00  3.024156E-02  5.034196E-04  1.243024E-04  1.688097E-01  0.000000E+00
  1.539027E-01 -6.334555E-03  3.666667E-01  1.570281E-01 -1.631845E-02  3.064490E-14  2.970169E-02  7.810971E-04  1.284182E-04  1.638008E-01  0.000000E+00
  1.746592E-01 -5.692021E-03  3.666667E-01  1.782084E-01 -1.566279E-02  3.109806E-14  2.908947E-02  1.000548E-03  1.330543E-04  1.618722E-01  0.000000E+00
  1.966815E-01 -4.858047E-03  3.666667E-01  2.006805E-01 -1.481178E-02 -1.132898E-16  2.853859E-02  1.145824E-03  1.384936E-04  1.630342E-01  0.000000E+00
  2.199461E-01 -3.871505E-03  3.666667E-01  2.244203E-01 -1.380509E-02 -1.699347E-16  2.818173E-02  1.228548E-03  1.450963E-04  1.648479E-01  0.000000E+00
  2.444131E-01 -2.776948E-03  3.666667E-01  2.493870E-01 -1.268818E-02  3.092812E-14  2.812896E-02  1.253275E-03  1.533978E-04  1.655431E-01  0.000000E+00
  7.047326E-01  3.168866E-02  3.666667E-01  7.191082E-01  2.248136E-02 -5.664492E-17  1.561252E-02  5.107890E-04  3.599119E-04  3.708799E-01  0.000000E+00