 Title = "ADflow Slice Data"
Variables =  "CoordinateX"  "CoordinateY"  "CoordinateZ"  "XoC"  "YoC"  "ZoC" "VelocityX" "VelocityY" "VelocityZ" "CoefPressure" "Mach" 
Zone T= "Slice_0001 None Relative Regular z = 0.10000000"
 Nodes =          114  Elements=          106  ZONETYPE=FELINESEG
 DATAPACKING=POINT
  7.301402E-01  7.234467E-02  1.000000E-01  7.450259E-01  6.393677E-02  1.416106E-17  2.765526E-02 -4.423998E-03 -1.967564E-04 -4.888896E-01  0.000000E+00
  7.043967E-01  7.628405E-02  1.000000E-01  7.187568E-01  6.795657E-02 -4.248318E-17  2.906142E-02 -4.247380E-03 -1.962102E-04 -5.215792E-01  0.000000E+00
  6.775455E-01  8.002655E-02  1.000000E-01  6.913575E-01  7.177546E-02  3.965097E-16  3.018266E-02 -4.020972E-03 -1.942006E-04 -5.500663E-01  0.000000E+00
  6.496792E-01  8.356611E-02  1.000000E-01  6.629224E-01  7.538727E-02  4.248318E-17  3.105733E-02 -3.790135E-03 -1.907374E-04 -5.785069E-01  0.000000E+00
  6.209097E-01  8.692969E-02  1.000000E-01  6.335657E-01  7.881951E-02 -2.832212E-17  3.181668E-02 -3.571144E-03 -1.860293E-04 -6.098536E-01  0.000000E+00
  5.913667E-01  9.010373E-02  1.000000E-01  6.034197E-01  8.205833E-02 -2.832212E-17  3.262351E-02 -3.349530E-03 -1.804032E-04 -6.443616E-01  0.000000E+00
  5.611982E-01  9.305388E-02  1.000000E-01  5.726354E-01  8.506871E-02  0.000000E+00  3.359134E-02 -3.116429E-03 -1.740511E-04 -6.828226E-01  0.000000E+00
  5.305654E-01  9.573890E-02  1.000000E-01  5.413773E-01  8.780854E-02 -5.664424E-17  3.479167E-02 -2.865763E-03 -1.670636E-04 -7.271049E-01  0.000000E+00
  4.996398E-01  9.811997E-02  1.000000E-01  5.098204E-01  9.023820E-02  0.000000E+00  3.628594E-02 -2.575810E-03 -1.595544E-04 -7.784911E-01  0.000000E+00
  4.685986E-01  1.001361E-01  1.000000E-01  4.781456E-01  9.229545E-02  1.416106E-17  3.812212E-02 -2.202972E-03 -1.517176E-04 -8.357057E-01  0.000000E+00
  4.376215E-01  1.017063E-01  1.000000E-01  4.465363E-01  9.389770E-02 -8.496637E-17  4.028609E-02 -1.702157E-03 -1.437407E-04 -8.953667E-01  0.000000E+00
  4.068895E-01  1.027504E-01  1.000000E-01  4.151769E-01  9.496318E-02  0.000000E+00  4.267710E-02 -1.041123E-03 -1.357550E-04 -9.532536E-01  0.000000E+00
  3.765814E-01  1.032051E-01  1.000000E-01  3.842502E-01  9.542713E-02 -5.664424E-17  4.512236E-02 -2.251890E-04 -1.277624E-04 -1.007189E+00  0.000000E+00
  3.468696E-01  1.030596E-01  1.000000E-01  3.539319E-01  9.527867E-02 -5.664424E-17  4.748132E-02  7.263408E-04 -1.197389E-04 -1.056419E+00  0.000000E+00
  3.179133E-01  1.023173E-01  1.000000E-01  3.243846E-01  9.452117E-02 -2.832212E-17  4.971423E-02  1.808168E-03 -1.117071E-04 -1.100926E+00  0.000000E+00
  2.898519E-01  1.009943E-01  1.000000E-01  2.957503E-01  9.317121E-02 -4.248318E-17  5.184591E-02  3.008013E-03 -1.036004E-04 -1.143939E+00  0.000000E+00
  2.628044E-01  9.912628E-02  1.000000E-01  2.681508E-01  9.126506E-02  0.000000E+00  5.396065E-02  4.325636E-03 -9.528662E-05 -1.189433E+00  0.000000E+00
  9.800000E-01  1.491436E-02  1.000000E-01  9.999858E-01  5.334204E-03 -2.832212E-17  1.041796E-02 -1.368057E-02 -1.977592E-04 -6.470014E-02  0.000000E+00
  9.720124E-01  1.722525E-02  1.000000E-01  9.918351E-01  7.692266E-03 -2.832212E-17  1.168958E-02 -3.449491E-03 -1.898031E-04  5.888743E-02  0.000000E+00
  9.632634E-01  1.976191E-02  1.000000E-01  9.829076E-01  1.028069E-02 -2.832212E-17  8.332822E-03 -2.350352E-03 -1.592288E-04  1.036370E-02  0.000000E+00
  9.536907E-01  2.251116E-02  1.000000E-01  9.731395E-01  1.308607E-02 -2.832212E-17  6.280865E-03 -1.793163E-03 -1.380604E-04 -8.213532E-03  0.000000E+00
  9.432303E-01  2.545521E-02  1.000000E-01  9.624655E-01  1.609021E-02  1.416106E-17  5.827637E-03 -1.623568E-03 -1.304880E-04 -2.941826E-02  0.000000E+00
  9.318220E-01  2.859513E-02  1.000000E-01  9.508243E-01  1.929422E-02  1.416106E-17  6.623564E-03 -1.799239E-03 -1.327461E-04 -5.743867E-02  0.000000E+00
  9.194070E-01  3.193110E-02  1.000000E-01  9.381559E-01  2.269829E-02 -8.496637E-17  8.158580E-03 -2.161289E-03 -1.400116E-04 -8.804581E-02  0.000000E+00
  9.059278E-01  3.545760E-02  1.000000E-01  9.244016E-01  2.629677E-02 -5.664424E-17  9.997804E-03 -2.575209E-03 -1.488294E-04 -1.210910E-01  0.000000E+00
  8.913299E-01  3.916426E-02  1.000000E-01  9.095057E-01  3.007909E-02  0.000000E+00  1.191167E-02 -2.975009E-03 -1.574317E-04 -1.570322E-01  0.000000E+00
  8.755643E-01  4.304051E-02  1.000000E-01  8.934184E-01  3.403446E-02 -2.832212E-17  1.385604E-02 -3.346019E-03 -1.653635E-04 -1.958450E-01  0.000000E+00
  8.585885E-01  4.706940E-02  1.000000E-01  8.760960E-01  3.814559E-02  4.106708E-16  1.586924E-02 -3.689099E-03 -1.727676E-04 -2.369191E-01  0.000000E+00
  8.403666E-01  5.122155E-02  1.000000E-01  8.575022E-01  4.238249E-02  3.965097E-16  1.795531E-02 -3.994863E-03 -1.795687E-04 -2.794272E-01  0.000000E+00
  8.208730E-01  5.545938E-02  1.000000E-01  8.376107E-01  4.670682E-02 -8.496637E-17  2.006269E-02 -4.245321E-03 -1.854176E-04 -3.228069E-01  0.000000E+00
  8.000947E-01  5.974163E-02  1.000000E-01  8.164083E-01  5.107648E-02 -2.832212E-17  2.213575E-02 -4.424285E-03 -1.901135E-04 -3.665309E-01  0.000000E+00
  7.780326E-01  6.401995E-02  1.000000E-01  7.938958E-01  5.544214E-02 -2.832212E-17  2.412880E-02 -4.518948E-03 -1.936123E-04 -4.097875E-01  0.000000E+00
  7.547032E-01  6.824032E-02  1.000000E-01  7.700902E-01  5.974865E-02  4.389929E-16  2.599032E-02 -4.519295E-03 -1.958613E-04 -4.511794E-01  0.000000E+00
  7.301402E-01  7.234467E-02  1.000000E-01  7.450259E-01  6.393677E-02  2.832212E-17  2.765526E-02 -4.423998E-03 -1.967564E-04 -4.888896E-01  0.000000E+00
  2.444131E-01 -2.358232E-03  1.000000E-01  2.493840E-01 -1.229096E-02  3.681876E-16  2.827968E-02  1.385871E-03  7.197181E-05  1.698213E-01  0.000000E+00
  2.700250E-01 -1.102992E-03  1.000000E-01  2.755188E-01 -1.101010E-02 -4.248318E-17  2.854093E-02  1.390249E-03  7.502797E-05  1.669993E-01  0.000000E+00
  2.967058E-01  1.826030E-04  1.000000E-01  3.027442E-01 -9.698261E-03 -2.832212E-17  2.891054E-02  1.446137E-03  7.842278E-05  1.581393E-01  0.000000E+00
  3.243554E-01  1.609511E-03  1.000000E-01  3.309581E-01 -8.242227E-03  4.248318E-16  2.901894E-02  1.631093E-03  8.197816E-05  1.446210E-01  0.000000E+00
  3.528511E-01  3.337276E-03  1.000000E-01  3.600356E-01 -6.479194E-03 -4.248318E-17  2.845897E-02  1.959684E-03  8.538111E-05  1.329600E-01  0.000000E+00
  3.820469E-01  5.591264E-03  1.000000E-01  3.898272E-01 -4.179198E-03  5.664424E-17  2.697581E-02  2.370905E-03  8.823906E-05  1.312107E-01  0.000000E+00
  4.117740E-01  8.542035E-03  1.000000E-01  4.201611E-01 -1.168196E-03 -5.664424E-17  2.465824E-02  2.735358E-03  9.026791E-05  1.465508E-01  0.000000E+00
  4.418498E-01  1.226133E-02  1.000000E-01  4.508508E-01  2.627013E-03 -2.832212E-17  2.195829E-02  2.914271E-03  9.149213E-05  1.789915E-01  0.000000E+00
  4.721105E-01  1.658949E-02  1.000000E-01  4.817293E-01  7.043522E-03 -5.664424E-17  1.965468E-02  2.724815E-03  9.272881E-05  2.335945E-01  0.000000E+00
  5.024968E-01  2.065221E-02  1.000000E-01  5.127358E-01  1.118917E-02  1.416106E-17  1.820684E-02  2.265682E-03  9.446900E-05  2.911533E-01  0.000000E+00
  5.328693E-01  2.410965E-02  1.000000E-01  5.437282E-01  1.471718E-02 -4.248318E-17  1.740918E-02  1.852083E-03  9.645489E-05  3.207388E-01  0.000000E+00
  5.630297E-01  2.707415E-02  1.000000E-01  5.745043E-01  1.774220E-02  1.416106E-17  1.690413E-02  1.567876E-03  9.863423E-05  3.309063E-01  0.000000E+00
  5.927917E-01  2.966307E-02  1.000000E-01  6.048738E-01  2.038397E-02  5.664424E-17  1.642659E-02  1.371615E-03  1.007606E-04  3.396151E-01  0.000000E+00
  6.219828E-01  3.198928E-02  1.000000E-01  6.346608E-01  2.275766E-02 -4.248318E-17  1.584701E-02  1.215082E-03  1.024150E-04  3.518585E-01  0.000000E+00
  6.504533E-01  3.407548E-02  1.000000E-01  6.637124E-01  2.488644E-02  5.664424E-17  1.519481E-02  1.042253E-03  1.035274E-04  3.680370E-01  0.000000E+00
  6.780742E-01  3.582726E-02  1.000000E-01  6.918971E-01  2.667398E-02  4.531540E-16  1.459087E-02  8.229242E-04  1.043447E-04  3.863003E-01  0.000000E+00
  7.047326E-01  3.712727E-02  1.000000E-01  7.190996E-01  2.800052E-02  0.000000E+00  1.415248E-02  5.647345E-04  1.051670E-04  4.027075E-01  0.000000E+00
  1.215943E-04  9.344934E-03  1.000000E-01  1.060941E-04 -3.489083E-04 -5.664424E-17 -5.221083E-02  9.435612E-02  8.129751E-05  7.042029E-01  0.000000E+00
  4.902502E-03  3.606922E-03  1.000000E-01  4.984589E-03 -6.204044E-03 -8.496637E-17 -2.188626E-02  2.450995E-02  6.758251E-05  9.583480E-01  0.000000E+00
  1.254908E-02 -7.634993E-05  1.000000E-01  1.278725E-02 -9.962499E-03 -2.832212E-17  5.194085E-03 -9.262492E-04  5.278590E-05  5.794478E-01  0.000000E+00
  2.163699E-02 -2.488558E-03  1.000000E-01  2.206067E-02 -1.242395E-02  1.416106E-17  2.087238E-02 -4.308764E-03  4.680515E-05  3.693142E-01  0.000000E+00
  3.184423E-02 -4.177076E-03  1.000000E-01  3.247625E-02 -1.414693E-02 -2.832212E-17  2.747550E-02 -3.621151E-03  4.695627E-05  3.289055E-01  0.000000E+00
  4.311596E-02 -5.354782E-03  1.000000E-01  4.397806E-02 -1.534867E-02 -8.496637E-17  2.996627E-02 -2.408375E-03  4.862290E-05  2.904134E-01  0.000000E+00
  5.546913E-02 -6.065734E-03  1.000000E-01  5.658338E-02 -1.607414E-02  1.416106E-17  3.071699E-02 -1.410521E-03  5.056107E-05  2.556743E-01  0.000000E+00
  6.891473E-02 -6.525816E-03  1.000000E-01  7.030343E-02 -1.654361E-02 -8.496637E-17  3.096559E-02 -8.601039E-04  5.263648E-05  2.416053E-01  0.000000E+00
  8.348882E-02 -6.842482E-03  1.000000E-01  8.517501E-02 -1.686674E-02  5.664424E-17  3.107610E-02 -4.962970E-04  5.465521E-05  2.276513E-01  0.000000E+00
  9.923792E-02 -7.009420E-03  1.000000E-01  1.012456E-01 -1.703709E-02 -9.912743E-17  3.102509E-02 -1.245800E-04  5.661356E-05  2.071563E-01  0.000000E+00
  1.162051E-01 -6.968401E-03  1.000000E-01  1.185591E-01 -1.699523E-02 -8.496637E-17  3.078456E-02  2.550369E-04  5.861218E-05  1.889697E-01  0.000000E+00
  1.344203E-01 -6.711781E-03  1.000000E-01  1.371461E-01 -1.673337E-02 -8.496637E-17  3.038139E-02  5.867774E-04  6.066581E-05  1.784562E-01  0.000000E+00
  1.539027E-01 -6.236533E-03  1.000000E-01  1.570262E-01 -1.624842E-02  4.389929E-16  2.983598E-02  8.724605E-04  6.271233E-05  1.722722E-01  0.000000E+00
  1.746592E-01 -5.531398E-03  1.000000E-01  1.782063E-01 -1.552890E-02  3.257044E-16  2.922436E-02  1.099635E-03  6.478028E-05  1.692315E-01  0.000000E+00
  1.966815E-01 -4.624505E-03  1.000000E-01  2.006782E-01 -1.460349E-02 -2.832212E-17  2.867865E-02  1.253366E-03  6.695459E-05  1.693330E-01  0.000000E+00
  2.199461E-01 -3.552897E-03  1.000000E-01  2.244177E-01 -1.351001E-02 -4.248318E-17  2.832859E-02  1.346725E-03  6.931339E-05  1.701166E-01  0.000000E+00
  2.444131E-01 -2.358232E-03  1.000000E-01  2.493840E-01 -1.229096E-02  3.823487E-16  2.827968E-02  1.385871E-03  7.197181E-05  1.698213E-01  0.000000E+00
  7.047326E-01  3.712727E-02  1.000000E-01  7.190996E-01  2.800052E-02 -2.832212E-17  1.415248E-02  5.647345E-04  1.051670E-04  4.027075E-01  0.000000E+00
  7.303325E-01  3.790705E-02  1.000000E-01  7.452220E-01  2.879622E-02 -2.832212E-17  1.395853E-02  2.832933E-04  1.062461E-04  4.145920E-01  0.000000E+00
  7.547951E-01  3.814603E-02  1.000000E-01  7.701840E-01  2.904008E-02  4.389929E-16  1.406688E-02 -2.449407E-05  1.078076E-04  4.219513E-01  0.000000E+00
  7.780600E-01  3.783584E-02  1.000000E-01  7.939238E-01  2.872355E-02  1.416106E-17  1.452143E-02 -3.749572E-04  1.100360E-04  4.248310E-01  0.000000E+00
  8.000833E-01  3.699742E-02  1.000000E-01  8.163966E-01  2.786802E-02 -4.248318E-17  1.533201E-02 -7.852814E-04  1.130191E-04  4.227183E-01  0.000000E+00
  8.208376E-01  3.567241E-02  1.000000E-01  8.375746E-01  2.651596E-02 -2.832212E-17  1.643477E-02 -1.243988E-03  1.166002E-04  4.146679E-01  0.000000E+00
  8.403144E-01  3.397751E-02  1.000000E-01  8.574490E-01  2.478647E-02  4.389929E-16  1.767326E-02 -1.690372E-03  1.203140E-04  3.998803E-01  0.000000E+00
  8.585258E-01  3.208419E-02  1.000000E-01  8.760320E-01  2.285451E-02  3.965097E-16  1.885382E-02 -2.057996E-03  1.235859E-04  3.807124E-01  0.000000E+00
  8.754993E-01  3.014422E-02  1.000000E-01  8.933520E-01  2.087493E-02 -2.832212E-17  1.983281E-02 -2.324886E-03  1.259205E-04  3.611893E-01  0.000000E+00
  8.912718E-01  2.824787E-02  1.000000E-01  9.094465E-01  1.893987E-02 -2.832212E-17  2.059244E-02 -2.543891E-03  1.270999E-04  3.449065E-01  0.000000E+00
  9.058836E-01  2.639363E-02  1.000000E-01  9.243565E-01  1.704778E-02 -4.248318E-17  2.125512E-02 -2.799383E-03  1.273358E-04  3.325578E-01  0.000000E+00
  9.193796E-01  2.454968E-02  1.000000E-01  9.381280E-01  1.516619E-02 -5.664424E-17  2.201647E-02 -3.123422E-03  1.273777E-04  3.196263E-01  0.000000E+00
  9.318118E-01  2.271993E-02  1.000000E-01  9.508139E-01  1.329910E-02  4.248318E-17  2.308608E-02 -3.538631E-03  1.286677E-04  3.035013E-01  0.000000E+00
  9.432349E-01  2.090149E-02  1.000000E-01  9.624702E-01  1.144354E-02 -2.832212E-17  2.449639E-02 -4.062909E-03  1.322065E-04  2.846021E-01  0.000000E+00
  9.537058E-01  1.909602E-02  1.000000E-01  9.731549E-01  9.601218E-03  0.000000E+00  2.554993E-02 -4.575426E-03  1.353315E-04  2.568537E-01  0.000000E+00
  9.632829E-01  1.730937E-02  1.000000E-01  9.829274E-01  7.778096E-03 -2.832212E-17  2.453242E-02 -4.767208E-03  1.297919E-04  2.184689E-01  0.000000E+00
  9.720275E-01  1.557574E-02  1.000000E-01  9.918506E-01  6.009083E-03  0.000000E+00  2.064655E-02 -4.125574E-03  1.099920E-04  2.131111E-01  0.000000E+00
  9.800000E-01  1.391836E-02  1.000000E-01  9.999858E-01  4.317868E-03  1.416106E-17  1.373606E-02  4.720014E-03  6.264382E-05 -1.011162E-02  0.000000E+00
  1.215943E-04  1.003381E-02  1.000000E-01  1.060941E-04  3.540340E-04 -9.912743E-17  2.243357E-02  5.166922E-02  2.558632E-05  3.869834E-01  0.000000E+00
  7.278129E-05  9.917818E-03  1.000000E-01  5.628467E-05  2.356696E-04  1.416106E-17  1.490169E-02  7.474279E-02  4.174212E-05  2.121116E-01  0.000000E+00
  1.762252E-05  9.686863E-03  1.000000E-01  0.000000E+00  0.000000E+00  0.000000E+00 -1.452338E-02  1.292604E-01  6.758668E-05  2.418791E-01  0.000000E+00
  8.694958E-05  9.458916E-03  1.000000E-01  7.074216E-05 -2.325998E-04  0.000000E+00 -5.671272E-02  1.483487E-01  8.351275E-05  2.926702E-01  0.000000E+00
  1.215943E-04  9.344934E-03  1.000000E-01  1.060941E-04 -3.489083E-04 -4.248318E-17 -5.221083E-02  9.435612E-02  8.129751E-05  7.042029E-01  0.000000E+00
  9.800000E-01  1.391836E-02  1.000000E-01  9.999858E-01  4.317868E-03  0.000000E+00  1.373606E-02  4.720014E-03  6.264382E-05 -1.011162E-02  0.000000E+00
  9.800000E-01  1.408436E-02  1.000000E-01  9.999858E-01  4.487258E-03  0.000000E+00  4.544981E-03 -1.096135E-03 -2.059025E-05 -2.208376E-01  0.000000E+00
  9.800000E-01  1.441636E-02  1.000000E-01  9.999858E-01  4.826036E-03 -2.832212E-17 -4.209176E-04 -1.673000E-02 -1.103060E-04 -1.853568E-01  0.000000E+00
  9.800000E-01  1.474836E-02  1.000000E-01  9.999858E-01  5.164815E-03 -5.664424E-17  3.361009E-03 -2.074515E-02 -1.700254E-04 -2.020469E-01  0.000000E+00
  9.800000E-01  1.491436E-02  1.000000E-01  9.999858E-01  5.334204E-03  0.000000E+00  1.041796E-02 -1.368057E-02 -1.977592E-04 -6.470014E-02  0.000000E+00
  2.628044E-01  9.912628E-02  1.000000E-01  2.681508E-01  9.126506E-02 -2.832212E-17  5.396065E-02  4.325636E-03 -9.528662E-05 -1.189433E+00  0.000000E+00
  2.368706E-01  9.675421E-02  1.000000E-01  2.416876E-01  8.884457E-02  3.681876E-16  5.621058E-02  5.852973E-03 -8.681272E-05 -1.234266E+00  0.000000E+00
  2.121362E-01  9.386215E-02  1.000000E-01  2.164483E-01  8.589347E-02  1.416106E-17  5.861147E-02  7.670752E-03 -7.828943E-05 -1.271331E+00  0.000000E+00
  1.886687E-01  9.045987E-02  1.000000E-01  1.925018E-01  8.242175E-02 -4.248318E-17  6.097074E-02  9.763042E-03 -6.978954E-05 -1.295234E+00  0.000000E+00
  1.665185E-01  8.657264E-02  1.000000E-01  1.698994E-01  7.845517E-02  4.814761E-16  6.304471E-02  1.206820E-02 -6.147561E-05 -1.302938E+00  0.000000E+00
  1.457161E-01  8.225158E-02  1.000000E-01  1.486725E-01  7.404590E-02  4.531540E-16  6.466132E-02  1.451470E-02 -5.353753E-05 -1.295589E+00  0.000000E+00
  1.262764E-01  7.755175E-02  1.000000E-01  1.288360E-01  6.925014E-02  0.000000E+00  6.578387E-02  1.706496E-02 -4.609784E-05 -1.278137E+00  0.000000E+00
  1.081990E-01  7.252928E-02  1.000000E-01  1.103896E-01  6.412516E-02  0.000000E+00  6.643699E-02  1.969351E-02 -3.911226E-05 -1.257364E+00  0.000000E+00
  9.146971E-02  6.724394E-02  1.000000E-01  9.331880E-02  5.873193E-02  0.000000E+00  6.672375E-02  2.255427E-02 -3.258728E-05 -1.227795E+00  0.000000E+00
  7.608258E-02  6.168913E-02  1.000000E-01  7.761759E-02  5.306373E-02  0.000000E+00  6.659172E-02  2.581710E-02 -2.663414E-05 -1.170229E+00  0.000000E+00
  6.202881E-02  5.585241E-02  1.000000E-01  6.327696E-02  4.710788E-02 -5.664424E-17  6.568253E-02  2.933400E-02 -2.132825E-05 -1.067203E+00  0.000000E+00
  4.929579E-02  4.974962E-02  1.000000E-01  5.028403E-02  4.088052E-02 -8.496637E-17  6.361980E-02  3.253649E-02 -1.656209E-05 -9.246937E-01  0.000000E+00
  3.782553E-02  4.349194E-02  1.000000E-01  3.857965E-02  3.449510E-02  4.248318E-17  6.055100E-02  3.519920E-02 -1.213862E-05 -7.709042E-01  0.000000E+00
  2.757469E-02  3.713365E-02  1.000000E-01  2.811956E-02  2.800703E-02 -2.832212E-17  5.702293E-02  3.758148E-02 -7.536815E-06 -6.533758E-01  0.000000E+00
  1.848362E-02  3.075264E-02  1.000000E-01  1.884293E-02  2.149578E-02  5.664424E-17  5.375368E-02  4.118834E-02 -1.858422E-06 -5.540204E-01  0.000000E+00
  1.064273E-02  2.422199E-02  1.000000E-01  1.084199E-02  1.483182E-02  1.416106E-17  5.002653E-02  4.763065E-02  6.036049E-06 -3.123372E-01  0.000000E+00
  4.262692E-03  1.739033E-02  1.000000E-01  4.331720E-03  7.860711E-03  1.416106E-17  4.037906E-02  5.477195E-02  1.606520E-05  1.868757E-01  0.000000E+00
  1.215943E-04  1.003381E-02  1.000000E-01  1.060941E-04  3.540340E-04 -8.496637E-17  2.243357E-02  5.166922E-02  2.558632E-05  3.869834E-01  0.000000E+00
    1    2
    2    3
    3    4
    4    5
    5    6
    6    7
    7    8
    8    9
    9   10
   10   11
   11   12
   12   13
   13   14
   14   15
   15   16
   16   17
   18   19
   19   20
   20   21
   21   22
   22   23
   23   24
   24   25
   25   26
   26   27
   27   28
   28   29
   29   30
   30   31
   31   32
   32   33
   33   34
   35   36
   36   37
   37   38
   38   39
   39   40
   40   41
   41   42
   42   43
   43   44
   44   45
   45   46
   46   47
   47   48
   48   49
   49   50
   50   51
   52   53
   53   54
   54   55
   55   56
   56   57
   57   58
   58   59
   59   60
   60   61
   61   62
   62   63
   63   64
   64   65
   65   66
   66   67
   67   68
   69   70
   70   71
   71   72
   72   73
   73   74
   74   75
   75   76
   76   77
   77   78
   78   79
   79   80
   80   81
   81   82
   82   83
   83   84
   84   85
   85   86
   87   88
   88   89
   89   90
   90   91
   92   93
   93   94
   94   95
   95   96
   97   98
   98   99
   99  100
  100  101
  101  102
  102  103
  103  104
  104  105
  105  106
  106  107
  107  108
  108  109
  109  110
  110  111
  111  112
  112  113
  113  114
Zone T= "Slice_0002 None Relative Regular z = 0.36666667"
 Nodes =          114  Elements=          106  ZONETYPE=FELINESEG
 DATAPACKING=POINT
  7.301402E-01  7.229738E-02  3.666667E-01  7.450258E-01  6.389550E-02 -5.664424E-17  2.785313E-02 -4.446702E-03 -6.913271E-04 -4.832592E-01  0.000000E+00
  7.043967E-01  7.623013E-02  3.666667E-01  7.187568E-01  6.790852E-02 -1.132885E-16  2.924543E-02 -4.265800E-03 -6.871856E-04 -5.151940E-01  0.000000E+00
  6.775455E-01  7.996678E-02  3.666667E-01  6.913575E-01  7.172145E-02  3.058789E-14  3.035060E-02 -4.036191E-03 -6.759807E-04 -5.429548E-01  0.000000E+00
  6.496792E-01  8.350195E-02  3.666667E-01  6.629224E-01  7.532878E-02 -1.699327E-16  3.120852E-02 -3.803698E-03 -6.574991E-04 -5.707529E-01  0.000000E+00
  6.209097E-01  8.686326E-02  3.666667E-01  6.335657E-01  7.875870E-02  0.000000E+00  3.195291E-02 -3.584536E-03 -6.325320E-04 -6.015827E-01  0.000000E+00
  5.913667E-01  9.003744E-02  3.666667E-01  6.034197E-01  8.199767E-02  1.132885E-16  3.274948E-02 -3.363766E-03 -6.027160E-04 -6.357188E-01  0.000000E+00
  5.611982E-01  9.299014E-02  3.666667E-01  5.726354E-01  8.501064E-02  2.265770E-16  3.371428E-02 -3.132211E-03 -5.695902E-04 -6.739621E-01  0.000000E+00
  5.305654E-01  9.567982E-02  3.666667E-01  5.413773E-01  8.775522E-02  1.132885E-16  3.492118E-02 -2.883536E-03 -5.345172E-04 -7.181731E-01  0.000000E+00
  4.996398E-01  9.806718E-02  3.666667E-01  5.098204E-01  9.019131E-02 -1.699327E-16  3.643351E-02 -2.595567E-03 -4.988992E-04 -7.696137E-01  0.000000E+00
  4.685986E-01  1.000905E-01  3.666667E-01  4.781456E-01  9.225597E-02  1.132885E-16  3.829956E-02 -2.223939E-03 -4.642161E-04 -8.269866E-01  0.000000E+00
  4.376215E-01  1.016682E-01  3.666667E-01  4.465363E-01  9.386585E-02 -5.664424E-17  4.050262E-02 -1.722569E-03 -4.316722E-04 -8.868757E-01  0.000000E+00
  4.068895E-01  1.027194E-01  3.666667E-01  4.151769E-01  9.493847E-02 -5.664424E-17  4.293697E-02 -1.058306E-03 -4.020038E-04 -9.449986E-01  0.000000E+00
  3.765814E-01  1.031800E-01  3.666667E-01  3.842502E-01  9.540846E-02  5.664424E-17  4.542456E-02 -2.361786E-04 -3.752427E-04 -9.990978E-01  0.000000E+00
  3.468696E-01  1.030390E-01  3.666667E-01  3.539319E-01  9.526458E-02 -5.664424E-17  4.782076E-02  7.237777E-04 -3.510036E-04 -1.048386E+00  0.000000E+00
  3.179133E-01  1.023000E-01  3.666667E-01  3.243846E-01  9.451056E-02  0.000000E+00  5.008353E-02  1.814909E-03 -3.287526E-04 -1.092873E+00  0.000000E+00
  2.898519E-01  1.009802E-01  3.666667E-01  2.957503E-01  9.316382E-02  5.664424E-17  5.223810E-02  3.024103E-03 -3.075632E-04 -1.135814E+00  0.000000E+00
  2.628044E-01  9.911560E-02  3.666667E-01  2.681508E-01  9.126113E-02  5.664424E-17  5.436962E-02  4.351019E-03 -2.863447E-04 -1.181204E+00  0.000000E+00
  9.800000E-01  1.491230E-02  3.666667E-01  9.999857E-01  5.339077E-03  5.664424E-17  1.039823E-02 -1.359002E-02 -6.758987E-04 -6.523487E-02  0.000000E+00
  9.720124E-01  1.722362E-02  3.666667E-01  9.918351E-01  7.697577E-03  0.000000E+00  1.169750E-02 -3.451708E-03 -6.468399E-04  5.913469E-02  0.000000E+00
  9.632634E-01  1.976056E-02  3.666667E-01  9.829076E-01  1.028630E-02  1.132885E-16  8.412196E-03 -2.373069E-03 -5.440188E-04  1.071299E-02  0.000000E+00
  9.536907E-01  2.250989E-02  3.666667E-01  9.731395E-01  1.309175E-02 -5.664424E-17  6.412922E-03 -1.830352E-03 -4.732150E-04 -7.794934E-03  0.000000E+00
  9.432303E-01  2.545373E-02  3.666667E-01  9.624655E-01  1.609568E-02 -1.699327E-16  5.989289E-03 -1.668046E-03 -4.484199E-04 -2.895741E-02  0.000000E+00
  9.318220E-01  2.859309E-02  3.666667E-01  9.508243E-01  1.929912E-02 -5.664424E-17  6.802230E-03 -1.847084E-03 -4.570227E-04 -5.687133E-02  0.000000E+00
  9.194070E-01  3.192808E-02  3.666667E-01  9.381559E-01  2.270218E-02  0.000000E+00  8.346353E-03 -2.209955E-03 -4.826997E-04 -8.730640E-02  0.000000E+00
  9.059278E-01  3.545309E-02  3.666667E-01  9.244016E-01  2.629915E-02 -1.132885E-16  1.018939E-02 -2.622915E-03 -5.138097E-04 -1.201335E-01  0.000000E+00
  8.913299E-01  3.915769E-02  3.666667E-01  9.095057E-01  3.007937E-02  0.000000E+00  1.210855E-02 -3.021826E-03 -5.446099E-04 -1.558034E-01  0.000000E+00
  8.755643E-01  4.303123E-02  3.666667E-01  8.934183E-01  3.403197E-02 -1.132885E-16  1.406565E-02 -3.393436E-03 -5.737396E-04 -1.942816E-01  0.000000E+00
  8.585885E-01  4.705672E-02  3.666667E-01  8.760960E-01  3.813963E-02  3.098440E-14  1.609393E-02 -3.737188E-03 -6.014500E-04 -2.349593E-01  0.000000E+00
  8.403666E-01  5.120471E-02  3.666667E-01  8.575021E-01  4.237229E-02  3.098440E-14  1.818734E-02 -4.041335E-03 -6.270637E-04 -2.770081E-01  0.000000E+00
  8.208730E-01  5.543763E-02  3.666667E-01  8.376107E-01  4.669160E-02 -5.664424E-17  2.029311E-02 -4.287872E-03 -6.492199E-04 -3.198647E-01  0.000000E+00
  8.000947E-01  5.971423E-02  3.666667E-01  8.164083E-01  5.105551E-02 -5.664424E-17  2.236046E-02 -4.461959E-03 -6.671728E-04 -3.630002E-01  0.000000E+00
  7.780326E-01  6.398628E-02  3.666667E-01  7.938958E-01  5.541476E-02 -1.132885E-16  2.434642E-02 -4.551564E-03 -6.805689E-04 -4.056056E-01  0.000000E+00
  7.547032E-01  6.819992E-02  3.666667E-01  7.700902E-01  5.971440E-02  3.075782E-14  2.619928E-02 -4.546860E-03 -6.888778E-04 -4.462922E-01  0.000000E+00
  7.301402E-01  7.229738E-02  3.666667E-01  7.450258E-01  6.389550E-02 -5.664424E-17  2.785313E-02 -4.446702E-03 -6.913271E-04 -4.832592E-01  0.000000E+00
  2.444131E-01 -2.376230E-03  3.666667E-01  2.493840E-01 -1.230235E-02  3.092776E-14  2.851368E-02  1.397346E-03  2.212180E-04  1.666554E-01  0.000000E+00
  2.700250E-01 -1.120838E-03  3.666667E-01  2.755188E-01 -1.102133E-02  5.664424E-17  2.878393E-02  1.401370E-03  2.297824E-04  1.638616E-01  0.000000E+00
  2.967058E-01  1.641651E-04  3.666667E-01  3.027442E-01 -9.710095E-03 -5.664424E-17  2.916505E-02  1.457196E-03  2.392090E-04  1.549974E-01  0.000000E+00
  3.243554E-01  1.589505E-03  3.666667E-01  3.309581E-01 -8.255662E-03  3.070118E-14  2.928168E-02  1.642950E-03  2.491567E-04  1.414362E-01  0.000000E+00
  3.528511E-01  3.314464E-03  3.666667E-01  3.600356E-01 -6.495493E-03 -5.664424E-17  2.872156E-02  1.973399E-03  2.590078E-04  1.296991E-01  0.000000E+00
  3.820469E-01  5.564163E-03  3.666667E-01  3.898272E-01 -4.199873E-03 -1.132885E-16  2.722970E-02  2.387577E-03  2.679864E-04  1.278529E-01  0.000000E+00
  4.117740E-01  8.509250E-03  3.666667E-01  4.201611E-01 -1.194671E-03  1.132885E-16  2.489791E-02  2.755638E-03  2.755620E-04  1.430841E-01  0.000000E+00
  4.418498E-01  1.222185E-02  3.666667E-01  4.508508E-01  2.593711E-03 -1.699327E-16  2.218126E-02  2.937607E-03  2.819303E-04  1.754258E-01  0.000000E+00
  4.721105E-01  1.654288E-02  3.666667E-01  4.817293E-01  7.002939E-03 -1.132885E-16  1.986408E-02  2.748033E-03  2.895443E-04  2.299897E-01  0.000000E+00
  5.024968E-01  2.059867E-02  3.666667E-01  5.127358E-01  1.114152E-02  5.664424E-17  1.840971E-02  2.285861E-03  2.998291E-04  2.875684E-01  0.000000E+00
  5.328693E-01  2.405010E-02  3.666667E-01  5.437282E-01  1.466340E-02 -2.265770E-16  1.761021E-02  1.869491E-03  3.119014E-04  3.171547E-01  0.000000E+00
  5.630297E-01  2.701017E-02  3.666667E-01  5.745043E-01  1.768389E-02  1.132885E-16  1.710377E-02  1.583738E-03  3.253493E-04  3.272801E-01  0.000000E+00
  5.927917E-01  2.959673E-02  3.666667E-01  6.048737E-01  2.032324E-02  0.000000E+00  1.662197E-02  1.386776E-03  3.388774E-04  3.359698E-01  0.000000E+00
  6.219828E-01  3.192289E-02  3.666667E-01  6.346608E-01  2.269689E-02  5.664424E-17  1.603365E-02  1.229827E-03  3.504923E-04  3.482725E-01  0.000000E+00
  6.504533E-01  3.401142E-02  3.666667E-01  6.637123E-01  2.482805E-02 -1.132885E-16  1.536853E-02  1.056038E-03  3.594055E-04  3.645925E-01  0.000000E+00
  6.780742E-01  3.576748E-02  3.666667E-01  6.918971E-01  2.661995E-02  3.092776E-14  1.474965E-02  8.347764E-04  3.661082E-04  3.830607E-01  0.000000E+00
  7.047326E-01  3.707292E-02  3.666667E-01  7.190996E-01  2.795204E-02 -5.664424E-17  1.429741E-02  5.740133E-04  3.715640E-04  3.996948E-01  0.000000E+00
  1.215943E-04  9.337712E-03  3.666667E-01  1.060941E-04 -3.492987E-04 -2.265770E-16 -5.059457E-02  9.155605E-02  2.649311E-04  7.127744E-01  0.000000E+00
  4.902502E-03  3.593003E-03  3.666667E-01  4.984589E-03 -6.211268E-03  5.664424E-17 -2.078352E-02  2.350278E-02  2.181388E-04  9.547553E-01  0.000000E+00
  1.254908E-02 -9.475830E-05  3.666667E-01  1.278725E-02 -9.974304E-03  2.265770E-16  5.803199E-03 -1.179094E-03  1.674118E-04  5.724242E-01  0.000000E+00
  2.163699E-02 -2.509923E-03  3.666667E-01  2.206067E-02 -1.243877E-02  5.664424E-17  2.119538E-02 -4.386111E-03  1.455528E-04  3.628756E-01  0.000000E+00
  3.184423E-02 -4.200444E-03  3.666667E-01  3.247625E-02 -1.416379E-02  0.000000E+00  2.772441E-02 -3.658845E-03  1.448791E-04  3.233896E-01  0.000000E+00
  4.311596E-02 -5.379439E-03  3.666667E-01  4.397806E-02 -1.536686E-02 -1.132885E-16  3.021265E-02 -2.430994E-03  1.497223E-04  2.854123E-01  0.000000E+00
  5.546913E-02 -6.091051E-03  3.666667E-01  5.658338E-02 -1.609299E-02 -5.664424E-17  3.096870E-02 -1.423651E-03  1.556156E-04  2.509655E-01  0.000000E+00
  6.891473E-02 -6.551374E-03  3.666667E-01  7.030343E-02 -1.656271E-02  1.699327E-16  3.122166E-02 -8.679679E-04  1.620551E-04  2.372018E-01  0.000000E+00
  8.348882E-02 -6.867955E-03  3.666667E-01  8.517501E-02 -1.688576E-02  2.832212E-16  3.133614E-02 -5.005699E-04  1.683662E-04  2.235261E-01  0.000000E+00
  9.923792E-02 -7.034493E-03  3.666667E-01  1.012456E-01 -1.705569E-02 -1.132885E-16  3.128719E-02 -1.252264E-04  1.744983E-04  2.032289E-01  0.000000E+00
  1.162051E-01 -6.992758E-03  3.666667E-01  1.185591E-01 -1.701310E-02  5.664424E-17  3.104536E-02  2.580044E-04  1.807697E-04  1.851875E-01  0.000000E+00
  1.344203E-01 -6.735159E-03  3.666667E-01  1.371461E-01 -1.675025E-02  0.000000E+00  3.063739E-02  5.927753E-04  1.872288E-04  1.748093E-01  0.000000E+00
  1.539027E-01 -6.258743E-03  3.666667E-01  1.570262E-01 -1.626411E-02  3.064454E-14  3.008425E-02  8.808729E-04  1.936468E-04  1.687572E-01  0.000000E+00
  1.746592E-01 -5.552348E-03  3.666667E-01  1.782063E-01 -1.554329E-02  3.109769E-14  2.946394E-02  1.109747E-03  2.000572E-04  1.658343E-01  0.000000E+00
  1.966815E-01 -4.644231E-03  3.666667E-01  2.006782E-01 -1.461664E-02 -1.132885E-16  2.891151E-02  1.264429E-03  2.066559E-04  1.660344E-01  0.000000E+00
  2.199461E-01 -3.571584E-03  3.666667E-01  2.244177E-01 -1.352210E-02 -1.699327E-16  2.855914E-02  1.358215E-03  2.136097E-04  1.668960E-01  0.000000E+00
  2.444131E-01 -2.376230E-03  3.666667E-01  2.493840E-01 -1.230235E-02  3.092776E-14  2.851368E-02  1.397346E-03  2.212180E-04  1.666554E-01  0.000000E+00
  7.047326E-01  3.707292E-02  3.666667E-01  7.190996E-01  2.795204E-02 -5.664424E-17  1.429741E-02  5.740133E-04  3.715640E-04  3.996948E-01  0.000000E+00