 Title = "ADflow Slice Data"
Variables =  "CoordinateX"  "CoordinateY"  "CoordinateZ"  "XoC"  "YoC"  "ZoC" "VelocityX" "VelocityY" "VelocityZ" "CoefPressure" "Mach" 
Zone T= "Slice_0001 None Relative Regular z = 0.10000000"
 Nodes =          114  Elements=          106  ZONETYPE=FELINESEG
 DATAPACKING=POINT
  7.301402E-01  7.091536E-02  1.000000E-01  7.450301E-01  6.247961E-02  1.416114E-17  2.644005E-02 -4.401194E-03 -1.993124E-04 -4.653273E-01  0.000000E+00
  7.043967E-01  7.502741E-02  1.000000E-01  7.187609E-01  6.667561E-02 -4.248343E-17  2.799850E-02 -4.298237E-03 -1.715661E-04 -5.021215E-01  0.000000E+00
  6.775455E-01  7.896677E-02  1.000000E-01  6.913615E-01  7.069541E-02  3.965120E-16  2.936186E-02 -4.139859E-03 -1.420654E-04 -5.362781E-01  0.000000E+00
  6.496792E-01  8.271305E-02  1.000000E-01  6.629262E-01  7.451818E-02  4.248343E-17  3.054758E-02 -3.957606E-03 -1.139062E-04 -5.707348E-01  0.000000E+00
  6.209097E-01  8.627185E-02  1.000000E-01  6.335693E-01  7.814965E-02 -2.832228E-17  3.164286E-02 -3.763234E-03 -8.954425E-05 -6.074119E-01  0.000000E+00
  5.913667E-01  8.961663E-02  1.000000E-01  6.034231E-01  8.156271E-02 -2.832228E-17  3.276112E-02 -3.547940E-03 -7.008574E-05 -6.463649E-01  0.000000E+00
  5.611982E-01  9.270930E-02  1.000000E-01  5.726387E-01  8.471853E-02  0.000000E+00  3.398733E-02 -3.307233E-03 -5.563303E-05 -6.883049E-01  0.000000E+00
  5.305654E-01  9.550687E-02  1.000000E-01  5.413804E-01  8.757323E-02 -5.664457E-17  3.538587E-02 -3.037627E-03 -4.578742E-05 -7.349864E-01  0.000000E+00
  4.996398E-01  9.797113E-02  1.000000E-01  5.098233E-01  9.008780E-02  0.000000E+00  3.702140E-02 -2.720890E-03 -3.995501E-05 -7.876561E-01  0.000000E+00
  4.685986E-01  1.000441E-01  1.000000E-01  4.781483E-01  9.220309E-02  1.416114E-17  3.894802E-02 -2.316757E-03 -3.749511E-05 -8.450230E-01  0.000000E+00
  4.376215E-01  1.016498E-01  1.000000E-01  4.465388E-01  9.384159E-02 -8.496685E-17  4.115714E-02 -1.783161E-03 -3.772209E-05 -9.038223E-01  0.000000E+00
  4.068895E-01  1.027141E-01  1.000000E-01  4.151793E-01  9.492763E-02  0.000000E+00  4.355674E-02 -1.090961E-03 -3.986357E-05 -9.602339E-01  0.000000E+00
  3.765814E-01  1.031796E-01  1.000000E-01  3.842524E-01  9.540258E-02 -5.664457E-17  4.599006E-02 -2.482264E-04 -4.308182E-05 -1.012686E+00  0.000000E+00
  3.468696E-01  1.030405E-01  1.000000E-01  3.539340E-01  9.526067E-02 -5.664457E-17  4.834034E-02  7.287641E-04 -4.662251E-05 -1.060608E+00  0.000000E+00
  3.179133E-01  1.022994E-01  1.000000E-01  3.243864E-01  9.450440E-02 -2.832228E-17  5.058548E-02  1.843152E-03 -4.990885E-05 -1.103471E+00  0.000000E+00
  2.898519E-01  1.009678E-01  1.000000E-01  2.957520E-01  9.314564E-02 -4.248343E-17  5.274240E-02  3.084875E-03 -5.247860E-05 -1.143943E+00  0.000000E+00
  2.628044E-01  9.907988E-02  1.000000E-01  2.681523E-01  9.121918E-02  0.000000E+00  5.486655E-02  4.448145E-03 -5.397402E-05 -1.185701E+00  0.000000E+00
  9.800000E-01  1.372967E-02  1.000000E-01  9.999915E-01  4.126306E-03 -2.832228E-17  1.052247E-02 -1.343379E-02 -3.365736E-04 -6.080285E-02  0.000000E+00
  9.720124E-01  1.596886E-02  1.000000E-01  9.918408E-01  6.411225E-03 -2.832228E-17  1.191106E-02 -3.401077E-03 -2.764157E-04  6.354543E-02  0.000000E+00
  9.632634E-01  1.843171E-02  1.000000E-01  9.829132E-01  8.924356E-03 -2.832228E-17  8.677497E-03 -2.373046E-03 -2.334811E-04  1.597689E-02  0.000000E+00
  9.536907E-01  2.110621E-02  1.000000E-01  9.731451E-01  1.165346E-02 -2.832228E-17  6.659020E-03 -1.845821E-03 -2.045743E-04 -1.990906E-03  0.000000E+00
  9.432303E-01  2.397598E-02  1.000000E-01  9.624710E-01  1.458183E-02  1.416114E-17  6.169924E-03 -1.673055E-03 -1.952707E-04 -2.223661E-02  0.000000E+00
  9.318220E-01  2.704365E-02  1.000000E-01  9.508298E-01  1.771213E-02  1.416114E-17  6.874832E-03 -1.822687E-03 -2.003191E-04 -4.884507E-02  0.000000E+00
  9.194070E-01  3.031126E-02  1.000000E-01  9.381613E-01  2.104646E-02 -8.496685E-17  8.274615E-03 -2.145732E-03 -2.122791E-04 -7.766634E-02  0.000000E+00
  9.059278E-01  3.377556E-02  1.000000E-01  9.244069E-01  2.458149E-02 -5.664457E-17  9.947613E-03 -2.516403E-03 -2.257494E-04 -1.085850E-01  0.000000E+00
  8.913299E-01  3.742884E-02  1.000000E-01  9.095109E-01  2.830937E-02  0.000000E+00  1.167379E-02 -2.874013E-03 -2.378615E-04 -1.421329E-01  0.000000E+00
  8.755643E-01  4.126358E-02  1.000000E-01  8.934235E-01  3.222240E-02 -2.832228E-17  1.341088E-02 -3.205835E-03 -2.475504E-04 -1.783961E-01  0.000000E+00
  8.585885E-01  4.526628E-02  1.000000E-01  8.761010E-01  3.630683E-02  4.106731E-16  1.520481E-02 -3.515819E-03 -2.545732E-04 -2.169135E-01  0.000000E+00
  8.403666E-01  4.941133E-02  1.000000E-01  8.575071E-01  4.053651E-02  3.965120E-16  1.708377E-02 -3.801378E-03 -2.584089E-04 -2.570390E-01  0.000000E+00
  8.208730E-01  5.366517E-02  1.000000E-01  8.376155E-01  4.487721E-02 -8.496685E-17  1.901794E-02 -4.049731E-03 -2.579752E-04 -2.984101E-01  0.000000E+00
  8.000947E-01  5.799051E-02  1.000000E-01  8.164130E-01  4.929086E-02 -2.832228E-17  2.095970E-02 -4.245608E-03 -2.522386E-04 -3.407183E-01  0.000000E+00
  7.780326E-01  6.234257E-02  1.000000E-01  7.939004E-01  5.373178E-02 -2.832228E-17  2.287103E-02 -4.375806E-03 -2.405715E-04 -3.834063E-01  0.000000E+00
  7.547032E-01  6.666995E-02  1.000000E-01  7.700946E-01  5.814752E-02  4.389954E-16  2.471407E-02 -4.429273E-03 -2.227844E-04 -4.254085E-01  0.000000E+00
  7.301402E-01  7.091536E-02  1.000000E-01  7.450301E-01  6.247961E-02  2.832228E-17  2.644005E-02 -4.401194E-03 -1.993124E-04 -4.653273E-01  0.000000E+00
  2.444131E-01 -2.344154E-03  1.000000E-01  2.493855E-01 -1.227571E-02  3.681897E-16  2.802437E-02  1.355520E-03  5.021878E-05  1.607444E-01  0.000000E+00
  2.700250E-01 -1.102387E-03  1.000000E-01  2.755204E-01 -1.100858E-02 -4.248343E-17  2.827525E-02  1.363203E-03  4.954449E-05  1.589172E-01  0.000000E+00
  2.967058E-01  1.728947E-04  1.000000E-01  3.027459E-01 -9.707265E-03 -2.832228E-17  2.862669E-02  1.420766E-03  4.862623E-05  1.511137E-01  0.000000E+00
  3.243554E-01  1.591962E-03  1.000000E-01  3.309600E-01 -8.259223E-03  4.248343E-16  2.870921E-02  1.604056E-03  4.743690E-05  1.387312E-01  0.000000E+00
  3.528511E-01  3.312865E-03  1.000000E-01  3.600376E-01 -6.503183E-03 -4.248343E-17  2.811712E-02  1.926097E-03  4.599509E-05  1.282834E-01  0.000000E+00
  3.820469E-01  5.558656E-03  1.000000E-01  3.898294E-01 -4.211538E-03  5.664457E-17  2.659839E-02  2.324847E-03  4.438005E-05  1.277759E-01  0.000000E+00
  4.117740E-01  8.496362E-03  1.000000E-01  4.201635E-01 -1.213850E-03 -5.664457E-17  2.424779E-02  2.671660E-03  4.278895E-05  1.442677E-01  0.000000E+00
  4.418498E-01  1.219299E-02  1.000000E-01  4.508534E-01  2.558252E-03 -2.832228E-17  2.152658E-02  2.831610E-03  4.155149E-05  1.776205E-01  0.000000E+00
  4.721105E-01  1.648352E-02  1.000000E-01  4.817320E-01  6.936393E-03 -5.664457E-17  1.921848E-02  2.630127E-03  4.119876E-05  2.326943E-01  0.000000E+00
  5.024968E-01  2.048806E-02  1.000000E-01  5.127387E-01  1.102269E-02  1.416114E-17  1.778966E-02  2.167731E-03  4.227481E-05  2.902806E-01  0.000000E+00
  5.328693E-01  2.386199E-02  1.000000E-01  5.437313E-01  1.446551E-02 -4.248343E-17  1.704557E-02  1.752853E-03  4.520147E-05  3.196059E-01  0.000000E+00
  5.630297E-01  2.671481E-02  1.000000E-01  5.745076E-01  1.737658E-02  1.416114E-17  1.663393E-02  1.466341E-03  5.029697E-05  3.291655E-01  0.000000E+00
  5.927917E-01  2.916324E-02  1.000000E-01  6.048772E-01  1.987500E-02  5.664457E-17  1.628827E-02  1.267738E-03  5.761927E-05  3.367899E-01  0.000000E+00
  6.219828E-01  3.132168E-02  1.000000E-01  6.346644E-01  2.207751E-02 -4.248343E-17  1.586992E-02  1.110175E-03  6.696496E-05  3.474979E-01  0.000000E+00
  6.504533E-01  3.321629E-02  1.000000E-01  6.637161E-01  2.401081E-02  5.664457E-17  1.538858E-02  9.395835E-04  7.801636E-05  3.617105E-01  0.000000E+00
  6.780742E-01  3.476684E-02  1.000000E-01  6.919010E-01  2.559301E-02  4.531565E-16  1.493965E-02  7.271824E-04  9.034428E-05  3.776294E-01  0.000000E+00
  7.047326E-01  3.587825E-02  1.000000E-01  7.191037E-01  2.672712E-02  0.000000E+00  1.462319E-02  4.780256E-04  1.033144E-04  3.918214E-01  0.000000E+00
  1.215943E-04  9.348179E-03  1.000000E-01  1.060947E-04 -3.446414E-04 -5.664457E-17 -4.346192E-02  7.752813E-02  7.520581E-05  7.641208E-01  0.000000E+00
  4.902502E-03  3.681435E-03  1.000000E-01  4.984618E-03 -6.127088E-03 -8.496685E-17 -1.540163E-02  1.828466E-02  6.159852E-05  9.331861E-01  0.000000E+00
  1.254908E-02  4.302897E-05  1.000000E-01  1.278732E-02 -9.839782E-03 -2.832228E-17  8.609572E-03 -2.358242E-03  4.779180E-05  5.336601E-01  0.000000E+00
  2.163699E-02 -2.342185E-03  1.000000E-01  2.206079E-02 -1.227370E-02  1.416114E-17  2.190510E-02 -4.516330E-03  4.208203E-05  3.334289E-01  0.000000E+00
  3.184423E-02 -4.014859E-03  1.000000E-01  3.247644E-02 -1.398052E-02 -2.832228E-17  2.746610E-02 -3.597045E-03  4.202222E-05  3.004970E-01  0.000000E+00
  4.311596E-02 -5.185053E-03  1.000000E-01  4.397831E-02 -1.517461E-02 -8.496685E-17  2.960959E-02 -2.371468E-03  4.325303E-05  2.656972E-01  0.000000E+00
  5.546913E-02 -5.895782E-03  1.000000E-01  5.658371E-02 -1.589985E-02  1.416114E-17  3.027113E-02 -1.395595E-03  4.463476E-05  2.333860E-01  0.000000E+00
  6.891473E-02 -6.360520E-03  1.000000E-01  7.030384E-02 -1.637408E-02 -8.496685E-17  3.051985E-02 -8.619315E-04  4.605502E-05  2.216263E-01  0.000000E+00
  8.348882E-02 -6.685590E-03  1.000000E-01  8.517550E-02 -1.670578E-02  5.664457E-17  3.066155E-02 -5.102506E-04  4.731022E-05  2.097229E-01  0.000000E+00
  9.923792E-02 -6.864469E-03  1.000000E-01  1.012462E-01 -1.688832E-02 -9.912799E-17  3.064943E-02 -1.488271E-04  4.836566E-05  1.908375E-01  0.000000E+00
  1.162051E-01 -6.838836E-03  1.000000E-01  1.185597E-01 -1.686216E-02 -8.496685E-17  3.044541E-02  2.228878E-04  4.928666E-05  1.739360E-01  0.000000E+00
  1.344203E-01 -6.600380E-03  1.000000E-01  1.371469E-01 -1.661884E-02 -8.496685E-17  3.007299E-02  5.499289E-04  5.006206E-05  1.645476E-01  0.000000E+00
  1.539027E-01 -6.145197E-03  1.000000E-01  1.570271E-01 -1.615436E-02  4.389954E-16  2.955212E-02  8.335428E-04  5.060269E-05  1.594059E-01  0.000000E+00
  1.746592E-01 -5.461017E-03  1.000000E-01  1.782074E-01 -1.545621E-02  3.257063E-16  2.895828E-02  1.060873E-03  5.088204E-05  1.573387E-01  0.000000E+00
  1.966815E-01 -4.574738E-03  1.000000E-01  2.006793E-01 -1.455183E-02 -2.832228E-17  2.842306E-02  1.216551E-03  5.090999E-05  1.583721E-01  0.000000E+00
  2.199461E-01 -3.522225E-03  1.000000E-01  2.244190E-01 -1.347783E-02 -4.248343E-17  2.807648E-02  1.312899E-03  5.068214E-05  1.600857E-01  0.000000E+00
  2.444131E-01 -2.344154E-03  1.000000E-01  2.493855E-01 -1.227571E-02  3.823508E-16  2.802437E-02  1.355520E-03  5.021878E-05  1.607444E-01  0.000000E+00
  7.047326E-01  3.587825E-02  1.000000E-01  7.191037E-01  2.672712E-02 -2.832228E-17  1.462319E-02  4.780256E-04  1.033144E-04  3.918214E-01  0.000000E+00
  7.303325E-01  3.649567E-02  1.000000E-01  7.452263E-01  2.735714E-02 -2.832228E-17  1.451571E-02  2.038810E-04  1.162777E-04  4.020950E-01  0.000000E+00
  7.547951E-01  3.660454E-02  1.000000E-01  7.701884E-01  2.746823E-02  4.389954E-16  1.468138E-02 -9.975537E-05  1.288454E-04  4.084031E-01  0.000000E+00
  7.780600E-01  3.619766E-02  1.000000E-01  7.939283E-01  2.705305E-02  1.416114E-17  1.517068E-02 -4.487316E-04  1.409152E-04  4.105930E-01  0.000000E+00
  8.000833E-01  3.529442E-02  1.000000E-01  8.164013E-01  2.613136E-02 -4.248343E-17  1.599645E-02 -8.583404E-04  1.524952E-04  4.080214E-01  0.000000E+00
  8.208376E-01  3.393347E-02  1.000000E-01  8.375793E-01  2.474263E-02 -2.832228E-17  1.709582E-02 -1.313717E-03  1.635431E-04  3.996634E-01  0.000000E+00
  8.403144E-01  3.222783E-02  1.000000E-01  8.574539E-01  2.300216E-02  4.389954E-16  1.831362E-02 -1.750376E-03  1.738989E-04  3.846803E-01  0.000000E+00
  8.585258E-01  3.034474E-02  1.000000E-01  8.760370E-01  2.108062E-02  3.965120E-16  1.945819E-02 -2.100658E-03  1.831756E-04  3.654773E-01  0.000000E+00
  8.754993E-01  2.843167E-02  1.000000E-01  8.933571E-01  1.912850E-02 -2.832228E-17  2.038794E-02 -2.344466E-03  1.907333E-04  3.461695E-01  0.000000E+00
  8.912718E-01  2.657501E-02  1.000000E-01  9.094517E-01  1.723392E-02 -2.832228E-17  2.108741E-02 -2.537892E-03  1.958748E-04  3.303985E-01  0.000000E+00
  9.058836E-01  2.477009E-02  1.000000E-01  9.243618E-01  1.539215E-02 -4.248343E-17  2.168085E-02 -2.767054E-03  1.984050E-04  3.188148E-01  0.000000E+00
  9.193796E-01  2.298267E-02  1.000000E-01  9.381334E-01  1.356823E-02 -5.664457E-17  2.236273E-02 -3.062541E-03  1.993068E-04  3.068160E-01  0.000000E+00
  9.318118E-01  2.121448E-02  1.000000E-01  9.508194E-01  1.176394E-02  4.248343E-17  2.333921E-02 -3.444009E-03  2.006392E-04  2.917468E-01  0.000000E+00
  9.432349E-01  1.946089E-02  1.000000E-01  9.624757E-01  9.974554E-03 -2.832228E-17  2.464370E-02 -3.927995E-03  2.037430E-04  2.740706E-01  0.000000E+00
  9.537058E-01  1.772216E-02  1.000000E-01  9.731604E-01  8.200316E-03  0.000000E+00  2.560082E-02 -4.401014E-03  2.051611E-04  2.479633E-01  0.000000E+00
  9.632829E-01  1.600293E-02  1.000000E-01  9.829331E-01  6.445985E-03 -2.832228E-17  2.454761E-02 -4.577547E-03  1.945760E-04  2.115440E-01  0.000000E+00
  9.720275E-01  1.433621E-02  1.000000E-01  9.918563E-01  4.745239E-03  0.000000E+00  2.070594E-02 -3.962085E-03  1.695562E-04  2.076766E-01  0.000000E+00
  9.800000E-01  1.274427E-02  1.000000E-01  9.999915E-01  3.120795E-03  1.416114E-17  1.377134E-02  4.530851E-03  1.477090E-04 -1.046017E-02  0.000000E+00
  1.215943E-04  1.002885E-02  1.000000E-01  1.060947E-04  3.499277E-04 -9.912799E-17  2.285046E-02  5.323576E-02  3.009861E-05  4.774711E-01  0.000000E+00
  7.278129E-05  9.914184E-03  1.000000E-01  5.628499E-05  2.329205E-04  1.416114E-17  1.557722E-02  7.599876E-02  4.663920E-05  3.216321E-01  0.000000E+00
  1.762252E-05  9.685924E-03  1.000000E-01  0.000000E+00  0.000000E+00  0.000000E+00 -1.148290E-02  1.196038E-01  7.023811E-05  3.634726E-01  0.000000E+00
  8.694958E-05  9.460766E-03  1.000000E-01  7.074256E-05 -2.297548E-04  0.000000E+00 -4.909476E-02  1.276050E-01  8.086482E-05  4.120594E-01  0.000000E+00
  1.215943E-04  9.348179E-03  1.000000E-01  1.060947E-04 -3.446414E-04 -4.248343E-17 -4.346192E-02  7.752813E-02  7.520581E-05  7.641208E-01  0.000000E+00
  9.800000E-01  1.274427E-02  1.000000E-01  9.999915E-01  3.120795E-03  0.000000E+00  1.377134E-02  4.530851E-03  1.477090E-04 -1.046017E-02  0.000000E+00
  9.800000E-01  1.290851E-02  1.000000E-01  9.999915E-01  3.288380E-03  0.000000E+00  4.519943E-03 -1.247334E-03 -6.404506E-06 -2.158389E-01  0.000000E+00
  9.800000E-01  1.323697E-02  1.000000E-01  9.999915E-01  3.623550E-03 -2.832228E-17 -4.302041E-04 -1.619972E-02 -2.172559E-04 -1.804912E-01  0.000000E+00
  9.800000E-01  1.356543E-02  1.000000E-01  9.999915E-01  3.958721E-03 -5.664457E-17  3.400057E-03 -2.012343E-02 -3.271259E-04 -1.981460E-01  0.000000E+00
  9.800000E-01  1.372967E-02  1.000000E-01  9.999915E-01  4.126306E-03  0.000000E+00  1.052247E-02 -1.343379E-02 -3.365736E-04 -6.080285E-02  0.000000E+00
  2.628044E-01  9.907988E-02  1.000000E-01  2.681523E-01  9.121918E-02 -2.832228E-17  5.486655E-02  4.448145E-03 -5.397402E-05 -1.185701E+00  0.000000E+00
  2.368706E-01  9.667766E-02  1.000000E-01  2.416890E-01  8.876791E-02  3.681897E-16  5.708411E-02  6.018767E-03 -5.425799E-05 -1.225488E+00  0.000000E+00
  2.121362E-01  9.374776E-02  1.000000E-01  2.164496E-01  8.577819E-02  1.416114E-17  5.939894E-02  7.870675E-03 -5.331527E-05 -1.256373E+00  0.000000E+00
  1.886687E-01  9.030326E-02  1.000000E-01  1.925029E-01  8.226336E-02 -4.248343E-17  6.162092E-02  9.980593E-03 -5.118577E-05 -1.273383E+00  0.000000E+00
  1.665185E-01  8.637288E-02  1.000000E-01  1.699004E-01  7.825273E-02  4.814788E-16  6.351890E-02  1.228131E-02 -4.803066E-05 -1.273924E+00  0.000000E+00
  1.457161E-01  8.201098E-02  1.000000E-01  1.486734E-01  7.380178E-02  4.531565E-16  6.493895E-02  1.469893E-02 -4.409041E-05 -1.259400E+00  0.000000E+00
  1.262764E-01  7.727539E-02  1.000000E-01  1.288367E-01  6.896950E-02  0.000000E+00  6.586175E-02  1.719646E-02 -3.959939E-05 -1.234865E+00  0.000000E+00
  1.081990E-01  7.222442E-02  1.000000E-01  1.103902E-01  6.381540E-02  0.000000E+00  6.632123E-02  1.974941E-02 -3.467249E-05 -1.207383E+00  0.000000E+00
  9.146971E-02  6.691942E-02  1.000000E-01  9.331934E-02  5.840208E-02  0.000000E+00  6.642368E-02  2.251064E-02 -2.944810E-05 -1.172261E+00  0.000000E+00
  7.608258E-02  6.135527E-02  1.000000E-01  7.761804E-02  5.272432E-02  0.000000E+00  6.612652E-02  2.565004E-02 -2.414087E-05 -1.111294E+00  0.000000E+00
  6.202881E-02  5.552075E-02  1.000000E-01  6.327732E-02  4.677067E-02 -5.664457E-17  6.509533E-02  2.902907E-02 -1.896646E-05 -1.007293E+00  0.000000E+00
  4.929579E-02  4.943231E-02  1.000000E-01  5.028432E-02  4.055793E-02 -8.496685E-17  6.297521E-02  3.210129E-02 -1.403889E-05 -8.650418E-01  0.000000E+00
  3.782553E-02  4.320036E-02  1.000000E-01  3.857987E-02  3.419872E-02  4.248343E-17  5.989695E-02  3.464647E-02 -9.356370E-06 -7.110205E-01  0.000000E+00
  2.757469E-02  3.687844E-02  1.000000E-01  2.811972E-02  2.774773E-02 -2.832228E-17  5.635274E-02  3.689598E-02 -4.525594E-06 -5.929421E-01  0.000000E+00
  1.848362E-02  3.054310E-02  1.000000E-01  1.884304E-02  2.128303E-02  5.664457E-17  5.300857E-02  4.028601E-02  1.359600E-06 -4.955890E-01  0.000000E+00
  1.064273E-02  2.406831E-02  1.000000E-01  1.084205E-02  1.467604E-02  1.416114E-17  4.923177E-02  4.644526E-02  9.537486E-06 -2.561542E-01  0.000000E+00
  4.262692E-03  1.730403E-02  1.000000E-01  4.331745E-03  7.773651E-03  1.416114E-17  3.992675E-02  5.367903E-02  2.005908E-05  2.578383E-01  0.000000E+00
  1.215943E-04  1.002885E-02  1.000000E-01  1.060947E-04  3.499277E-04 -8.496685E-17  2.285046E-02  5.323576E-02  3.009861E-05  4.774711E-01  0.000000E+00
    1    2
    2    3
    3    4
    4    5
    5    6
    6    7
    7    8
    8    9
    9   10
   10   11
   11   12
   12   13
   13   14
   14   15
   15   16
   16   17
   18   19
   19   20
   20   21
   21   22
   22   23
   23   24
   24   25
   25   26
   26   27
   27   28
   28   29
   29   30
   30   31
   31   32
   32   33
   33   34
   35   36
   36   37
   37   38
   38   39
   39   40
   40   41
   41   42
   42   43
   43   44
   44   45
   45   46
   46   47
   47   48
   48   49
   49   50
   50   51
   52   53
   53   54
   54   55
   55   56
   56   57
   57   58
   58   59
   59   60
   60   61
   61   62
   62   63
   63   64
   64   65
   65   66
   66   67
   67   68
   69   70
   70   71
   71   72
   72   73
   73   74
   74   75
   75   76
   76   77
   77   78
   78   79
   79   80
   80   81
   81   82
   82   83
   83   84
   84   85
   85   86
   87   88
   88   89
   89   90
   90   91
   92   93
   93   94
   94   95
   95   96
   97   98
   98   99
   99  100
  100  101
  101  102
  102  103
  103  104
  104  105
  105  106
  106  107
  107  108
  108  109
  109  110
  110  111
  111  112
  112  113
  113  114
Zone T= "Slice_0002 None Relative Regular z = 0.36666667"
 Nodes =          114  Elements=          106  ZONETYPE=FELINESEG
 DATAPACKING=POINT
  7.301402E-01  6.890419E-02  3.666667E-01  7.450337E-01  6.043969E-02 -5.664484E-17  2.590829E-02 -4.429955E-03 -6.722603E-04 -4.474211E-01  0.000000E+00
  7.043967E-01  7.316915E-02  3.666667E-01  7.187644E-01  6.479175E-02 -1.132897E-16  2.743238E-02 -4.367968E-03 -6.207572E-04 -4.864237E-01  0.000000E+00
  6.775455E-01  7.729884E-02  3.666667E-01  6.913648E-01  6.900577E-02  3.058821E-14  2.881315E-02 -4.250891E-03 -5.609880E-04 -5.239059E-01  0.000000E+00
  6.496792E-01  8.126005E-02  3.666667E-01  6.629294E-01  7.304788E-02 -1.699345E-16  3.006998E-02 -4.099787E-03 -4.971674E-04 -5.618178E-01  0.000000E+00
  6.209097E-01  8.503581E-02  3.666667E-01  6.335724E-01  7.690076E-02  0.000000E+00  3.127317E-02 -3.922366E-03 -4.334297E-04 -6.012998E-01  0.000000E+00
  5.913667E-01  8.858519E-02  3.666667E-01  6.034260E-01  8.052262E-02  1.132897E-16  3.251023E-02 -3.714582E-03 -3.729121E-04 -6.424618E-01  0.000000E+00
  5.611982E-01  9.186541E-02  3.666667E-01  5.726415E-01  8.386984E-02  2.265794E-16  3.385258E-02 -3.475204E-03 -3.177481E-04 -6.861514E-01  0.000000E+00
  5.305654E-01  9.482971E-02  3.666667E-01  5.413830E-01  8.689467E-02  1.132897E-16  3.536384E-02 -3.201324E-03 -2.695266E-04 -7.341411E-01  0.000000E+00
  4.996398E-01  9.743736E-02  3.666667E-01  5.098258E-01  8.955558E-02 -1.699345E-16  3.711150E-02 -2.875614E-03 -2.295792E-04 -7.877242E-01  0.000000E+00
  4.685986E-01  9.962957E-02  3.666667E-01  4.781506E-01  9.179256E-02  1.132897E-16  3.915028E-02 -2.458457E-03 -1.990445E-04 -8.456424E-01  0.000000E+00
  4.376215E-01  1.013313E-01  3.666667E-01  4.465410E-01  9.352906E-02 -5.664484E-17  4.146686E-02 -1.907823E-03 -1.785865E-04 -9.046613E-01  0.000000E+00
  4.068895E-01  1.024708E-01  3.666667E-01  4.151813E-01  9.469184E-02 -5.664484E-17  4.396106E-02 -1.194652E-03 -1.680194E-04 -9.609981E-01  0.000000E+00
  3.765814E-01  1.029939E-01  3.666667E-01  3.842542E-01  9.522557E-02  5.664484E-17  4.646899E-02 -3.280217E-04 -1.659495E-04 -1.013124E+00  0.000000E+00
  3.468696E-01  1.028983E-01  3.666667E-01  3.539357E-01  9.512808E-02 -5.664484E-17  4.887115E-02  6.742301E-04 -1.698700E-04 -1.060509E+00  0.000000E+00
  3.179133E-01  1.021897E-01  3.666667E-01  3.243880E-01  9.440492E-02  0.000000E+00  5.114719E-02  1.813804E-03 -1.766352E-04 -1.102658E+00  0.000000E+00
  2.898519E-01  1.008819E-01  3.666667E-01  2.957535E-01  9.307046E-02  5.664484E-17  5.331758E-02  3.079218E-03 -1.830404E-04 -1.142290E+00  0.000000E+00
  2.628044E-01  9.901132E-02  3.666667E-01  2.681536E-01  9.116168E-02  5.664484E-17  5.544193E-02  4.463735E-03 -1.865450E-04 -1.183145E+00  0.000000E+00
  9.800000E-01  1.233521E-02  3.666667E-01  9.999963E-01  2.715404E-03  5.664484E-17  1.050649E-02 -1.319858E-02 -8.668209E-04 -5.814671E-02  0.000000E+00
  9.720124E-01  1.450067E-02  3.666667E-01  9.918456E-01  4.925095E-03  0.000000E+00  1.197897E-02 -3.317906E-03 -7.938214E-04  6.781477E-02  0.000000E+00
  9.632634E-01  1.688613E-02  3.666667E-01  9.829179E-01  7.359272E-03  1.132897E-16  8.911835E-03 -2.365699E-03 -6.736273E-04  2.093161E-02  0.000000E+00
  9.536907E-01  1.948014E-02  3.666667E-01  9.731497E-01  1.000625E-02 -5.664484E-17  6.994188E-03 -1.883551E-03 -5.912362E-04  3.388978E-03  0.000000E+00
  9.432303E-01  2.226710E-02  3.666667E-01  9.624756E-01  1.285013E-02 -1.699345E-16  6.546253E-03 -1.726969E-03 -5.634585E-04 -1.620658E-02  0.000000E+00
  9.318220E-01  2.525074E-02  3.666667E-01  9.508344E-01  1.589470E-02 -5.664484E-17  7.251175E-03 -1.873497E-03 -5.752666E-04 -4.190660E-02  0.000000E+00
  9.194070E-01  2.843458E-02  3.666667E-01  9.381658E-01  1.914357E-02  0.000000E+00  8.619883E-03 -2.182372E-03 -6.065234E-04 -6.963152E-02  0.000000E+00
  9.059278E-01  3.181725E-02  3.666667E-01  9.244113E-01  2.259533E-02 -1.132897E-16  1.023921E-02 -2.534289E-03 -6.428430E-04 -9.928537E-02  0.000000E+00
  8.913299E-01  3.539346E-02  3.666667E-01  9.095153E-01  2.624458E-02  0.000000E+00  1.189953E-02 -2.873595E-03 -6.767801E-04 -1.314200E-01  0.000000E+00
  8.755643E-01  3.915863E-02  3.666667E-01  8.934278E-01  3.008664E-02 -1.132897E-16  1.356518E-02 -3.190266E-03 -7.057970E-04 -1.661568E-01  0.000000E+00
  8.585885E-01  4.310285E-02  3.666667E-01  8.761052E-01  3.411141E-02  3.098473E-14  1.527938E-02 -3.488278E-03 -7.295652E-04 -2.030970E-01  0.000000E+00
  8.403666E-01  4.720475E-02  3.666667E-01  8.575112E-01  3.829708E-02  3.098473E-14  1.706337E-02 -3.764557E-03 -7.470442E-04 -2.416755E-01  0.000000E+00
  8.208730E-01  5.143566E-02  3.666667E-01  8.376195E-01  4.261439E-02 -5.664484E-17  1.888819E-02 -4.007951E-03 -7.558622E-04 -2.816309E-01  0.000000E+00
  8.000947E-01  5.576367E-02  3.666667E-01  8.164169E-01  4.703079E-02 -5.664484E-17  2.071452E-02 -4.206143E-03 -7.538301E-04 -3.227753E-01  0.000000E+00
  7.780326E-01  6.014967E-02  3.666667E-01  7.939042E-01  5.150637E-02 -1.132897E-16  2.251332E-02 -4.348268E-03 -7.395689E-04 -3.647082E-01  0.000000E+00
  7.547032E-01  6.454760E-02  3.666667E-01  7.700983E-01  5.599411E-02  3.075815E-14  2.425663E-02 -4.424574E-03 -7.123504E-04 -4.066050E-01  0.000000E+00
  7.301402E-01  6.890419E-02  3.666667E-01  7.450337E-01  6.043969E-02 -5.664484E-17  2.590829E-02 -4.429955E-03 -6.722603E-04 -4.474211E-01  0.000000E+00
  2.444131E-01 -2.405641E-03  3.666667E-01  2.493867E-01 -1.232649E-02  3.092808E-14  2.818397E-02  1.349417E-03  1.703493E-04  1.597076E-01  0.000000E+00
  2.700250E-01 -1.178243E-03  3.666667E-01  2.755217E-01 -1.107403E-02  5.664484E-17  2.843387E-02  1.352709E-03  1.692072E-04  1.581928E-01  0.000000E+00
  2.967058E-01  7.746850E-05  3.666667E-01  3.027474E-01 -9.792671E-03 -5.664484E-17  2.878813E-02  1.404699E-03  1.674490E-04  1.507126E-01  0.000000E+00
  3.243554E-01  1.469924E-03  3.666667E-01  3.309616E-01 -8.371777E-03  3.070150E-14  2.887525E-02  1.581681E-03  1.653321E-04  1.386444E-01  0.000000E+00
  3.528511E-01  3.154990E-03  3.666667E-01  3.600394E-01 -6.652298E-03 -5.664484E-17  2.828813E-02  1.897555E-03  1.633711E-04  1.284682E-01  0.000000E+00
  3.820469E-01  5.353406E-03  3.666667E-01  3.898313E-01 -4.408984E-03 -1.132897E-16  2.677593E-02  2.291656E-03  1.622408E-04  1.281566E-01  0.000000E+00
  4.117740E-01  8.229594E-03  3.666667E-01  4.201656E-01 -1.474056E-03  1.132897E-16  2.443522E-02  2.636421E-03  1.626826E-04  1.447389E-01  0.000000E+00
  4.418498E-01  1.184784E-02  3.666667E-01  4.508556E-01  2.218084E-03 -1.699345E-16  2.172786E-02  2.796599E-03  1.654496E-04  1.780527E-01  0.000000E+00
  4.721105E-01  1.604070E-02  3.666667E-01  4.817343E-01  6.496577E-03 -1.132897E-16  1.944018E-02  2.593217E-03  1.719823E-04  2.329859E-01  0.000000E+00
  5.024968E-01  1.992599E-02  3.666667E-01  5.127412E-01  1.046121E-02  5.664484E-17  1.804166E-02  2.123925E-03  1.835056E-04  2.903593E-01  0.000000E+00
  5.328693E-01  2.315815E-02  3.666667E-01  5.437339E-01  1.375938E-02 -2.265794E-16  1.733780E-02  1.699767E-03  2.004903E-04  3.193294E-01  0.000000E+00
  5.630297E-01  2.584752E-02  3.666667E-01  5.745104E-01  1.650368E-02  1.132897E-16  1.697448E-02  1.404070E-03  2.231498E-04  3.283029E-01  0.000000E+00
  5.927917E-01  2.811313E-02  3.666667E-01  6.048801E-01  1.881556E-02  0.000000E+00  1.668194E-02  1.197689E-03  2.505016E-04  3.350835E-01  0.000000E+00
  6.219828E-01  3.007275E-02  3.666667E-01  6.346675E-01  2.081520E-02  5.664484E-17  1.631658E-02  1.034242E-03  2.805822E-04  3.447336E-01  0.000000E+00
  6.504533E-01  3.175671E-02  3.666667E-01  6.637193E-01  2.253355E-02 -1.132897E-16  1.588065E-02  8.605223E-04  3.116740E-04  3.576227E-01  0.000000E+00
  6.780742E-01  3.309872E-02  3.666667E-01  6.919044E-01  2.390297E-02  3.092808E-14  1.546067E-02  6.498656E-04  3.426007E-04  3.718710E-01  0.000000E+00
  7.047326E-01  3.402523E-02  3.666667E-01  7.191072E-01  2.484840E-02 -5.664484E-17  1.515306E-02  4.068615E-04  3.725087E-04  3.843776E-01  0.000000E+00
  1.215943E-04  9.336392E-03  3.666667E-01  1.060952E-04 -3.446545E-04 -2.265794E-16 -4.212278E-02  7.516929E-02  2.400576E-04  7.709530E-01  0.000000E+00
  4.902502E-03  3.669132E-03  3.666667E-01  4.984642E-03 -6.127655E-03  5.664484E-17 -1.442169E-02  1.738836E-02  1.943489E-04  9.297401E-01  0.000000E+00
  1.254908E-02  2.990263E-05  3.666667E-01  1.278738E-02 -9.841208E-03  2.265794E-16  9.169283E-03 -2.587301E-03  1.499534E-04  5.271874E-01  0.000000E+00
  2.163699E-02 -2.356291E-03  3.666667E-01  2.206090E-02 -1.227613E-02  5.664484E-17  2.220553E-02 -4.585797E-03  1.323205E-04  3.277223E-01  0.000000E+00
  3.184423E-02 -4.030072E-03  3.666667E-01  3.247659E-02 -1.398410E-02  0.000000E+00  2.769465E-02 -3.631077E-03  1.328608E-04  2.958128E-01  0.000000E+00
  4.311596E-02 -5.201502E-03  3.666667E-01  4.397852E-02 -1.517945E-02 -1.132897E-16  2.983241E-02 -2.393157E-03  1.374686E-04  2.615889E-01  0.000000E+00
  5.546913E-02 -5.913618E-03  3.666667E-01  5.658398E-02 -1.590611E-02 -5.664484E-17  3.049631E-02 -1.409943E-03  1.425099E-04  2.296043E-01  0.000000E+00
  6.891473E-02 -6.379918E-03  3.666667E-01  7.030418E-02 -1.638193E-02  1.699345E-16  3.074656E-02 -8.724345E-04  1.477140E-04  2.181705E-01  0.000000E+00
  8.348882E-02 -6.706771E-03  3.666667E-01  8.517591E-02 -1.671546E-02  2.832242E-16  3.088926E-02 -5.183220E-04  1.524795E-04  2.065878E-01  0.000000E+00
  9.923792E-02 -6.887717E-03  3.666667E-01  1.012466E-01 -1.690010E-02 -1.132897E-16  3.087603E-02 -1.544884E-04  1.567127E-04  1.879717E-01  0.000000E+00
  1.162051E-01 -6.864531E-03  3.666667E-01  1.185603E-01 -1.687644E-02  5.664484E-17  3.066719E-02  2.195530E-04  1.606285E-04  1.713039E-01  0.000000E+00
  1.344203E-01 -6.629034E-03  3.666667E-01  1.371475E-01 -1.663614E-02  0.000000E+00  3.028597E-02  5.483175E-04  1.641821E-04  1.621510E-01  0.000000E+00
  1.539027E-01 -6.177512E-03  3.666667E-01  1.570279E-01 -1.617539E-02  3.064486E-14  2.975299E-02  8.329578E-04  1.670605E-04  1.572598E-01  0.000000E+00
  1.746592E-01 -5.497970E-03  3.666667E-01  1.782082E-01 -1.548197E-02  3.109802E-14  2.914557E-02  1.060454E-03  1.691420E-04  1.554533E-01  0.000000E+00
  1.966815E-01 -4.617694E-03  3.666667E-01  2.006803E-01 -1.458372E-02 -1.132897E-16  2.859779E-02  1.215295E-03  1.704104E-04  1.567562E-01  0.000000E+00
  2.199461E-01 -3.573101E-03  3.666667E-01  2.244200E-01 -1.351779E-02 -1.699345E-16  2.824162E-02  1.309805E-03  1.707977E-04  1.587520E-01  0.000000E+00
  2.444131E-01 -2.405641E-03  3.666667E-01  2.493867E-01 -1.232649E-02  3.092808E-14  2.818397E-02  1.349417E-03  1.703493E-04  1.597076E-01  0.000000E+00
  7.047326E-01  3.402523E-02  3.666667E-01  7.191072E-01  2.484840E-02 -5.664484E-17  1.515306E-02  4.068615E-04  3.725087E-04  3.843776E-01  0.000000E+00