 Title= "ADflow Lift Distribution Data"
Variables = "eta" "CoordinateX" "CoordinateY" "CoordinateZ" "Lift" "Drag" "Moment" "Normalized Lift" "Normalized Drag" "Normalized Moment" "CL" "CD" "CM" "CLp" "CDp" "CMp" "CLv" "CDv" "CMv" "Elliptical" "thickness" "twist" "chord" "fx" "fy" "fz" 
Zone T= "LiftDist_01 allWalls: : z normal"
 I=          150
 DATAPACKING=BLOCK
  0.000000E+00
  6.711405E-03
  1.342281E-02
  2.013422E-02
  2.684563E-02
  3.355704E-02
  4.026845E-02
  4.697986E-02
  5.369127E-02
  6.040268E-02
  6.711409E-02
  7.382550E-02
  8.053691E-02
  8.724832E-02
  9.395973E-02
  1.006711E-01
  1.073825E-01
  1.140940E-01
  1.208054E-01
  1.275168E-01
  1.342282E-01
  1.409396E-01
  1.476510E-01
  1.543624E-01
  1.610738E-01
  1.677852E-01
  1.744966E-01
  1.812081E-01
  1.879195E-01
  1.946309E-01
  2.013423E-01
  2.080537E-01
  2.147651E-01
  2.214765E-01
  2.281879E-01
  2.348993E-01
  2.416107E-01
  2.483221E-01
  2.550336E-01
  2.617450E-01
  2.684564E-01
  2.751678E-01
  2.818792E-01
  2.885906E-01
  2.953020E-01
  3.020134E-01
  3.087248E-01
  3.154362E-01
  3.221476E-01
  3.288591E-01
  3.355705E-01
  3.422819E-01
  3.489933E-01
  3.557047E-01
  3.624161E-01
  3.691275E-01
  3.758389E-01
  3.825503E-01
  3.892617E-01
  3.959732E-01
  4.026846E-01
  4.093960E-01
  4.161074E-01
  4.228188E-01
  4.295302E-01
  4.362416E-01
  4.429530E-01
  4.496644E-01
  4.563758E-01
  4.630872E-01
  4.697987E-01
  4.765101E-01
  4.832215E-01
  4.899329E-01
  4.966443E-01
  5.033557E-01
  5.100671E-01
  5.167785E-01
  5.234899E-01
  5.302013E-01
  5.369128E-01
  5.436242E-01
  5.503356E-01
  5.570470E-01
  5.637584E-01
  5.704698E-01
  5.771812E-01
  5.838926E-01
  5.906040E-01
  5.973154E-01
  6.040268E-01
  6.107383E-01
  6.174497E-01
  6.241611E-01
  6.308725E-01
  6.375839E-01
  6.442953E-01
  6.510067E-01
  6.577181E-01
  6.644295E-01
  6.711409E-01
  6.778524E-01
  6.845638E-01
  6.912752E-01
  6.979866E-01
  7.046980E-01
  7.114094E-01
  7.181208E-01
  7.248322E-01
  7.315436E-01
  7.382550E-01
  7.449664E-01
  7.516779E-01
  7.583893E-01
  7.651007E-01
  7.718121E-01
  7.785235E-01
  7.852349E-01
  7.919463E-01
  7.986577E-01
  8.053691E-01
  8.120805E-01
  8.187919E-01
  8.255034E-01
  8.322148E-01
  8.389262E-01
  8.456376E-01
  8.523490E-01
  8.590604E-01
  8.657718E-01
  8.724832E-01
  8.791946E-01
  8.859060E-01
  8.926175E-01
  8.993289E-01
  9.060403E-01
  9.127517E-01
  9.194631E-01
  9.261745E-01
  9.328859E-01
  9.395973E-01
  9.463087E-01
  9.530201E-01
  9.597315E-01
  9.664430E-01
  9.731544E-01
  9.798658E-01
  9.865772E-01
  9.932886E-01
  1.000000E+00
  0.000000E+00
  0.000000E+00
  0.000000E+00
  0.000000E+00
  0.000000E+00
  0.000000E+00
  0.000000E+00
  0.000000E+00
  0.000000E+00
  0.000000E+00
  0.000000E+00
  0.000000E+00
  0.000000E+00
  0.000000E+00
  0.000000E+00
  0.000000E+00
  0.000000E+00
  0.000000E+00
  0.000000E+00
  0.000000E+00
  0.000000E+00
  0.000000E+00
  0.000000E+00
  0.000000E+00
  0.000000E+00
  0.000000E+00
  0.000000E+00
  0.000000E+00
  0.000000E+00
  0.000000E+00
  0.000000E+00
  0.000000E+00
  0.000000E+00
  0.000000E+00
  0.000000E+00
  0.000000E+00
  0.000000E+00
  0.000000E+00
  0.000000E+00
  0.000000E+00
  0.000000E+00
  0.000000E+00
  0.000000E+00
  0.000000E+00
  0.000000E+00
  0.000000E+00
  0.000000E+00
  0.000000E+00
  0.000000E+00
  0.000000E+00
  0.000000E+00
  0.000000E+00
  0.000000E+00
  0.000000E+00
  0.000000E+00
  0.000000E+00
  0.000000E+00
  0.000000E+00
  0.000000E+00
  0.000000E+00
  0.000000E+00
  0.000000E+00
  0.000000E+00
  0.000000E+00
  0.000000E+00
  0.000000E+00
  0.000000E+00
  0.000000E+00
  0.000000E+00
  0.000000E+00
  0.000000E+00
  0.000000E+00
  0.000000E+00
  0.000000E+00
  0.000000E+00
  0.000000E+00
  0.000000E+00
  0.000000E+00
  0.000000E+00
  0.000000E+00
  0.000000E+00
  0.000000E+00
  0.000000E+00
  0.000000E+00
  0.000000E+00
  0.000000E+00
  0.000000E+00
  0.000000E+00
  0.000000E+00
  0.000000E+00
  0.000000E+00
  0.000000E+00
  0.000000E+00
  0.000000E+00
  0.000000E+00
  0.000000E+00
  0.000000E+00
  0.000000E+00
  0.000000E+00
  0.000000E+00
  0.000000E+00
  0.000000E+00
  0.000000E+00
  0.000000E+00
  0.000000E+00
  0.000000E+00
  0.000000E+00
  0.000000E+00
  0.000000E+00
  0.000000E+00
  0.000000E+00
  0.000000E+00
  0.000000E+00
  0.000000E+00
  0.000000E+00
  0.000000E+00
  0.000000E+00
  0.000000E+00
  0.000000E+00
  0.000000E+00
  0.000000E+00
  0.000000E+00
  0.000000E+00
  0.000000E+00
  0.000000E+00
  0.000000E+00
  0.000000E+00
  0.000000E+00
  0.000000E+00
  0.000000E+00
  0.000000E+00
  0.000000E+00
  0.000000E+00
  0.000000E+00
  0.000000E+00
  0.000000E+00
  0.000000E+00
  0.000000E+00
  0.000000E+00
  0.000000E+00
  0.000000E+00
  0.000000E+00
  0.000000E+00
  0.000000E+00
  0.000000E+00
  0.000000E+00
  0.000000E+00
  0.000000E+00
  0.000000E+00
  0.000000E+00
  0.000000E+00
  0.000000E+00
  0.000000E+00
  0.000000E+00
  0.000000E+00
  0.000000E+00
  0.000000E+00
  0.000000E+00
  0.000000E+00
  0.000000E+00
  0.000000E+00
  0.000000E+00
  0.000000E+00
  0.000000E+00
  0.000000E+00
  0.000000E+00
  0.000000E+00
  0.000000E+00
  0.000000E+00
  0.000000E+00
  0.000000E+00
  0.000000E+00
  0.000000E+00
  0.000000E+00
  0.000000E+00
  0.000000E+00
  0.000000E+00
  0.000000E+00
  0.000000E+00
  0.000000E+00
  0.000000E+00
  0.000000E+00
  0.000000E+00
  0.000000E+00
  0.000000E+00
  0.000000E+00
  0.000000E+00
  0.000000E+00
  0.000000E+00
  0.000000E+00
  0.000000E+00
  0.000000E+00
  0.000000E+00
  0.000000E+00
  0.000000E+00
  0.000000E+00
  0.000000E+00
  0.000000E+00
  0.000000E+00
  0.000000E+00
  0.000000E+00
  0.000000E+00
  0.000000E+00
  0.000000E+00
  0.000000E+00
  0.000000E+00
  0.000000E+00
  0.000000E+00
  0.000000E+00
  0.000000E+00
  0.000000E+00
  0.000000E+00
  0.000000E+00
  0.000000E+00
  0.000000E+00
  0.000000E+00
  0.000000E+00
  0.000000E+00
  0.000000E+00
  0.000000E+00
  0.000000E+00
  0.000000E+00
  0.000000E+00
  0.000000E+00
  0.000000E+00
  0.000000E+00
  0.000000E+00
  0.000000E+00
  0.000000E+00
  0.000000E+00
  0.000000E+00
  0.000000E+00
  0.000000E+00
  0.000000E+00
  0.000000E+00
  0.000000E+00
  0.000000E+00
  0.000000E+00
  0.000000E+00
  0.000000E+00
  0.000000E+00
  0.000000E+00
  0.000000E+00
  0.000000E+00
  0.000000E+00
  0.000000E+00
  0.000000E+00
  0.000000E+00
  0.000000E+00
  0.000000E+00
  0.000000E+00
  0.000000E+00
  0.000000E+00
  0.000000E+00
  0.000000E+00
  0.000000E+00
  0.000000E+00
  0.000000E+00
  0.000000E+00
  0.000000E+00
  0.000000E+00
  0.000000E+00
  0.000000E+00
  0.000000E+00
  0.000000E+00
  0.000000E+00
  0.000000E+00
  0.000000E+00
  0.000000E+00
  0.000000E+00
  0.000000E+00
  0.000000E+00
  0.000000E+00
  0.000000E+00
  0.000000E+00
  0.000000E+00
  0.000000E+00
  0.000000E+00
  0.000000E+00
  0.000000E+00
  0.000000E+00
  0.000000E+00
  0.000000E+00
  0.000000E+00
  0.000000E+00
  0.000000E+00
  0.000000E+00
  0.000000E+00
  0.000000E+00
  0.000000E+00
  0.000000E+00
  0.000000E+00
  0.000000E+00
  0.000000E+00
  0.000000E+00
  0.000000E+00
  0.000000E+00
  0.000000E+00
  0.000000E+00
  0.000000E+00
  1.000000E-08
  1.695085E-02
  3.390169E-02
  5.085254E-02
  6.780338E-02
  8.475423E-02
  1.017051E-01
  1.186559E-01
  1.356068E-01
  1.525576E-01
  1.695085E-01
  1.864593E-01
  2.034101E-01
  2.203610E-01
  2.373118E-01
  2.542627E-01
  2.712135E-01
  2.881644E-01
  3.051152E-01
  3.220661E-01
  3.390169E-01
  3.559678E-01
  3.729186E-01
  3.898694E-01
  4.068203E-01
  4.237711E-01
  4.407220E-01
  4.576728E-01
  4.746237E-01
  4.915745E-01
  5.085254E-01
  5.254762E-01
  5.424271E-01
  5.593779E-01
  5.763287E-01
  5.932796E-01
  6.102304E-01
  6.271813E-01
  6.441321E-01
  6.610830E-01
  6.780338E-01
  6.949847E-01
  7.119355E-01
  7.288864E-01
  7.458372E-01
  7.627880E-01
  7.797389E-01
  7.966897E-01
  8.136406E-01
  8.305914E-01
  8.475423E-01
  8.644931E-01
  8.814440E-01
  8.983948E-01
  9.153457E-01
  9.322965E-01
  9.492473E-01
  9.661982E-01
  9.831490E-01
  1.000100E+00
  1.017051E+00
  1.034002E+00
  1.050952E+00
  1.067903E+00
  1.084854E+00
  1.101805E+00
  1.118756E+00
  1.135707E+00
  1.152657E+00
  1.169608E+00
  1.186559E+00
  1.203510E+00
  1.220461E+00
  1.237412E+00
  1.254363E+00
  1.271313E+00
  1.288264E+00
  1.305215E+00
  1.322166E+00
  1.339117E+00
  1.356068E+00
  1.373018E+00
  1.389969E+00
  1.406920E+00
  1.423871E+00
  1.440822E+00
  1.457773E+00
  1.474724E+00
  1.491674E+00
  1.508625E+00
  1.525576E+00
  1.542527E+00
  1.559478E+00
  1.576429E+00
  1.593379E+00
  1.610330E+00
  1.627281E+00
  1.644232E+00
  1.661183E+00
  1.678134E+00
  1.695085E+00
  1.712035E+00
  1.728986E+00
  1.745937E+00
  1.762888E+00
  1.779839E+00
  1.796790E+00
  1.813740E+00
  1.830691E+00
  1.847642E+00
  1.864593E+00
  1.881544E+00
  1.898495E+00
  1.915446E+00
  1.932396E+00
  1.949347E+00
  1.966298E+00
  1.983249E+00
  2.000200E+00
  2.017151E+00
  2.034101E+00
  2.051052E+00
  2.068003E+00
  2.084954E+00
  2.101905E+00
  2.118856E+00
  2.135807E+00
  2.152757E+00
  2.169708E+00
  2.186659E+00
  2.203610E+00
  2.220561E+00
  2.237512E+00
  2.254462E+00
  2.271413E+00
  2.288364E+00
  2.305315E+00
  2.322266E+00
  2.339217E+00
  2.356168E+00
  2.373118E+00
  2.390069E+00
  2.407020E+00
  2.423971E+00
  2.440922E+00
  2.457873E+00
  2.474823E+00
  2.491774E+00
  2.508725E+00
  2.525676E+00
  1.072344E+04
  1.072375E+04
  1.072410E+04
  1.072447E+04
  1.072487E+04
  1.072529E+04
  1.072575E+04
  1.072623E+04
  1.072674E+04
  1.073103E+04
  1.073544E+04
  1.073988E+04
  1.074434E+04
  1.074882E+04
  1.075332E+04
  1.075786E+04
  1.076293E+04
  1.076898E+04
  1.077504E+04
  1.078113E+04
  1.078723E+04
  1.079336E+04
  1.079950E+04
  1.080512E+04
  1.080641E+04
  1.080772E+04
  1.080905E+04
  1.081039E+04
  1.081174E+04
  1.081312E+04
  1.081311E+04
  1.080846E+04
  1.080382E+04
  1.079919E+04
  1.079458E+04
  1.078998E+04
  1.078539E+04
  1.077678E+04
  1.076641E+04
  1.075605E+04
  1.074569E+04
  1.073535E+04
  1.072501E+04
  1.071175E+04
  1.069542E+04
  1.067910E+04
  1.066278E+04
  1.064646E+04
  1.063014E+04
  1.061018E+04
  1.058765E+04
  1.056513E+04
  1.054261E+04
  1.052010E+04
  1.049759E+04
  1.046895E+04
  1.044023E+04
  1.041151E+04
  1.038279E+04
  1.035408E+04
  1.032136E+04
  1.028660E+04
  1.025185E+04
  1.021710E+04
  1.018235E+04
  1.014409E+04
  1.010353E+04
  1.006297E+04
  1.002242E+04
  9.981880E+03
  9.936855E+03
  9.890712E+03
  9.844579E+03
  9.798455E+03
  9.751125E+03
  9.699861E+03
  9.648609E+03
  9.597367E+03
  9.546136E+03
  9.490973E+03
  9.435381E+03
  9.379804E+03
  9.324240E+03
  9.266009E+03
  9.207038E+03
  9.148083E+03
  9.089144E+03
  9.028132E+03
  8.966816E+03
  8.905518E+03
  8.844023E+03
  8.781327E+03
  8.718650E+03
  8.655990E+03
  8.592830E+03
  8.529368E+03
  8.465925E+03
  8.402301E+03
  8.338136E+03
  8.273993E+03
  8.209803E+03
  8.144788E+03
  8.079797E+03
  8.014769E+03
  7.948509E+03
  7.882274E+03
  7.815713E+03
  7.747479E+03
  7.679266E+03
  7.609875E+03
  7.538963E+03
  7.468068E+03
  7.394496E+03
  7.320431E+03
  7.245074E+03
  7.167560E+03
  7.089937E+03
  7.008873E+03
  6.927815E+03
  6.843867E+03
  6.759234E+03
  6.672044E+03
  6.583722E+03
  6.492780E+03
  6.400628E+03
  6.305545E+03
  6.209613E+03
  6.110225E+03
  6.009888E+03
  5.906981E+03
  5.802141E+03
  5.695874E+03
  5.586678E+03
  5.475727E+03
  5.362944E+03
  5.247629E+03
  5.129907E+03
  5.010462E+03
  4.890012E+03
  4.770664E+03
  4.657844E+03
  4.563184E+03
  4.505457E+03
  4.520386E+03
  4.644629E+03
  4.634478E+03
  4.168455E+03
  4.591480E+03
  1.454292E+03
 -6.219211E-05
  6.308793E+02
  6.301844E+02
  6.294966E+02
  6.288156E+02
  6.281415E+02
  6.274742E+02
  6.268137E+02
  6.261599E+02
  6.255127E+02
  6.248288E+02
  6.241510E+02
  6.234802E+02
  6.228163E+02
  6.221594E+02
  6.215092E+02
  6.208657E+02
  6.205495E+02
  6.208268E+02
  6.211086E+02
  6.213948E+02
  6.216854E+02
  6.219803E+02
  6.222794E+02
  6.226069E+02
  6.231306E+02
  6.236574E+02
  6.241873E+02
  6.247201E+02
  6.252559E+02
  6.257946E+02
  6.263401E+02
  6.269010E+02
  6.274637E+02
  6.280281E+02
  6.285944E+02
  6.291624E+02
  6.297321E+02
  6.301348E+02
  6.304645E+02
  6.307948E+02
  6.311257E+02
  6.314572E+02
  6.317893E+02
  6.318832E+02
  6.317251E+02
  6.315669E+02
  6.314085E+02
  6.312500E+02
  6.310913E+02
  6.305894E+02
  6.298471E+02
  6.291046E+02
  6.283619E+02
  6.276191E+02
  6.268760E+02
  6.255540E+02
  6.242232E+02
  6.228929E+02
  6.215630E+02
  6.202335E+02
  6.184809E+02
  6.165125E+02
  6.145455E+02
  6.125800E+02
  6.106160E+02
  6.082752E+02
  6.056888E+02
  6.031054E+02
  6.005248E+02
  5.979472E+02
  5.949675E+02
  5.918905E+02
  5.888179E+02
  5.857498E+02
  5.826003E+02
  5.791771E+02
  5.757598E+02
  5.723482E+02
  5.689425E+02
  5.653555E+02
  5.617543E+02
  5.581598E+02
  5.545719E+02
  5.509372E+02
  5.472941E+02
  5.436577E+02
  5.400281E+02
  5.363909E+02
  5.327576E+02
  5.291305E+02
  5.255056E+02
  5.218643E+02
  5.182281E+02
  5.145970E+02
  5.109278E+02
  5.072361E+02
  5.035486E+02
  4.998319E+02
  4.960256E+02
  4.922228E+02
  4.884209E+02
  4.845923E+02
  4.807665E+02
  4.769533E+02
  4.733381E+02
  4.697249E+02
  4.661770E+02
  4.629387E+02
  4.597013E+02
  4.566646E+02
  4.538846E+02
  4.511044E+02
  4.487528E+02
  4.464807E+02
  4.444038E+02
  4.426511E+02
  4.409136E+02
  4.396602E+02
  4.384052E+02
  4.375503E+02
  4.367900E+02
  4.363176E+02
  4.359735E+02
  4.358230E+02
  4.357648E+02
  4.358923E+02
  4.360804E+02
  4.365384E+02
  4.371058E+02
  4.379603E+02
  4.391222E+02
  4.405309E+02
  4.425705E+02
  4.451230E+02
  4.482575E+02
  4.523352E+02
  4.576559E+02
  4.643854E+02
  4.730858E+02
  4.847475E+02
  5.012386E+02
  5.259821E+02
  5.644377E+02
  6.259799E+02
  7.198933E+02
  8.044010E+02
  8.169032E+02
  9.689169E+02
  2.800585E+02
  3.976874E-04
  1.310013E+03
  1.315370E+03
  1.320736E+03
  1.326109E+03
  1.331491E+03
  1.336882E+03
  1.342281E+03
  1.347688E+03
  1.353103E+03
  1.364907E+03
  1.376875E+03
  1.388748E+03
  1.400730E+03
  1.412720E+03
  1.424716E+03
  1.436720E+03
  1.448677E+03
  1.460539E+03
  1.472407E+03
  1.484281E+03
  1.496159E+03
  1.508044E+03
  1.519933E+03
  1.531661E+03
  1.542046E+03
  1.552436E+03
  1.562831E+03
  1.573230E+03
  1.583634E+03
  1.594043E+03
  1.603999E+03
  1.612439E+03
  1.620881E+03
  1.629328E+03
  1.637777E+03
  1.646231E+03
  1.654687E+03
  1.661313E+03
  1.667138E+03
  1.672965E+03
  1.678794E+03
  1.684624E+03
  1.690457E+03
  1.694717E+03
  1.697315E+03
  1.699914E+03
  1.702514E+03
  1.705115E+03
  1.707716E+03
  1.708438E+03
  1.707843E+03
  1.707249E+03
  1.706656E+03
  1.706063E+03
  1.705471E+03
  1.702192E+03
  1.698871E+03
  1.695552E+03
  1.692234E+03
  1.688917E+03
  1.683892E+03
  1.677993E+03
  1.672096E+03
  1.666201E+03
  1.660309E+03
  1.652798E+03
  1.644226E+03
  1.635659E+03
  1.627095E+03
  1.618534E+03
  1.607885E+03
  1.596715E+03
  1.585551E+03
  1.574391E+03
  1.562692E+03
  1.549228E+03
  1.535771E+03
  1.522320E+03
  1.508876E+03
  1.493876E+03
  1.478710E+03
  1.463552E+03
  1.448402E+03
  1.432534E+03
  1.416470E+03
  1.400416E+03
  1.384371E+03
  1.368254E+03
  1.352134E+03
  1.336023E+03
  1.320019E+03
  1.304575E+03
  1.289141E+03
  1.273715E+03
  1.259014E+03
  1.244764E+03
  1.230523E+03
  1.216629E+03
  1.203694E+03
  1.190768E+03
  1.177933E+03
  1.166102E+03
  1.154281E+03
  1.142496E+03
  1.131261E+03
  1.120035E+03
  1.108798E+03
  1.097472E+03
  1.086154E+03
  1.074543E+03
  1.062552E+03
  1.050567E+03
  1.037712E+03
  1.024698E+03
  1.011215E+03
  9.969532E+02
  9.826475E+02
  9.670127E+02
  9.513788E+02
  9.347408E+02
  9.178635E+02
  9.004267E+02
  8.827426E+02
  8.648330E+02
  8.468207E+02
  8.288722E+02
  8.109451E+02
  7.934797E+02
  7.762468E+02
  7.596834E+02
  7.438791E+02
  7.286546E+02
  7.149381E+02
  7.023080E+02
  6.908649E+02
  6.812551E+02
  6.738833E+02
  6.689342E+02
  6.674311E+02
  6.713177E+02
  6.845877E+02
  7.150576E+02
  7.752443E+02
  8.835680E+02
  1.053057E+03
  1.185816E+03
  1.117613E+03
  1.231850E+03
  2.359342E+02
 -3.460264E-11
  1.211878E+00
  1.211914E+00
  1.211953E+00
  1.211995E+00
  1.212040E+00
  1.212088E+00
  1.212140E+00
  1.212194E+00
  1.212252E+00
  1.212737E+00
  1.213235E+00
  1.213736E+00
  1.214240E+00
  1.214747E+00
  1.215256E+00
  1.215768E+00
  1.216342E+00
  1.217025E+00
  1.217711E+00
  1.218398E+00
  1.219088E+00
  1.219780E+00
  1.220474E+00
  1.221110E+00
  1.221256E+00
  1.221404E+00
  1.221553E+00
  1.221705E+00
  1.221858E+00
  1.222013E+00
  1.222012E+00
  1.221487E+00
  1.220962E+00
  1.220440E+00
  1.219918E+00
  1.219398E+00
  1.218879E+00
  1.217906E+00
  1.216735E+00
  1.215564E+00
  1.214394E+00
  1.213224E+00
  1.212056E+00
  1.210558E+00
  1.208713E+00
  1.206868E+00
  1.205023E+00
  1.203179E+00
  1.201335E+00
  1.199079E+00
  1.196533E+00
  1.193988E+00
  1.191443E+00
  1.188899E+00
  1.186354E+00
  1.183119E+00
  1.179872E+00
  1.176627E+00
  1.173381E+00
  1.170136E+00
  1.166439E+00
  1.162511E+00
  1.158583E+00
  1.154656E+00
  1.150729E+00
  1.146405E+00
  1.141821E+00
  1.137238E+00
  1.132655E+00
  1.128073E+00
  1.122985E+00
  1.117770E+00
  1.112557E+00
  1.107344E+00
  1.101995E+00
  1.096202E+00
  1.090410E+00
  1.084619E+00
  1.078829E+00
  1.072595E+00
  1.066313E+00
  1.060032E+00
  1.053752E+00
  1.047171E+00
  1.040507E+00
  1.033844E+00
  1.027184E+00
  1.020288E+00
  1.013359E+00
  1.006432E+00
  9.994818E-01
  9.923964E-01
  9.853131E-01
  9.782319E-01
  9.710940E-01
  9.639220E-01
  9.567522E-01
  9.495619E-01
  9.423104E-01
  9.350615E-01
  9.278073E-01
  9.204597E-01
  9.131151E-01
  9.057661E-01
  8.982779E-01
  8.907925E-01
  8.832703E-01
  8.755591E-01
  8.678502E-01
  8.600081E-01
  8.519942E-01
  8.439823E-01
  8.356677E-01
  8.272975E-01
  8.187812E-01
  8.100212E-01
  8.012489E-01
  7.920876E-01
  7.829271E-01
  7.734400E-01
  7.638754E-01
  7.540218E-01
  7.440404E-01
  7.337629E-01
  7.233486E-01
  7.126030E-01
  7.017615E-01
  6.905295E-01
  6.791903E-01
  6.675605E-01
  6.557123E-01
  6.437028E-01
  6.313624E-01
  6.188235E-01
  6.060777E-01
  5.930457E-01
  5.797417E-01
  5.662429E-01
  5.526306E-01
  5.391429E-01
  5.263928E-01
  5.156951E-01
  5.091713E-01
  5.108584E-01
  5.248994E-01
  5.237522E-01
  4.710860E-01
  5.188929E-01
  1.643526E-01
 -7.028462E-09
  1.124464E+00
  1.123226E+00
  1.122000E+00
  1.120786E+00
  1.119584E+00
  1.118395E+00
  1.117218E+00
  1.116052E+00
  1.114899E+00
  1.113680E+00
  1.112472E+00
  1.111276E+00
  1.110093E+00
  1.108922E+00
  1.107763E+00
  1.106616E+00
  1.106053E+00
  1.106547E+00
  1.107049E+00
  1.107559E+00
  1.108077E+00
  1.108603E+00
  1.109136E+00
  1.109720E+00
  1.110653E+00
  1.111592E+00
  1.112537E+00
  1.113486E+00
  1.114441E+00
  1.115401E+00
  1.116374E+00
  1.117373E+00
  1.118376E+00
  1.119382E+00
  1.120392E+00
  1.121404E+00
  1.122420E+00
  1.123137E+00
  1.123725E+00
  1.124314E+00
  1.124904E+00
  1.125494E+00
  1.126086E+00
  1.126254E+00
  1.125972E+00
  1.125690E+00
  1.125408E+00
  1.125125E+00
  1.124842E+00
  1.123948E+00
  1.122625E+00
  1.121301E+00
  1.119977E+00
  1.118653E+00
  1.117329E+00
  1.114973E+00
  1.112601E+00
  1.110230E+00
  1.107859E+00
  1.105490E+00
  1.102366E+00
  1.098857E+00
  1.095351E+00
  1.091848E+00
  1.088348E+00
  1.084175E+00
  1.079565E+00
  1.074961E+00
  1.070361E+00
  1.065767E+00
  1.060456E+00
  1.054971E+00
  1.049495E+00
  1.044026E+00
  1.038413E+00
  1.032312E+00
  1.026221E+00
  1.020140E+00
  1.014070E+00
  1.007676E+00
  1.001258E+00
  9.948508E-01
  9.884558E-01
  9.819773E-01
  9.754840E-01
  9.690026E-01
  9.625333E-01
  9.560504E-01
  9.495746E-01
  9.431097E-01
  9.366488E-01
  9.301585E-01
  9.236774E-01
  9.172055E-01
  9.106655E-01
  9.040856E-01
  8.975131E-01
  8.908885E-01
  8.841042E-01
  8.773262E-01
  8.705499E-01
  8.637258E-01
  8.569068E-01
  8.501103E-01
  8.436666E-01
  8.372265E-01
  8.309029E-01
  8.251310E-01
  8.193606E-01
  8.139482E-01
  8.089931E-01
  8.040377E-01
  7.998462E-01
  7.957967E-01
  7.920948E-01
  7.889708E-01
  7.858740E-01
  7.836398E-01
  7.814031E-01
  7.798792E-01
  7.785242E-01
  7.776821E-01
  7.770689E-01
  7.768005E-01
  7.766968E-01
  7.769240E-01
  7.772593E-01
  7.780757E-01
  7.790870E-01
  7.806100E-01
  7.826809E-01
  7.851918E-01
  7.888271E-01
  7.933767E-01
  7.989635E-01
  8.062315E-01
  8.157149E-01
  8.277094E-01
  8.432169E-01
  8.640024E-01
  8.933957E-01
  9.374980E-01
  1.006040E+00
  1.115732E+00
  1.283121E+00
  1.433745E+00
  1.456029E+00
  1.726974E+00
  4.991696E-01
  7.088286E-07
  9.957363E-01
  9.998082E-01
  1.003886E+00
  1.007971E+00
  1.012062E+00
  1.016159E+00
  1.020263E+00
  1.024373E+00
  1.028489E+00
  1.037461E+00
  1.046558E+00
  1.055582E+00
  1.064690E+00
  1.073803E+00
  1.082922E+00
  1.092046E+00
  1.101134E+00
  1.110151E+00
  1.119172E+00
  1.128196E+00
  1.137225E+00
  1.146259E+00
  1.155296E+00
  1.164210E+00
  1.172104E+00
  1.180001E+00
  1.187902E+00
  1.195807E+00
  1.203715E+00
  1.211626E+00
  1.219194E+00
  1.225609E+00
  1.232026E+00
  1.238446E+00
  1.244869E+00
  1.251294E+00
  1.257722E+00
  1.262758E+00
  1.267185E+00
  1.271614E+00
  1.276045E+00
  1.280477E+00
  1.284911E+00
  1.288148E+00
  1.290123E+00
  1.292098E+00
  1.294075E+00
  1.296051E+00
  1.298029E+00
  1.298578E+00
  1.298125E+00
  1.297674E+00
  1.297223E+00
  1.296772E+00
  1.296323E+00
  1.293830E+00
  1.291306E+00
  1.288783E+00
  1.286261E+00
  1.283740E+00
  1.279920E+00
  1.275436E+00
  1.270954E+00
  1.266473E+00
  1.261995E+00
  1.256285E+00
  1.249770E+00
  1.243258E+00
  1.236749E+00
  1.230242E+00
  1.222147E+00
  1.213657E+00
  1.205171E+00
  1.196689E+00
  1.187797E+00
  1.177563E+00
  1.167334E+00
  1.157110E+00
  1.146891E+00
  1.135490E+00
  1.123962E+00
  1.112440E+00
  1.100925E+00
  1.088864E+00
  1.076654E+00
  1.064451E+00
  1.052255E+00
  1.040005E+00
  1.027752E+00
  1.015506E+00
  1.003342E+00
  9.916029E-01
  9.798711E-01
  9.681461E-01
  9.569718E-01
  9.461405E-01
  9.353159E-01
  9.247552E-01
  9.149235E-01
  9.050987E-01
  8.953426E-01
  8.863499E-01
  8.773646E-01
  8.684069E-01
  8.598672E-01
  8.513343E-01
  8.427930E-01
  8.341845E-01
  8.255816E-01
  8.167559E-01
  8.076420E-01
  7.985320E-01
  7.887615E-01
  7.788690E-01
  7.686210E-01
  7.577805E-01
  7.469068E-01
  7.350229E-01
  7.231396E-01
  7.104931E-01
  6.976647E-01
  6.844111E-01
  6.709694E-01
  6.573564E-01
  6.436654E-01
  6.300228E-01
  6.163964E-01
  6.031210E-01
  5.900224E-01
  5.774326E-01
  5.654198E-01
  5.538477E-01
  5.434219E-01
  5.338218E-01
  5.251240E-01
  5.178196E-01
  5.122162E-01
  5.084545E-01
  5.073119E-01
  5.102662E-01
  5.203526E-01
  5.435127E-01
  5.892604E-01
  6.715968E-01
  8.004245E-01
  9.013343E-01
  8.494935E-01
  9.363248E-01
  1.793328E-01
 -2.630134E-14
  9.588408E-01
  9.588693E-01
  9.589004E-01
  9.589339E-01
  9.589699E-01
  9.590083E-01
  9.590492E-01
  9.590926E-01
  9.591384E-01
  9.595223E-01
  9.599167E-01
  9.603132E-01
  9.607117E-01
  9.611124E-01
  9.615153E-01
  9.619203E-01
  9.623738E-01
  9.629142E-01
  9.634564E-01
  9.640002E-01
  9.645457E-01
  9.650930E-01
  9.656419E-01
  9.661442E-01
  9.662594E-01
  9.663760E-01
  9.664940E-01
  9.666135E-01
  9.667343E-01
  9.668566E-01
  9.668552E-01
  9.664390E-01
  9.660239E-01
  9.656098E-01
  9.651968E-01
  9.647848E-01
  9.643738E-01
  9.636034E-01
  9.626759E-01
  9.617490E-01
  9.608228E-01
  9.598972E-01
  9.589722E-01
  9.577868E-01
  9.563263E-01
  9.548661E-01
  9.534063E-01
  9.519468E-01
  9.504877E-01
  9.487021E-01
  9.466878E-01
  9.446739E-01
  9.426602E-01
  9.406467E-01
  9.386336E-01
  9.360733E-01
  9.335048E-01
  9.309366E-01
  9.283688E-01
  9.258014E-01
  9.228763E-01
  9.197681E-01
  9.166605E-01
  9.135533E-01
  9.104466E-01
  9.070256E-01
  9.033987E-01
  8.997724E-01
  8.961468E-01
  8.925219E-01
  8.884961E-01
  8.843704E-01
  8.802456E-01
  8.761215E-01
  8.718897E-01
  8.673061E-01
  8.627234E-01
  8.581418E-01
  8.535611E-01
  8.486287E-01
  8.436581E-01
  8.386887E-01
  8.337205E-01
  8.285136E-01
  8.232407E-01
  8.179691E-01
  8.126990E-01
  8.072433E-01
  8.017605E-01
  7.962792E-01
  7.907802E-01
  7.851737E-01
  7.795688E-01
  7.739656E-01
  7.683172E-01
  7.626418E-01
  7.569681E-01
  7.512781E-01
  7.455393E-01
  7.398025E-01
  7.340615E-01
  7.282464E-01
  7.224335E-01
  7.166171E-01
  7.106907E-01
  7.047664E-01
  6.988131E-01
  6.927105E-01
  6.866097E-01
  6.804038E-01
  6.740623E-01
  6.677224E-01
  6.611436E-01
  6.545210E-01
  6.477831E-01
  6.408529E-01
  6.339130E-01
  6.266661E-01
  6.194198E-01
  6.119156E-01
  6.043502E-01
  5.965565E-01
  5.886617E-01
  5.805328E-01
  5.722958E-01
  5.637967E-01
  5.552215E-01
  5.463373E-01
  5.373681E-01
  5.281689E-01
  5.187966E-01
  5.092964E-01
  4.995341E-01
  4.896144E-01
  4.795307E-01
  4.692202E-01
  4.586937E-01
  4.480128E-01
  4.372417E-01
  4.265688E-01
  4.164792E-01
  4.080131E-01
  4.028490E-01
  4.041809E-01
  4.152863E-01
  4.143747E-01
  3.727031E-01
  4.105210E-01
  1.786088E-01
 -1.352512E-03
  5.641034E-02
  5.634824E-02
  5.628675E-02
  5.622588E-02
  5.616562E-02
  5.610597E-02
  5.604692E-02
  5.598847E-02
  5.593061E-02
  5.586947E-02
  5.580887E-02
  5.574889E-02
  5.568953E-02
  5.563078E-02
  5.557263E-02
  5.551508E-02
  5.548680E-02
  5.551158E-02
  5.553676E-02
  5.556234E-02
  5.558830E-02
  5.561465E-02
  5.564138E-02
  5.567064E-02
  5.571745E-02
  5.576454E-02
  5.581189E-02
  5.585951E-02
  5.590739E-02
  5.595553E-02
  5.600428E-02
  5.605441E-02
  5.610469E-02
  5.615514E-02
  5.620574E-02
  5.625650E-02
  5.630741E-02
  5.634339E-02
  5.637284E-02
  5.640235E-02
  5.643191E-02
  5.646152E-02
  5.649119E-02
  5.649955E-02
  5.648540E-02
  5.647123E-02
  5.645705E-02
  5.644285E-02
  5.642864E-02
  5.638374E-02
  5.631735E-02
  5.625095E-02
  5.618453E-02
  5.611809E-02
  5.605164E-02
  5.593342E-02
  5.581443E-02
  5.569547E-02
  5.557655E-02
  5.545767E-02
  5.530096E-02
  5.512495E-02
  5.494908E-02
  5.477334E-02
  5.459773E-02
  5.438843E-02
  5.415717E-02
  5.392618E-02
  5.369545E-02
  5.346497E-02
  5.319855E-02
  5.292343E-02
  5.264871E-02
  5.237438E-02
  5.209277E-02
  5.178670E-02
  5.148115E-02
  5.117611E-02
  5.087159E-02
  5.055087E-02
  5.022887E-02
  4.990747E-02
  4.958666E-02
  4.926166E-02
  4.893591E-02
  4.861076E-02
  4.828621E-02
  4.796097E-02
  4.763608E-02
  4.731175E-02
  4.698761E-02
  4.666198E-02
  4.633681E-02
  4.601211E-02
  4.568397E-02
  4.535383E-02
  4.502405E-02
  4.469166E-02
  4.435123E-02
  4.401112E-02
  4.367109E-02
  4.332864E-02
  4.298645E-02
  4.264539E-02
  4.232203E-02
  4.199884E-02
  4.168150E-02
  4.139185E-02
  4.110228E-02
  4.083068E-02
  4.058204E-02
  4.033338E-02
  4.012309E-02
  3.991992E-02
  3.973421E-02
  3.957752E-02
  3.942220E-02
  3.931019E-02
  3.919806E-02
  3.912172E-02
  3.905386E-02
  3.901175E-02
  3.898113E-02
  3.896783E-02
  3.896279E-02
  3.897436E-02
  3.899135E-02
  3.903248E-02
  3.908338E-02
  3.915994E-02
  3.926397E-02
  3.939006E-02
  3.957254E-02
  3.980086E-02
  4.008120E-02
  4.044584E-02
  4.092158E-02
  4.152324E-02
  4.230109E-02
  4.334368E-02
  4.481805E-02
  4.703023E-02
  5.046839E-02
  5.597069E-02
  6.436722E-02
  7.192255E-02
  7.303961E-02
  8.663017E-02
  3.439538E-02
  8.648635E-03
  1.171354E-01
  1.176145E-01
  1.180942E-01
  1.185748E-01
  1.190561E-01
  1.195381E-01
  1.200208E-01
  1.205043E-01
  1.209886E-01
  1.220440E-01
  1.231142E-01
  1.241758E-01
  1.252472E-01
  1.263192E-01
  1.273919E-01
  1.284652E-01
  1.295343E-01
  1.305950E-01
  1.316561E-01
  1.327177E-01
  1.337798E-01
  1.348424E-01
  1.359055E-01
  1.369540E-01
  1.378826E-01
  1.388116E-01
  1.397410E-01
  1.406708E-01
  1.416010E-01
  1.425316E-01
  1.434218E-01
  1.441763E-01
  1.449312E-01
  1.456863E-01
  1.464418E-01
  1.471976E-01
  1.479536E-01
  1.485460E-01
  1.490668E-01
  1.495877E-01
  1.501088E-01
  1.506301E-01
  1.511516E-01
  1.515323E-01
  1.517646E-01
  1.519969E-01
  1.522293E-01
  1.524618E-01
  1.526944E-01
  1.527589E-01
  1.527056E-01
  1.526525E-01
  1.525994E-01
  1.525464E-01
  1.524934E-01
  1.522001E-01
  1.519032E-01
  1.516064E-01
  1.513097E-01
  1.510132E-01
  1.505638E-01
  1.500363E-01
  1.495091E-01
  1.489820E-01
  1.484551E-01
  1.477835E-01
  1.470171E-01
  1.462511E-01
  1.454854E-01
  1.447200E-01
  1.437678E-01
  1.427691E-01
  1.417708E-01
  1.407730E-01
  1.397270E-01
  1.385231E-01
  1.373198E-01
  1.361172E-01
  1.349151E-01
  1.335739E-01
  1.322178E-01
  1.308625E-01
  1.295079E-01
  1.280890E-01
  1.266527E-01
  1.252172E-01
  1.237825E-01
  1.223413E-01
  1.208999E-01
  1.194594E-01
  1.180283E-01
  1.166473E-01
  1.152671E-01
  1.138878E-01
  1.125732E-01
  1.112989E-01
  1.100254E-01
  1.087829E-01
  1.076261E-01
  1.064702E-01
  1.053223E-01
  1.042642E-01
  1.032069E-01
  1.021529E-01
  1.011481E-01
  1.001441E-01
  9.913903E-02
  9.812616E-02
  9.711393E-02
  9.607554E-02
  9.500329E-02
  9.393150E-02
  9.278212E-02
  9.161840E-02
  9.041290E-02
  8.913778E-02
  8.785875E-02
  8.646099E-02
  8.506331E-02
  8.357592E-02
  8.206714E-02
  8.050838E-02
  7.892751E-02
  7.732650E-02
  7.571630E-02
  7.411182E-02
  7.250921E-02
  7.094789E-02
  6.940733E-02
  6.792660E-02
  6.651371E-02
  6.515263E-02
  6.392635E-02
  6.279717E-02
  6.177408E-02
  6.091487E-02
  6.025568E-02
  5.981307E-02
  5.967853E-02
  6.002586E-02
  6.121213E-02
  6.393625E-02
  6.931736E-02
  7.900239E-02
  9.415607E-02
  1.060253E-01
  9.992616E-02
  1.101388E-01
  2.897626E-02
 -7.525147E-10
  9.590522E-01
  9.590804E-01
  9.591112E-01
  9.591444E-01
  9.591800E-01
  9.592181E-01
  9.592587E-01
  9.593018E-01
  9.593473E-01
  9.597306E-01
  9.601245E-01
  9.605204E-01
  9.609183E-01
  9.613184E-01
  9.617206E-01
  9.621251E-01
  9.625781E-01
  9.631183E-01
  9.636602E-01
  9.642038E-01
  9.647491E-01
  9.652961E-01
  9.658448E-01
  9.663468E-01
  9.664622E-01