 Title= "ADflow Lift Distribution Data"
Variables = "eta" "CoordinateX" "CoordinateY" "CoordinateZ" "Lift" "Drag" "Moment" "Normalized Lift" "Normalized Drag" "Normalized Moment" "CL" "CD" "CM" "CLp" "CDp" "CMp" "CLv" "CDv" "CMv" "Elliptical" "thickness" "twist" "chord" "fx" "fy" "fz" 
Zone T= "LiftDist_01 allWalls: : z normal"
 I=          150
 DATAPACKING=BLOCK
  0.000000E+00
  6.711405E-03
  1.342281E-02
  2.013422E-02
  2.684563E-02
  3.355704E-02
  4.026845E-02
  4.697986E-02
  5.369127E-02
  6.040268E-02
  6.711409E-02
  7.382550E-02
  8.053691E-02
  8.724832E-02
  9.395973E-02
  1.006711E-01
  1.073825E-01
  1.140940E-01
  1.208054E-01
  1.275168E-01
  1.342282E-01
  1.409396E-01
  1.476510E-01
  1.543624E-01
  1.610738E-01
  1.677852E-01
  1.744966E-01
  1.812081E-01
  1.879195E-01
  1.946309E-01
  2.013423E-01
  2.080537E-01
  2.147651E-01
  2.214765E-01
  2.281879E-01
  2.348993E-01
  2.416107E-01
  2.483221E-01
  2.550336E-01
  2.617450E-01
  2.684564E-01
  2.751678E-01
  2.818792E-01
  2.885906E-01
  2.953020E-01
  3.020134E-01
  3.087248E-01
  3.154362E-01
  3.221476E-01
  3.288591E-01
  3.355705E-01
  3.422819E-01
  3.489933E-01
  3.557047E-01
  3.624161E-01
  3.691275E-01
  3.758389E-01
  3.825503E-01
  3.892617E-01
  3.959732E-01
  4.026846E-01
  4.093960E-01
  4.161074E-01
  4.228188E-01
  4.295302E-01
  4.362416E-01
  4.429530E-01
  4.496644E-01
  4.563758E-01
  4.630872E-01
  4.697987E-01
  4.765101E-01
  4.832215E-01
  4.899329E-01
  4.966443E-01
  5.033557E-01
  5.100671E-01
  5.167785E-01
  5.234899E-01
  5.302013E-01
  5.369128E-01
  5.436242E-01
  5.503356E-01
  5.570470E-01
  5.637584E-01
  5.704698E-01
  5.771812E-01
  5.838926E-01
  5.906040E-01
  5.973154E-01
  6.040268E-01
  6.107383E-01
  6.174497E-01
  6.241611E-01
  6.308725E-01
  6.375839E-01
  6.442953E-01
  6.510067E-01
  6.577181E-01
  6.644295E-01
  6.711409E-01
  6.778524E-01
  6.845638E-01
  6.912752E-01
  6.979866E-01
  7.046980E-01
  7.114094E-01
  7.181208E-01
  7.248322E-01
  7.315436E-01
  7.382550E-01
  7.449664E-01
  7.516779E-01
  7.583893E-01
  7.651007E-01
  7.718121E-01
  7.785235E-01
  7.852349E-01
  7.919463E-01
  7.986577E-01
  8.053691E-01
  8.120805E-01
  8.187919E-01
  8.255034E-01
  8.322148E-01
  8.389262E-01
  8.456376E-01
  8.523490E-01
  8.590604E-01
  8.657718E-01
  8.724832E-01
  8.791946E-01
  8.859060E-01
  8.926175E-01
  8.993289E-01
  9.060403E-01
  9.127517E-01
  9.194631E-01
  9.261745E-01
  9.328859E-01
  9.395973E-01
  9.463087E-01
  9.530201E-01
  9.597315E-01
  9.664430E-01
  9.731544E-01
  9.798658E-01
  9.865772E-01
  9.932886E-01
  1.000000E+00
  0.000000E+00
  0.000000E+00
  0.000000E+00
  0.000000E+00
  0.000000E+00
  0.000000E+00
  0.000000E+00
  0.000000E+00
  0.000000E+00
  0.000000E+00
  0.000000E+00
  0.000000E+00
  0.000000E+00
  0.000000E+00
  0.000000E+00
  0.000000E+00
  0.000000E+00
  0.000000E+00
  0.000000E+00
  0.000000E+00
  0.000000E+00
  0.000000E+00
  0.000000E+00
  0.000000E+00
  0.000000E+00
  0.000000E+00
  0.000000E+00
  0.000000E+00
  0.000000E+00
  0.000000E+00
  0.000000E+00
  0.000000E+00
  0.000000E+00
  0.000000E+00
  0.000000E+00
  0.000000E+00
  0.000000E+00
  0.000000E+00
  0.000000E+00
  0.000000E+00
  0.000000E+00
  0.000000E+00
  0.000000E+00
  0.000000E+00
  0.000000E+00
  0.000000E+00
  0.000000E+00
  0.000000E+00
  0.000000E+00
  0.000000E+00
  0.000000E+00
  0.000000E+00
  0.000000E+00
  0.000000E+00
  0.000000E+00
  0.000000E+00
  0.000000E+00
  0.000000E+00
  0.000000E+00
  0.000000E+00
  0.000000E+00
  0.000000E+00
  0.000000E+00
  0.000000E+00
  0.000000E+00
  0.000000E+00
  0.000000E+00
  0.000000E+00
  0.000000E+00
  0.000000E+00
  0.000000E+00
  0.000000E+00
  0.000000E+00
  0.000000E+00
  0.000000E+00
  0.000000E+00
  0.000000E+00
  0.000000E+00
  0.000000E+00
  0.000000E+00
  0.000000E+00
  0.000000E+00
  0.000000E+00
  0.000000E+00
  0.000000E+00
  0.000000E+00
  0.000000E+00
  0.000000E+00
  0.000000E+00
  0.000000E+00
  0.000000E+00
  0.000000E+00
  0.000000E+00
  0.000000E+00
  0.000000E+00
  0.000000E+00
  0.000000E+00
  0.000000E+00
  0.000000E+00
  0.000000E+00
  0.000000E+00
  0.000000E+00
  0.000000E+00
  0.000000E+00
  0.000000E+00
  0.000000E+00
  0.000000E+00
  0.000000E+00
  0.000000E+00
  0.000000E+00
  0.000000E+00
  0.000000E+00
  0.000000E+00
  0.000000E+00
  0.000000E+00
  0.000000E+00
  0.000000E+00
  0.000000E+00
  0.000000E+00
  0.000000E+00
  0.000000E+00
  0.000000E+00
  0.000000E+00
  0.000000E+00
  0.000000E+00
  0.000000E+00
  0.000000E+00
  0.000000E+00
  0.000000E+00
  0.000000E+00
  0.000000E+00
  0.000000E+00
  0.000000E+00
  0.000000E+00
  0.000000E+00
  0.000000E+00
  0.000000E+00
  0.000000E+00
  0.000000E+00
  0.000000E+00
  0.000000E+00
  0.000000E+00
  0.000000E+00
  0.000000E+00
  0.000000E+00
  0.000000E+00
  0.000000E+00
  0.000000E+00
  0.000000E+00
  0.000000E+00
  0.000000E+00
  0.000000E+00
  0.000000E+00
  0.000000E+00
  0.000000E+00
  0.000000E+00
  0.000000E+00
  0.000000E+00
  0.000000E+00
  0.000000E+00
  0.000000E+00
  0.000000E+00
  0.000000E+00
  0.000000E+00
  0.000000E+00
  0.000000E+00
  0.000000E+00
  0.000000E+00
  0.000000E+00
  0.000000E+00
  0.000000E+00
  0.000000E+00
  0.000000E+00
  0.000000E+00
  0.000000E+00
  0.000000E+00
  0.000000E+00
  0.000000E+00
  0.000000E+00
  0.000000E+00
  0.000000E+00
  0.000000E+00
  0.000000E+00
  0.000000E+00
  0.000000E+00
  0.000000E+00
  0.000000E+00
  0.000000E+00
  0.000000E+00
  0.000000E+00
  0.000000E+00
  0.000000E+00
  0.000000E+00
  0.000000E+00
  0.000000E+00
  0.000000E+00
  0.000000E+00
  0.000000E+00
  0.000000E+00
  0.000000E+00
  0.000000E+00
  0.000000E+00
  0.000000E+00
  0.000000E+00
  0.000000E+00
  0.000000E+00
  0.000000E+00
  0.000000E+00
  0.000000E+00
  0.000000E+00
  0.000000E+00
  0.000000E+00
  0.000000E+00
  0.000000E+00
  0.000000E+00
  0.000000E+00
  0.000000E+00
  0.000000E+00
  0.000000E+00
  0.000000E+00
  0.000000E+00
  0.000000E+00
  0.000000E+00
  0.000000E+00
  0.000000E+00
  0.000000E+00
  0.000000E+00
  0.000000E+00
  0.000000E+00
  0.000000E+00
  0.000000E+00
  0.000000E+00
  0.000000E+00
  0.000000E+00
  0.000000E+00
  0.000000E+00
  0.000000E+00
  0.000000E+00
  0.000000E+00
  0.000000E+00
  0.000000E+00
  0.000000E+00
  0.000000E+00
  0.000000E+00
  0.000000E+00
  0.000000E+00
  0.000000E+00
  0.000000E+00
  0.000000E+00
  0.000000E+00
  0.000000E+00
  0.000000E+00
  0.000000E+00
  0.000000E+00
  0.000000E+00
  0.000000E+00
  0.000000E+00
  0.000000E+00
  0.000000E+00
  0.000000E+00
  0.000000E+00
  0.000000E+00
  0.000000E+00
  0.000000E+00
  0.000000E+00
  0.000000E+00
  0.000000E+00
  0.000000E+00
  0.000000E+00
  0.000000E+00
  0.000000E+00
  0.000000E+00
  0.000000E+00
  0.000000E+00
  0.000000E+00
  0.000000E+00
  0.000000E+00
  0.000000E+00
  0.000000E+00
  0.000000E+00
  0.000000E+00
  0.000000E+00
  0.000000E+00
  0.000000E+00
  0.000000E+00
  0.000000E+00
  0.000000E+00
  0.000000E+00
  0.000000E+00
  0.000000E+00
  0.000000E+00
  0.000000E+00
  0.000000E+00
  0.000000E+00
  0.000000E+00
  0.000000E+00
  0.000000E+00
  0.000000E+00
  0.000000E+00
  0.000000E+00
  1.000000E-08
  1.695085E-02
  3.390169E-02
  5.085254E-02
  6.780338E-02
  8.475423E-02
  1.017051E-01
  1.186559E-01
  1.356068E-01
  1.525576E-01
  1.695085E-01
  1.864593E-01
  2.034101E-01
  2.203610E-01
  2.373118E-01
  2.542627E-01
  2.712135E-01
  2.881644E-01
  3.051152E-01
  3.220661E-01
  3.390169E-01
  3.559678E-01
  3.729186E-01
  3.898694E-01
  4.068203E-01
  4.237711E-01
  4.407220E-01
  4.576728E-01
  4.746237E-01
  4.915745E-01
  5.085254E-01
  5.254762E-01
  5.424271E-01
  5.593779E-01
  5.763287E-01
  5.932796E-01
  6.102304E-01
  6.271813E-01
  6.441321E-01
  6.610830E-01
  6.780338E-01
  6.949847E-01
  7.119355E-01
  7.288864E-01
  7.458372E-01
  7.627880E-01
  7.797389E-01
  7.966897E-01
  8.136406E-01
  8.305914E-01
  8.475423E-01
  8.644931E-01
  8.814440E-01
  8.983948E-01
  9.153457E-01
  9.322965E-01
  9.492473E-01
  9.661982E-01
  9.831490E-01
  1.000100E+00
  1.017051E+00
  1.034002E+00
  1.050952E+00
  1.067903E+00
  1.084854E+00
  1.101805E+00
  1.118756E+00
  1.135707E+00
  1.152657E+00
  1.169608E+00
  1.186559E+00
  1.203510E+00
  1.220461E+00
  1.237412E+00
  1.254363E+00
  1.271313E+00
  1.288264E+00
  1.305215E+00
  1.322166E+00
  1.339117E+00
  1.356068E+00
  1.373018E+00
  1.389969E+00
  1.406920E+00
  1.423871E+00
  1.440822E+00
  1.457773E+00
  1.474724E+00
  1.491674E+00
  1.508625E+00
  1.525576E+00
  1.542527E+00
  1.559478E+00
  1.576429E+00
  1.593379E+00
  1.610330E+00
  1.627281E+00
  1.644232E+00
  1.661183E+00
  1.678134E+00
  1.695085E+00
  1.712035E+00
  1.728986E+00
  1.745937E+00
  1.762888E+00
  1.779839E+00
  1.796790E+00
  1.813740E+00
  1.830691E+00
  1.847642E+00
  1.864593E+00
  1.881544E+00
  1.898495E+00
  1.915446E+00
  1.932396E+00
  1.949347E+00
  1.966298E+00
  1.983249E+00
  2.000200E+00
  2.017151E+00
  2.034101E+00
  2.051052E+00
  2.068003E+00
  2.084954E+00
  2.101905E+00
  2.118856E+00
  2.135807E+00
  2.152757E+00
  2.169708E+00
  2.186659E+00
  2.203610E+00
  2.220561E+00
  2.237512E+00
  2.254462E+00
  2.271413E+00
  2.288364E+00
  2.305315E+00
  2.322266E+00
  2.339217E+00
  2.356168E+00
  2.373118E+00
  2.390069E+00
  2.407020E+00
  2.423971E+00
  2.440922E+00
  2.457873E+00
  2.474823E+00
  2.491774E+00
  2.508725E+00
  2.525676E+00
  1.106242E+04
  1.106054E+04
  1.105866E+04
  1.105679E+04
  1.105491E+04
  1.105303E+04
  1.105115E+04
  1.104928E+04
  1.104740E+04
  1.104184E+04
  1.103620E+04
  1.103055E+04
  1.102490E+04
  1.101926E+04
  1.101361E+04
  1.100797E+04
  1.100113E+04
  1.099211E+04
  1.098309E+04
  1.097407E+04
  1.096506E+04
  1.095604E+04
  1.094702E+04
  1.093765E+04
  1.092543E+04
  1.091321E+04
  1.090099E+04
  1.088878E+04
  1.087656E+04
  1.086434E+04
  1.085135E+04
  1.083577E+04
  1.082018E+04
  1.080460E+04
  1.078902E+04
  1.077344E+04
  1.075786E+04
  1.073991E+04
  1.072093E+04
  1.070194E+04
  1.068296E+04
  1.066398E+04
  1.064500E+04
  1.062442E+04
  1.060216E+04
  1.057990E+04
  1.055764E+04
  1.053538E+04
  1.051312E+04
  1.048895E+04
  1.046345E+04
  1.043794E+04
  1.041244E+04
  1.038695E+04
  1.036145E+04
  1.033276E+04
  1.030402E+04
  1.027528E+04
  1.024655E+04
  1.021781E+04
  1.018699E+04
  1.015510E+04
  1.012322E+04
  1.009133E+04
  1.005945E+04
  1.002563E+04
  9.990546E+03
  9.955461E+03
  9.920379E+03
  9.885301E+03
  9.847431E+03
  9.808863E+03
  9.770298E+03
  9.731736E+03
  9.692299E+03
  9.650014E+03
  9.607730E+03
  9.565448E+03
  9.523168E+03
  9.477450E+03
  9.431348E+03
  9.385247E+03
  9.339147E+03
  9.290054E+03
  9.240120E+03
  9.190187E+03
  9.140255E+03
  9.087297E+03
  9.033877E+03
  8.980460E+03
  8.926607E+03
  8.870270E+03
  8.813938E+03
  8.757611E+03
  8.699638E+03
  8.640653E+03
  8.581681E+03
  8.522031E+03
  8.460468E+03
  8.398930E+03
  8.337239E+03
  8.273400E+03
  8.209600E+03
  8.145715E+03
  8.079426E+03
  8.013183E+03
  7.946410E+03
  7.876906E+03
  7.807447E+03
  7.736273E+03
  7.662884E+03
  7.589535E+03
  7.512559E+03
  7.434929E+03
  7.355657E+03
  7.273632E+03
  7.191486E+03
  7.105096E+03
  7.018725E+03
  6.928897E+03
  6.838255E+03
  6.744701E+03
  6.649861E+03
  6.552189E+03
  6.453214E+03
  6.351170E+03
  6.248245E+03
  6.141805E+03
  6.034441E+03
  5.924563E+03
  5.812870E+03
  5.699847E+03
  5.584149E+03
  5.466858E+03
  5.347881E+03
  5.226480E+03
  5.102474E+03
  4.976201E+03
  4.847861E+03
  4.718771E+03
  4.593280E+03
  4.481796E+03
  4.402108E+03
  4.389569E+03
  4.481351E+03
  4.445768E+03
  4.005261E+03
  4.499453E+03
  1.348105E+03
 -1.141258E-04
  6.305858E+02
  6.305240E+02
  6.304621E+02
  6.304002E+02
  6.303384E+02
  6.302765E+02
  6.302147E+02
  6.301529E+02
  6.300910E+02
  6.299503E+02
  6.298076E+02
  6.296650E+02
  6.295223E+02
  6.293797E+02
  6.292370E+02
  6.290944E+02
  6.289493E+02
  6.287997E+02
  6.286502E+02
  6.285006E+02
  6.283510E+02
  6.282015E+02
  6.280519E+02
  6.278994E+02
  6.277232E+02
  6.275470E+02
  6.273709E+02
  6.271947E+02
  6.270185E+02
  6.268422E+02
  6.266449E+02
  6.263775E+02
  6.261100E+02
  6.258425E+02
  6.255750E+02
  6.253074E+02
  6.250398E+02
  6.246963E+02
  6.243194E+02
  6.239424E+02
  6.235654E+02
  6.231883E+02
  6.228112E+02
  6.223634E+02
  6.218411E+02
  6.213187E+02
  6.207961E+02
  6.202735E+02
  6.197508E+02
  6.190798E+02
  6.183050E+02
  6.175300E+02
  6.167550E+02
  6.159798E+02
  6.152044E+02
  6.140822E+02
  6.129545E+02
  6.118266E+02
  6.106986E+02
  6.095706E+02
  6.082204E+02
  6.067564E+02
  6.052923E+02
  6.038281E+02
  6.023638E+02
  6.007519E+02
  5.990432E+02
  5.973344E+02
  5.956253E+02
  5.939161E+02
  5.921184E+02
  5.902983E+02
  5.884779E+02
  5.866572E+02
  5.848539E+02
  5.831082E+02
  5.813620E+02
  5.796155E+02
  5.778685E+02
  5.762099E+02
  5.745608E+02
  5.729115E+02
  5.712619E+02
  5.695105E+02
  5.677303E+02
  5.659499E+02
  5.641692E+02
  5.620774E+02
  5.599376E+02
  5.577977E+02
  5.555818E+02
  5.529353E+02
  5.502892E+02
  5.476436E+02
  5.445220E+02
  5.411080E+02
  5.376965E+02
  5.340430E+02
  5.297085E+02
  5.253806E+02
  5.210095E+02
  5.160401E+02
  5.110810E+02
  5.061203E+02
  5.009366E+02
  4.957643E+02
  4.906070E+02
  4.854787E+02
  4.803603E+02
  4.753560E+02
  4.704932E+02
  4.656375E+02
  4.611392E+02
  4.567106E+02
  4.524836E+02
  4.485868E+02
  4.447100E+02
  4.413988E+02
  4.380860E+02
  4.352731E+02
  4.325770E+02
  4.302911E+02
  4.281853E+02
  4.264363E+02
  4.248515E+02
  4.236444E+02
  4.225474E+02
  4.219294E+02
  4.214637E+02
  4.214145E+02
  4.217463E+02
  4.223718E+02
  4.237029E+02
  4.255516E+02
  4.279728E+02
  4.312838E+02
  4.356817E+02
  4.412396E+02
  4.483615E+02
  4.577872E+02
  4.709988E+02
  4.908474E+02
  5.219969E+02
  5.726590E+02
  6.508556E+02
  7.197868E+02
  7.326882E+02
  8.845057E+02
  2.145482E+02
  3.893468E-04
  1.805315E+03
  1.804749E+03
  1.804183E+03
  1.803618E+03
  1.803052E+03
  1.802486E+03
  1.801921E+03
  1.801355E+03
  1.800790E+03
  1.799343E+03
  1.797874E+03
  1.796405E+03
  1.794936E+03
  1.793467E+03
  1.791998E+03
  1.790530E+03
  1.788860E+03
  1.786824E+03
  1.784787E+03
  1.782750E+03
  1.780714E+03
  1.778677E+03
  1.776641E+03
  1.774536E+03
  1.771886E+03
  1.769236E+03
  1.766587E+03
  1.763937E+03
  1.761287E+03
  1.758638E+03
  1.755828E+03
  1.752487E+03
  1.749145E+03
  1.745804E+03
  1.742463E+03
  1.739122E+03
  1.735781E+03
  1.731977E+03
  1.727970E+03
  1.723964E+03
  1.719957E+03
  1.715951E+03
  1.711945E+03
  1.707660E+03
  1.703080E+03
  1.698501E+03
  1.693923E+03
  1.689344E+03
  1.684766E+03
  1.679925E+03
  1.674900E+03
  1.669876E+03
  1.664853E+03
  1.659830E+03
  1.654807E+03
  1.649500E+03
  1.644189E+03
  1.638879E+03
  1.633569E+03
  1.628260E+03
  1.622823E+03
  1.617322E+03
  1.611821E+03
  1.606321E+03
  1.600822E+03
  1.595153E+03
  1.589372E+03
  1.583593E+03
  1.577814E+03
  1.572036E+03
  1.565945E+03
  1.559775E+03
  1.553607E+03
  1.547439E+03
  1.541209E+03
  1.534779E+03
  1.528349E+03
  1.521919E+03
  1.515489E+03
  1.508900E+03
  1.502292E+03
  1.495685E+03
  1.489078E+03
  1.482198E+03
  1.475241E+03
  1.468285E+03
  1.461329E+03
  1.454144E+03
  1.446925E+03
  1.439707E+03
  1.432503E+03
  1.425379E+03
  1.418258E+03
  1.411138E+03
  1.404037E+03
  1.396950E+03
  1.389867E+03
  1.382681E+03
  1.375199E+03
  1.367727E+03
  1.360228E+03
  1.352269E+03
  1.344328E+03
  1.336376E+03
  1.327893E+03
  1.319431E+03
  1.310809E+03
  1.301330E+03
  1.291872E+03
  1.281762E+03
  1.270810E+03
  1.259876E+03
  1.247493E+03
  1.234850E+03
  1.221548E+03
  1.207140E+03
  1.192684E+03
  1.176546E+03
  1.160414E+03
  1.143024E+03
  1.125335E+03
  1.106785E+03
  1.087854E+03
  1.068314E+03
  1.048494E+03
  1.028271E+03
  1.007935E+03
  9.874961E+02
  9.671362E+02
  9.470292E+02
  9.273843E+02
  9.081026E+02
  8.899074E+02
  8.725444E+02
  8.560891E+02
  8.410276E+02
  8.275690E+02
  8.157731E+02
  8.062990E+02
  8.005820E+02
  8.019298E+02
  8.174645E+02
  8.591274E+02
  9.454010E+02
  1.090558E+03
  1.201599E+03
  1.133719E+03
  1.283932E+03
  2.078203E+02
 -8.343104E-11
  1.244832E+00
  1.244621E+00
  1.244410E+00
  1.244199E+00
  1.243987E+00
  1.243776E+00
  1.243565E+00
  1.243353E+00
  1.243142E+00
  1.242517E+00
  1.241882E+00
  1.241246E+00
  1.240611E+00
  1.239976E+00
  1.239340E+00
  1.238705E+00
  1.237936E+00
  1.236921E+00
  1.235906E+00
  1.234891E+00
  1.233876E+00
  1.232862E+00
  1.231847E+00
  1.230792E+00
  1.229417E+00
  1.228042E+00
  1.226668E+00
  1.225293E+00
  1.223918E+00
  1.222543E+00
  1.221081E+00
  1.219328E+00
  1.217574E+00
  1.215821E+00
  1.214067E+00
  1.212314E+00
  1.210560E+00
  1.208541E+00
  1.206405E+00
  1.204269E+00
  1.202133E+00
  1.199997E+00
  1.197861E+00
  1.195546E+00
  1.193040E+00
  1.190535E+00
  1.188030E+00
  1.185525E+00
  1.183021E+00
  1.180301E+00
  1.177431E+00
  1.174561E+00
  1.171692E+00
  1.168823E+00
  1.165954E+00
  1.162725E+00
  1.159491E+00
  1.156257E+00
  1.153024E+00
  1.149791E+00
  1.146322E+00
  1.142734E+00
  1.139146E+00
  1.135558E+00
  1.131970E+00
  1.128165E+00
  1.124217E+00
  1.120269E+00
  1.116321E+00
  1.112374E+00
  1.108112E+00
  1.103772E+00
  1.099433E+00
  1.095093E+00
  1.090655E+00
  1.085897E+00
  1.081139E+00
  1.076381E+00
  1.071624E+00
  1.066479E+00
  1.061291E+00
  1.056103E+00
  1.050916E+00
  1.045392E+00
  1.039773E+00
  1.034154E+00
  1.028535E+00
  1.022576E+00
  1.016565E+00
  1.010554E+00
  1.004494E+00
  9.981541E-01
  9.918152E-01
  9.854769E-01
  9.789532E-01
  9.723158E-01
  9.656797E-01
  9.589674E-01
  9.520399E-01
  9.451151E-01
  9.381732E-01
  9.309895E-01
  9.238102E-01
  9.166214E-01
  9.091620E-01
  9.017078E-01
  8.941940E-01
  8.863729E-01
  8.785568E-01
  8.705476E-01
  8.622893E-01
  8.540355E-01
  8.453735E-01
  8.366380E-01
  8.277177E-01
  8.184875E-01
  8.092439E-01
  7.995225E-01
  7.898034E-01
  7.796953E-01
  7.694954E-01
  7.589680E-01
  7.482958E-01
  7.373051E-01
  7.261676E-01
  7.146848E-01
  7.031028E-01
  6.911253E-01
  6.790438E-01
  6.666795E-01
  6.541108E-01
  6.413926E-01
  6.283734E-01
  6.151749E-01
  6.017866E-01
  5.881256E-01
  5.741715E-01
  5.599622E-01
  5.455203E-01
  5.309940E-01
  5.168729E-01
  5.043278E-01
  4.953606E-01
  4.939497E-01
  5.042776E-01
  5.002736E-01
  4.507042E-01
  5.063146E-01
  1.516996E-01
 -1.284235E-08
  1.125899E+00
  1.125788E+00
  1.125678E+00
  1.125567E+00
  1.125457E+00
  1.125346E+00
  1.125236E+00
  1.125126E+00
  1.125015E+00
  1.124764E+00
  1.124509E+00
  1.124254E+00
  1.124000E+00
  1.123745E+00
  1.123490E+00
  1.123236E+00
  1.122977E+00
  1.122710E+00
  1.122443E+00
  1.122176E+00
  1.121908E+00
  1.121641E+00
  1.121374E+00
  1.121102E+00
  1.120788E+00
  1.120473E+00
  1.120158E+00
  1.119844E+00
  1.119529E+00
  1.119215E+00
  1.118862E+00
  1.118385E+00
  1.117907E+00
  1.117430E+00
  1.116952E+00
  1.116474E+00
  1.115996E+00
  1.115383E+00
  1.114710E+00
  1.114037E+00
  1.113364E+00
  1.112691E+00
  1.112017E+00
  1.111218E+00
  1.110285E+00
  1.109352E+00
  1.108419E+00
  1.107486E+00
  1.106553E+00
  1.105355E+00
  1.103971E+00
  1.102588E+00
  1.101204E+00
  1.099820E+00
  1.098435E+00
  1.096432E+00
  1.094418E+00
  1.092404E+00
  1.090390E+00
  1.088376E+00
  1.085966E+00
  1.083352E+00
  1.080738E+00
  1.078123E+00
  1.075509E+00
  1.072631E+00
  1.069580E+00
  1.066529E+00
  1.063477E+00
  1.060426E+00
  1.057216E+00
  1.053966E+00
  1.050716E+00
  1.047465E+00
  1.044245E+00
  1.041128E+00
  1.038010E+00
  1.034892E+00
  1.031773E+00
  1.028811E+00
  1.025867E+00
  1.022922E+00
  1.019977E+00
  1.016850E+00
  1.013671E+00
  1.010492E+00
  1.007313E+00
  1.003578E+00
  9.997577E-01
  9.959369E-01
  9.919805E-01
  9.872552E-01
  9.825307E-01
  9.778069E-01
  9.722335E-01
  9.661378E-01
  9.600467E-01
  9.535234E-01
  9.457842E-01
  9.380567E-01
  9.302523E-01
  9.213795E-01
  9.125251E-01
  9.036679E-01
  8.944125E-01
  8.851775E-01
  8.759691E-01
  8.668127E-01
  8.576740E-01
  8.487388E-01
  8.400565E-01
  8.313866E-01
  8.233550E-01
  8.154479E-01
  8.079006E-01
  8.009430E-01
  7.940210E-01
  7.881090E-01
  7.821940E-01
  7.771716E-01
  7.723577E-01
  7.682763E-01
  7.645164E-01
  7.613937E-01
  7.585641E-01
  7.564088E-01
  7.544501E-01
  7.533467E-01
  7.525152E-01
  7.524274E-01
  7.530197E-01
  7.541366E-01
  7.565133E-01
  7.598141E-01
  7.641371E-01
  7.700488E-01
  7.779012E-01
  7.878248E-01
  8.005406E-01
  8.173702E-01
  8.409592E-01
  8.763984E-01
  9.320153E-01
  1.022471E+00
  1.162090E+00
  1.285165E+00
  1.308201E+00
  1.579268E+00
  3.830716E-01
  6.951711E-07
  1.243386E+00
  1.242997E+00
  1.242607E+00
  1.242218E+00
  1.241828E+00
  1.241439E+00
  1.241049E+00
  1.240659E+00
  1.240270E+00
  1.239273E+00
  1.238262E+00
  1.237250E+00
  1.236238E+00
  1.235227E+00
  1.234215E+00
  1.233203E+00
  1.232054E+00
  1.230651E+00
  1.229248E+00
  1.227846E+00
  1.226443E+00
  1.225040E+00
  1.223638E+00
  1.222188E+00
  1.220363E+00
  1.218538E+00
  1.216713E+00
  1.214888E+00
  1.213063E+00
  1.211238E+00
  1.209303E+00
  1.207002E+00
  1.204701E+00
  1.202399E+00
  1.200098E+00
  1.197797E+00
  1.195496E+00
  1.192876E+00
  1.190116E+00
  1.187357E+00
  1.184598E+00
  1.181838E+00
  1.179079E+00
  1.176128E+00
  1.172974E+00
  1.169820E+00
  1.166667E+00
  1.163513E+00
  1.160360E+00
  1.157026E+00
  1.153565E+00
  1.150105E+00
  1.146645E+00
  1.143186E+00
  1.139726E+00
  1.136071E+00
  1.132413E+00
  1.128756E+00
  1.125099E+00
  1.121442E+00
  1.117698E+00
  1.113909E+00
  1.110120E+00
  1.106332E+00
  1.102545E+00
  1.098640E+00
  1.094659E+00
  1.090678E+00
  1.086698E+00
  1.082719E+00
  1.078524E+00
  1.074274E+00
  1.070026E+00
  1.065778E+00
  1.061487E+00
  1.057058E+00
  1.052630E+00
  1.048201E+00
  1.043773E+00
  1.039235E+00
  1.034684E+00
  1.030133E+00
  1.025582E+00
  1.020844E+00
  1.016053E+00
  1.011262E+00
  1.006471E+00
  1.001523E+00
  9.965505E-01
  9.915787E-01
  9.866171E-01
  9.817111E-01
  9.768063E-01
  9.719027E-01
  9.670116E-01
  9.621304E-01
  9.572523E-01
  9.523028E-01
  9.471497E-01
  9.420039E-01
  9.368386E-01
  9.313573E-01
  9.258879E-01
  9.204112E-01
  9.145688E-01
  9.087409E-01
  9.028024E-01
  8.962737E-01
  8.897596E-01
  8.827967E-01
  8.752533E-01
  8.677227E-01
  8.591942E-01
  8.504864E-01
  8.413249E-01
  8.314016E-01
  8.214454E-01
  8.103305E-01
  7.992197E-01
  7.872423E-01
  7.750593E-01
  7.622835E-01
  7.492452E-01
  7.357872E-01
  7.221361E-01
  7.082081E-01
  6.942018E-01
  6.801248E-01
  6.661022E-01
  6.522537E-01
  6.387236E-01
  6.254436E-01
  6.129118E-01
  6.009533E-01
  5.896200E-01
  5.792466E-01
  5.699771E-01
  5.618528E-01
  5.553277E-01
  5.513902E-01
  5.523185E-01
  5.630178E-01
  5.917125E-01
  6.511324E-01
  7.511073E-01
  8.275850E-01
  7.808336E-01
  8.842908E-01
  1.431335E-01
 -5.746202E-14
  9.891507E-01
  9.889828E-01
  9.888149E-01
  9.886471E-01
  9.884792E-01
  9.883113E-01
  9.881435E-01
  9.879756E-01
  9.878078E-01
  9.873111E-01
  9.868062E-01
  9.863014E-01
  9.857966E-01
  9.852917E-01
  9.847869E-01
  9.842821E-01
  9.836709E-01
  9.828646E-01
  9.820582E-01
  9.812519E-01
  9.804455E-01
  9.796392E-01
  9.788329E-01
  9.779949E-01
  9.769025E-01
  9.758101E-01
  9.747177E-01
  9.736254E-01
  9.725330E-01
  9.714407E-01
  9.702788E-01
  9.688855E-01
  9.674922E-01
  9.660989E-01
  9.647057E-01
  9.633126E-01
  9.619194E-01
  9.603147E-01
  9.586174E-01
  9.569202E-01
  9.552230E-01
  9.535260E-01
  9.518289E-01
  9.499890E-01
  9.479983E-01
  9.460077E-01
  9.440173E-01
  9.420269E-01
  9.400367E-01
  9.378758E-01
  9.355953E-01
  9.333151E-01
  9.310350E-01
  9.287550E-01
  9.264753E-01
  9.239097E-01
  9.213399E-01
  9.187703E-01
  9.162009E-01
  9.136317E-01
  9.108758E-01
  9.080243E-01
  9.051731E-01
  9.023221E-01
  8.994714E-01
  8.964475E-01
  8.933099E-01
  8.901727E-01
  8.870357E-01
  8.838990E-01
  8.805128E-01
  8.770641E-01
  8.736157E-01
  8.701675E-01
  8.666411E-01
  8.628601E-01
  8.590793E-01
  8.552986E-01
  8.515181E-01
  8.474302E-01
  8.433080E-01
  8.391859E-01
  8.350639E-01
  8.306743E-01
  8.262094E-01
  8.217446E-01
  8.172800E-01
  8.125447E-01
  8.077680E-01
  8.029916E-01
  7.981763E-01
  7.931386E-01
  7.881014E-01
  7.830646E-01
  7.778804E-01
  7.726055E-01
  7.673318E-01
  7.619972E-01
  7.564912E-01
  7.509872E-01
  7.454694E-01
  7.397589E-01
  7.340517E-01
  7.283368E-01
  7.224064E-01
  7.164799E-01
  7.105059E-01
  7.042877E-01
  6.980733E-01
  6.917056E-01
  6.851401E-01
  6.785781E-01
  6.716926E-01
  6.647486E-01
  6.576583E-01
  6.503224E-01
  6.429760E-01
  6.352511E-01
  6.275280E-01
  6.194969E-01
  6.113932E-01
  6.030299E-01
  5.945520E-01
  5.858215E-01
  5.769747E-01
  5.678541E-01
  5.586546E-01
  5.491413E-01
  5.395451E-01
  5.297243E-01
  5.197411E-01
  5.096387E-01
  4.992971E-01
  4.888126E-01
  4.781770E-01
  4.673242E-01
  4.562382E-01
  4.449488E-01
  4.334742E-01
  4.219320E-01
  4.107108E-01
  4.007414E-01
  3.936145E-01
  3.924913E-01
  4.006952E-01
  3.975102E-01
  3.581195E-01
  4.023016E-01
  1.655665E-01
 -2.482368E-03
  5.638409E-02
  5.637855E-02
  5.637302E-02
  5.636749E-02
  5.636196E-02
  5.635644E-02
  5.635091E-02
  5.634538E-02
  5.633985E-02
  5.632727E-02
  5.631452E-02
  5.630176E-02
  5.628901E-02
  5.627625E-02
  5.626350E-02
  5.625075E-02
  5.623778E-02
  5.622441E-02
  5.621104E-02
  5.619767E-02
  5.618429E-02
  5.617092E-02
  5.615755E-02
  5.614392E-02
  5.612817E-02
  5.611242E-02
  5.609667E-02
  5.608092E-02
  5.606516E-02
  5.604941E-02
  5.603177E-02
  5.600786E-02
  5.598395E-02
  5.596003E-02
  5.593612E-02
  5.591219E-02
  5.588827E-02
  5.585755E-02
  5.582386E-02
  5.579015E-02
  5.575645E-02
  5.572273E-02
  5.568902E-02
  5.564898E-02
  5.560228E-02
  5.555557E-02
  5.550885E-02
  5.546212E-02
  5.541538E-02
  5.535539E-02
  5.528611E-02
  5.521682E-02
  5.514751E-02
  5.507820E-02
  5.500887E-02
  5.490853E-02
  5.480769E-02
  5.470684E-02
  5.460598E-02
  5.450511E-02
  5.438438E-02
  5.425347E-02
  5.412256E-02
  5.399163E-02
  5.386069E-02
  5.371656E-02
  5.356377E-02
  5.341096E-02
  5.325814E-02
  5.310530E-02
  5.294455E-02
  5.278180E-02
  5.261902E-02
  5.245621E-02
  5.229497E-02
  5.213887E-02
  5.198273E-02
  5.182656E-02
  5.167036E-02
  5.152205E-02
  5.137460E-02
  5.122713E-02
  5.107963E-02
  5.092303E-02
  5.076386E-02
  5.060466E-02
  5.044544E-02
  5.025839E-02
  5.006707E-02
  4.987572E-02
  4.967758E-02
  4.944092E-02
  4.920430E-02
  4.896772E-02
  4.868858E-02
  4.838327E-02
  4.807819E-02
  4.775145E-02
  4.736379E-02
  4.697671E-02
  4.658577E-02
  4.614128E-02
  4.569770E-02
  4.525398E-02
  4.479028E-02
  4.432760E-02
  4.386624E-02
  4.340748E-02
  4.294960E-02
  4.250191E-02
  4.206690E-02
  4.163252E-02
  4.123013E-02
  4.083398E-02
  4.045588E-02
  4.010735E-02
  3.976060E-02
  3.946451E-02
  3.916826E-02
  3.891677E-02
  3.867574E-02
  3.847145E-02
  3.828327E-02
  3.812704E-02
  3.798551E-02
  3.787777E-02
  3.777989E-02
  3.772487E-02
  3.768347E-02
  3.767932E-02
  3.770924E-02
  3.776541E-02
  3.788467E-02
  3.805019E-02
  3.826689E-02
  3.856312E-02
  3.895652E-02
  3.945360E-02
  4.009049E-02
  4.093335E-02
  4.211462E-02
  4.388929E-02
  4.667436E-02
  5.120404E-02
  5.819556E-02
  6.435843E-02
  6.551132E-02
  7.908473E-02
  2.634959E-02
  8.468745E-03
  1.614229E-01
  1.613724E-01
  1.613218E-01
  1.612712E-01
  1.612206E-01
  1.611701E-01
  1.611195E-01
  1.610689E-01
  1.610184E-01
  1.608890E-01
  1.607576E-01
  1.606263E-01
  1.604950E-01
  1.603636E-01
  1.602323E-01
  1.601010E-01
  1.599517E-01
  1.597696E-01
  1.595875E-01
  1.594054E-01
  1.592233E-01
  1.590412E-01
  1.588591E-01
  1.586710E-01
  1.584340E-01
  1.581971E-01
  1.579602E-01
  1.577233E-01
  1.574864E-01
  1.572495E-01
  1.569982E-01
  1.566995E-01
  1.564007E-01
  1.561020E-01
  1.558032E-01
  1.555045E-01
  1.552058E-01
  1.548656E-01
  1.545074E-01
  1.541492E-01
  1.537909E-01
  1.534327E-01
  1.530745E-01
  1.526914E-01
  1.522819E-01
  1.518725E-01
  1.514631E-01
  1.510537E-01
  1.506443E-01
  1.502115E-01
  1.497622E-01
  1.493130E-01
  1.488638E-01
  1.484147E-01
  1.479656E-01
  1.474910E-01
  1.470161E-01
  1.465413E-01
  1.460665E-01
  1.455918E-01
  1.451057E-01
  1.446137E-01
  1.441219E-01
  1.436301E-01
  1.431384E-01
  1.426314E-01
  1.421146E-01
  1.415977E-01
  1.410810E-01
  1.405644E-01
  1.400197E-01
  1.394680E-01
  1.389164E-01
  1.383649E-01
  1.378079E-01
  1.372329E-01
  1.366579E-01
  1.360830E-01
  1.355081E-01
  1.349189E-01
  1.343281E-01
  1.337373E-01
  1.331465E-01
  1.325314E-01
  1.319093E-01
  1.312874E-01
  1.306654E-01
  1.300230E-01
  1.293774E-01
  1.287320E-01
  1.280878E-01
  1.274508E-01
  1.268140E-01
  1.261774E-01
  1.255423E-01
  1.249085E-01
  1.242751E-01
  1.236324E-01
  1.229631E-01
  1.222948E-01
  1.216240E-01
  1.209120E-01
  1.202015E-01
  1.194900E-01
  1.187310E-01
  1.179739E-01
  1.172023E-01
  1.163541E-01
  1.155078E-01
  1.146033E-01
  1.136234E-01
  1.126451E-01
  1.115375E-01
  1.104065E-01
  1.092168E-01
  1.079282E-01
  1.066354E-01
  1.051924E-01
  1.037499E-01
  1.021951E-01
  1.006137E-01
  9.895539E-02
  9.726308E-02
  9.551639E-02
  9.374466E-02
  9.193707E-02
  9.011930E-02
  8.829242E-02
  8.647257E-02
  8.467535E-02
  8.291941E-02
  8.119591E-02
  7.956954E-02
  7.801752E-02
  7.654660E-02
  7.520025E-02
  7.399715E-02
  7.294265E-02
  7.209567E-02
  7.158457E-02
  7.170501E-02
  7.309387E-02
  7.681888E-02
  8.453260E-02
  9.751107E-02
  1.074387E-01
  1.013684E-01
  1.147979E-01
  2.552331E-02
 -1.814722E-09
  9.892810E-01
  9.891132E-01
  9.889453E-01
  9.887775E-01
  9.886097E-01
  9.884419E-01
  9.882741E-01
  9.881063E-01
  9.879385E-01
  9.874420E-01
  9.869373E-01
  9.864327E-01
  9.859280E-01
  9.854234E-01
  9.849187E-01
  9.844141E-01
  9.838031E-01
  9.829970E-01
  9.821910E-01
  9.813849E-01
  9.805789E-01
  9.797729E-01
  9.789669E-01
  9.781292E-01
  9.770372E-01