 Title = "ADflow Slice Data"
Variables =  "CoordinateX"  "CoordinateY"  "CoordinateZ"  "XoC"  "YoC"  "ZoC" "VelocityX" "VelocityY" "VelocityZ" "CoefPressure" "Mach" 
Zone T= "Slice_0001 None Relative Regular z = 0.10000000"
 Nodes =          114  Elements=          106  ZONETYPE=FELINESEG
 DATAPACKING=POINT
  7.301402E-01  5.131671E-02  1.000000E-01  7.450358E-01  4.290783E-02  1.416125E-17  2.719490E-02 -2.853131E-03  5.133755E-04 -3.603510E-01  0.000000E+00
  7.043967E-01  5.387108E-02  1.000000E-01  7.187664E-01  4.551438E-02 -4.248375E-17  2.705511E-02 -2.618534E-03  4.785901E-04 -3.622220E-01  0.000000E+00
  6.775455E-01  5.636646E-02  1.000000E-01  6.913668E-01  4.806073E-02  3.965150E-16  2.641940E-02 -2.447671E-03  4.100140E-04 -3.598348E-01  0.000000E+00
  6.496792E-01  5.892047E-02  1.000000E-01  6.629313E-01  5.066691E-02  4.248375E-17  2.544174E-02 -2.393454E-03  3.051903E-04 -3.622179E-01  0.000000E+00
  6.209097E-01  6.171034E-02  1.000000E-01  6.335742E-01  5.351376E-02 -2.832250E-17  2.441397E-02 -2.443460E-03  1.652420E-04 -3.756299E-01  0.000000E+00
  5.913667E-01  6.481497E-02  1.000000E-01  6.034278E-01  5.668181E-02 -2.832250E-17  2.365513E-02 -2.543025E-03 -4.290254E-06 -4.006753E-01  0.000000E+00
  5.611982E-01  6.822484E-02  1.000000E-01  5.726431E-01  6.016132E-02  0.000000E+00  2.338243E-02 -2.670678E-03 -1.932174E-04 -4.382931E-01  0.000000E+00
  5.305654E-01  7.188464E-02  1.000000E-01  5.413845E-01  6.389588E-02 -5.664500E-17  2.372474E-02 -2.822930E-03 -3.886582E-04 -4.904734E-01  0.000000E+00
  4.996398E-01  7.569815E-02  1.000000E-01  5.098273E-01  6.778728E-02  0.000000E+00  2.476742E-02 -2.980068E-03 -5.763104E-04 -5.581984E-01  0.000000E+00
  4.685986E-01  7.950736E-02  1.000000E-01  4.781520E-01  7.167430E-02  1.416125E-17  2.655326E-02 -3.096017E-03 -7.407299E-04 -6.398736E-01  0.000000E+00
  4.376215E-01  8.310815E-02  1.000000E-01  4.465422E-01  7.534863E-02 -8.496750E-17  2.904962E-02 -3.107093E-03 -8.654604E-04 -7.315395E-01  0.000000E+00
  4.068895E-01  8.629009E-02  1.000000E-01  4.151825E-01  7.859557E-02  0.000000E+00  3.213685E-02 -2.943167E-03 -9.352738E-04 -8.279374E-01  0.000000E+00
  3.765814E-01  8.887077E-02  1.000000E-01  3.842553E-01  8.122896E-02 -5.664500E-17  3.563795E-02 -2.556873E-03 -9.411565E-04 -9.250800E-01  0.000000E+00
  3.468696E-01  9.074434E-02  1.000000E-01  3.539367E-01  8.314080E-02 -5.664500E-17  3.940422E-02 -1.918182E-03 -8.867029E-04 -1.019360E+00  0.000000E+00
  3.179133E-01  9.184507E-02  1.000000E-01  3.243889E-01  8.426401E-02 -2.832250E-17  4.330792E-02 -1.001021E-03 -7.878809E-04 -1.107589E+00  0.000000E+00
  2.898519E-01  9.215018E-02  1.000000E-01  2.957543E-01  8.457535E-02 -4.248375E-17  4.718690E-02  1.877377E-04 -6.647865E-04 -1.190972E+00  0.000000E+00
  2.628044E-01  9.168599E-02  1.000000E-01  2.681544E-01  8.410168E-02  0.000000E+00  5.093892E-02  1.622294E-03 -5.352612E-04 -1.272711E+00  0.000000E+00
  9.800000E-01  8.977084E-03  1.000000E-01  9.999992E-01 -2.966058E-04 -2.832250E-17  1.045376E-02 -1.261352E-02  3.190573E-04 -5.689332E-02  0.000000E+00
  9.720124E-01  1.083893E-02  1.000000E-01  9.918484E-01  1.603269E-03 -2.832250E-17  1.238006E-02 -2.966678E-03  2.322745E-04  6.817516E-02  0.000000E+00
  9.632634E-01  1.287927E-02  1.000000E-01  9.829207E-01  3.685287E-03 -2.832250E-17  1.008964E-02 -2.296964E-03  2.007609E-04  1.939041E-02  0.000000E+00
  9.536907E-01  1.508051E-02  1.000000E-01  9.731525E-01  5.931487E-03 -2.832250E-17  8.849970E-03 -2.023656E-03  1.809279E-04 -3.153107E-03  0.000000E+00
  9.432303E-01  1.742006E-02  1.000000E-01  9.624784E-01  8.318825E-03  1.416125E-17  8.968850E-03 -1.987341E-03  1.791562E-04 -2.695468E-02  0.000000E+00
  9.318220E-01  1.989399E-02  1.000000E-01  9.508371E-01  1.084329E-02  1.416125E-17  1.011978E-02 -2.168753E-03  1.924191E-04 -5.609824E-02  0.000000E+00
  9.194070E-01  2.249732E-02  1.000000E-01  9.381685E-01  1.349979E-02 -8.496750E-17  1.183838E-02 -2.449583E-03  2.152626E-04 -8.680635E-02  0.000000E+00
  9.059278E-01  2.521926E-02  1.000000E-01  9.244140E-01  1.627733E-02 -5.664500E-17  1.378014E-02 -2.740814E-03  2.444270E-04 -1.185251E-01  0.000000E+00
  8.913299E-01  2.804437E-02  1.000000E-01  9.095179E-01  1.916014E-02  0.000000E+00  1.578383E-02 -3.004586E-03  2.786132E-04 -1.514059E-01  0.000000E+00
  8.755643E-01  3.095743E-02  1.000000E-01  8.934303E-01  2.213271E-02 -2.832250E-17  1.777549E-02 -3.224419E-03  3.167652E-04 -1.852175E-01  0.000000E+00
  8.585885E-01  3.393780E-02  1.000000E-01  8.761077E-01  2.517395E-02  4.106763E-16  1.970466E-02 -3.384738E-03  3.574264E-04 -2.190689E-01  0.000000E+00
  8.403666E-01  3.695393E-02  1.000000E-01  8.575136E-01  2.825169E-02  3.965150E-16  2.153519E-02 -3.474108E-03  3.990467E-04 -2.517885E-01  0.000000E+00
  8.208730E-01  3.996883E-02  1.000000E-01  8.376219E-01  3.132817E-02 -8.496750E-17  2.322811E-02 -3.488880E-03  4.397552E-04 -2.824176E-01  0.000000E+00
  8.000947E-01  4.294615E-02  1.000000E-01  8.164192E-01  3.436630E-02 -2.832250E-17  2.472699E-02 -3.428274E-03  4.766694E-04 -3.099702E-01  0.000000E+00
  7.780326E-01  4.584929E-02  1.000000E-01  7.939064E-01  3.732874E-02 -2.832250E-17  2.595266E-02 -3.293521E-03  5.053950E-04 -3.332206E-01  0.000000E+00
  7.547032E-01  4.864632E-02  1.000000E-01  7.701005E-01  4.018290E-02  4.389988E-16  2.680786E-02 -3.093355E-03  5.199691E-04 -3.505646E-01  0.000000E+00
  7.301402E-01  5.131671E-02  1.000000E-01  7.450358E-01  4.290783E-02  2.832250E-17  2.719490E-02 -2.853131E-03  5.133755E-04 -3.603510E-01  0.000000E+00
  2.444131E-01 -8.856721E-03  1.000000E-01  2.493874E-01 -1.849468E-02  3.681925E-16  2.908467E-02  7.122583E-05  2.146046E-04  2.100174E-01  0.000000E+00
  2.700250E-01 -8.859887E-03  1.000000E-01  2.755225E-01 -1.849791E-02 -4.248375E-17  2.980623E-02 -8.658014E-05  2.642762E-04  1.982613E-01  0.000000E+00
  2.967058E-01 -9.029428E-03  1.000000E-01  3.027483E-01 -1.867091E-02 -2.832250E-17  3.081146E-02 -2.063030E-04  3.225769E-04  1.779198E-01  0.000000E+00
  3.243554E-01 -9.261209E-03  1.000000E-01  3.309625E-01 -1.890743E-02  4.248375E-16  3.173706E-02 -1.662750E-04  3.840327E-04  1.494832E-01  0.000000E+00
  3.528511E-01 -9.385344E-03  1.000000E-01  3.600404E-01 -1.903410E-02 -4.248375E-17  3.210250E-02  1.178439E-04  4.376141E-04  1.188586E-01  0.000000E+00
  3.820469E-01 -9.139978E-03  1.000000E-01  3.898324E-01 -1.878372E-02  5.664500E-17  3.152245E-02  6.495061E-04  4.691125E-04  9.461736E-02  0.000000E+00
  4.117740E-01 -8.286319E-03  1.000000E-01  4.201668E-01 -1.791262E-02 -5.664500E-17  2.997642E-02  1.313978E-03  4.675148E-04  8.606875E-02  0.000000E+00
  4.418498E-01 -6.656296E-03  1.000000E-01  4.508569E-01 -1.624931E-02 -2.832250E-17  2.785922E-02  1.912312E-03  4.305190E-04  9.613930E-02  0.000000E+00
  4.721105E-01 -4.294764E-03  1.000000E-01  4.817357E-01 -1.383954E-02 -5.664500E-17  2.597070E-02  2.095035E-03  3.685853E-04  1.337368E-01  0.000000E+00
  5.024968E-01 -1.959541E-03  1.000000E-01  5.127427E-01 -1.145662E-02  1.416125E-17  2.476491E-02  1.887444E-03  2.886675E-04  1.792826E-01  0.000000E+00
  5.328693E-01  1.254184E-04  1.000000E-01  5.437355E-01 -9.329072E-03 -4.248375E-17  2.394982E-02  1.701171E-03  1.892397E-04  1.977976E-01  0.000000E+00
  5.630297E-01  2.167150E-03  1.000000E-01  5.745120E-01 -7.245637E-03  1.416125E-17  2.311741E-02  1.673012E-03  7.690428E-05  1.984950E-01  0.000000E+00
  5.927917E-01  4.338860E-03  1.000000E-01  6.048818E-01 -5.029568E-03  5.664500E-17  2.199783E-02  1.743435E-03 -3.548557E-05  2.028967E-01  0.000000E+00
  6.219828E-01  6.766892E-03  1.000000E-01  6.346693E-01 -2.551942E-03 -4.248375E-17  2.050543E-02  1.823102E-03 -1.347498E-04  2.177739E-01  0.000000E+00
  6.504533E-01  9.449430E-03  1.000000E-01  6.637212E-01  1.853886E-04  5.664500E-17  1.878940E-02  1.809263E-03 -2.101571E-04  2.434844E-01  0.000000E+00
  6.780742E-01  1.220051E-02  1.000000E-01  6.919063E-01  2.992661E-03  4.531600E-16  1.713166E-02  1.655061E-03 -2.579206E-04  2.766091E-01  0.000000E+00
  7.047326E-01  1.475698E-02  1.000000E-01  7.191092E-01  5.601350E-03  0.000000E+00  1.577619E-02  1.401559E-03 -2.825536E-04  3.092189E-01  0.000000E+00
  1.215943E-04  8.929103E-03  1.000000E-01  1.060955E-04 -3.455659E-04 -5.664500E-17 -8.090051E-02  1.460865E-01  1.638818E-04  5.076084E-01  0.000000E+00
  4.902502E-03  3.219624E-03  1.000000E-01  4.984656E-03 -6.171665E-03 -8.496750E-17 -4.060164E-02  4.183270E-02  9.358565E-05  1.019308E+00  0.000000E+00
  1.254908E-02 -4.919810E-04  1.000000E-01  1.278742E-02 -9.959082E-03 -2.832250E-17 -4.540134E-03  3.185695E-03  5.578015E-05  7.021041E-01  0.000000E+00
  2.163699E-02 -2.972113E-03  1.000000E-01  2.206096E-02 -1.248987E-02  1.416125E-17  1.728607E-02 -3.617293E-03  4.390132E-05  4.806545E-01  0.000000E+00
  3.184423E-02 -4.761953E-03  1.000000E-01  3.247668E-02 -1.431627E-02 -2.832250E-17  2.635573E-02 -3.752246E-03  4.223183E-05  4.284291E-01  0.000000E+00
  4.311596E-02 -6.074942E-03  1.000000E-01  4.397865E-02 -1.565608E-02 -8.496750E-17  2.958773E-02 -2.766492E-03  4.390343E-05  3.834856E-01  0.000000E+00
  5.546913E-02 -6.958950E-03  1.000000E-01  5.658414E-02 -1.655814E-02  1.416125E-17  3.051510E-02 -1.864646E-03  4.704793E-05  3.437062E-01  0.000000E+00
  6.891473E-02 -7.633074E-03  1.000000E-01  7.030437E-02 -1.724604E-02 -8.496750E-17  3.076565E-02 -1.383059E-03  5.129849E-05  3.239572E-01  0.000000E+00
  8.348882E-02 -8.210708E-03  1.000000E-01  8.517615E-02 -1.783547E-02  5.664500E-17  3.083808E-02 -1.086778E-03  5.684487E-05  3.051176E-01  0.000000E+00
  9.923792E-02 -8.693969E-03  1.000000E-01  1.012469E-01 -1.832860E-02 -9.912875E-17  3.076674E-02 -7.870084E-04  6.412747E-05  2.809972E-01  0.000000E+00
  1.162051E-01 -9.034831E-03  1.000000E-01  1.185606E-01 -1.867643E-02 -8.496750E-17  3.054357E-02 -4.833226E-04  7.357194E-05  2.595523E-01  0.000000E+00
  1.344203E-01 -9.236994E-03  1.000000E-01  1.371479E-01 -1.888272E-02 -8.496750E-17  3.019772E-02 -2.300418E-04  8.555127E-05  2.454228E-01  0.000000E+00
  1.539027E-01 -9.310538E-03  1.000000E-01  1.570283E-01 -1.895776E-02  4.389988E-16  2.974993E-02 -2.460571E-05  1.005993E-04  2.351870E-01  0.000000E+00
  1.746592E-01 -9.259295E-03  1.000000E-01  1.782087E-01 -1.890547E-02  3.257088E-16  2.927620E-02  1.187990E-04  1.195728E-04  2.276507E-01  0.000000E+00
  1.966815E-01 -9.128352E-03  1.000000E-01  2.006808E-01 -1.877186E-02 -2.832250E-17  2.891274E-02  1.801096E-04  1.437425E-04  2.226508E-01  0.000000E+00
  2.199461E-01 -8.973591E-03  1.000000E-01  2.244207E-01 -1.861393E-02 -4.248375E-17  2.880420E-02  1.650853E-04  1.748035E-04  2.174835E-01  0.000000E+00
  2.444131E-01 -8.856721E-03  1.000000E-01  2.493874E-01 -1.849468E-02  3.823538E-16  2.908467E-02  7.122583E-05  2.146046E-04  2.100174E-01  0.000000E+00
  7.047326E-01  1.475698E-02  1.000000E-01  7.191092E-01  5.601350E-03 -2.832250E-17  1.577619E-02  1.401559E-03 -2.825536E-04  3.092189E-01  0.000000E+00
  7.303325E-01  1.692949E-02  1.000000E-01  7.452320E-01  7.818238E-03 -2.832250E-17  1.485996E-02  1.111938E-03 -2.921430E-04  3.351211E-01  0.000000E+00
  7.547951E-01  1.860941E-02  1.000000E-01  7.701943E-01  9.532467E-03  4.389988E-16  1.444281E-02  8.106600E-04 -2.934249E-04  3.537496E-01  0.000000E+00
  7.780600E-01  1.972875E-02  1.000000E-01  7.939344E-01  1.067468E-02  1.416125E-17  1.453613E-02  4.919428E-04 -2.907383E-04  3.657582E-01  0.000000E+00
  8.000833E-01  2.027058E-02  1.000000E-01  8.164075E-01  1.122756E-02 -4.248375E-17  1.510780E-02  1.393891E-04 -2.864598E-04  3.710862E-01  0.000000E+00
  8.208376E-01  2.025407E-02  1.000000E-01  8.375858E-01  1.121072E-02 -2.832250E-17  1.605683E-02 -2.426531E-04 -2.816880E-04  3.690779E-01  0.000000E+00
  8.403144E-01  1.978400E-02  1.000000E-01  8.574604E-01  1.073105E-02  4.389988E-16  1.719422E-02 -6.075068E-04 -2.768770E-04  3.592719E-01  0.000000E+00
  8.585258E-01  1.902677E-02  1.000000E-01  8.760437E-01  9.958349E-03  3.965150E-16  1.829909E-02 -9.033364E-04 -2.719159E-04  3.444141E-01  0.000000E+00
  8.754993E-01  1.813349E-02  1.000000E-01  8.933640E-01  9.046828E-03 -2.832250E-17  1.921062E-02 -1.116523E-03 -2.662752E-04  3.288204E-01  0.000000E+00
  8.912718E-01  1.719659E-02  1.000000E-01  9.094587E-01  8.090789E-03 -2.832250E-17  1.990483E-02 -1.297677E-03 -2.591873E-04  3.161951E-01  0.000000E+00
  9.058836E-01  1.621852E-02  1.000000E-01  9.243689E-01  7.092738E-03 -4.248375E-17  2.050099E-02 -1.519705E-03 -2.502900E-04  3.072113E-01  0.000000E+00
  9.193796E-01  1.517254E-02  1.000000E-01  9.381405E-01  6.025400E-03 -5.664500E-17  2.118671E-02 -1.801425E-03 -2.405304E-04  2.973552E-01  0.000000E+00
  9.318118E-01  1.406805E-02  1.000000E-01  9.508267E-01  4.898347E-03  4.248375E-17  2.216892E-02 -2.153187E-03 -2.318091E-04  2.840715E-01  0.000000E+00
  9.432349E-01  1.290776E-02  1.000000E-01  9.624831E-01  3.714354E-03 -2.832250E-17  2.352605E-02 -2.595958E-03 -2.254765E-04  2.680568E-01  0.000000E+00
  9.537058E-01  1.169884E-02  1.000000E-01  9.731679E-01  2.480749E-03  0.000000E+00  2.473442E-02 -3.069782E-03 -2.192091E-04  2.438846E-01  0.000000E+00
  9.632829E-01  1.045242E-02  1.000000E-01  9.829406E-01  1.208862E-03 -2.832250E-17  2.434455E-02 -3.405379E-03 -2.049301E-04  2.086710E-01  0.000000E+00
  9.720275E-01  9.207530E-03  1.000000E-01  9.918639E-01 -6.145197E-05  0.000000E+00  2.142740E-02 -3.120390E-03 -1.823658E-04  2.061560E-01  0.000000E+00
  9.800000E-01  7.991939E-03  1.000000E-01  9.999992E-01 -1.301873E-03  1.416125E-17  1.435403E-02  4.636817E-03 -1.877546E-04 -8.830676E-03  0.000000E+00
  1.215943E-04  9.609774E-03  1.000000E-01  1.060955E-04  3.490074E-04 -9.912875E-17  2.215681E-02  4.676949E-02  6.464342E-05  7.510524E-02  0.000000E+00
  7.278129E-05  9.495532E-03  1.000000E-01  5.628542E-05  2.324326E-04  1.416125E-17  1.347296E-02  7.096635E-02  7.818640E-05 -1.602173E-01  0.000000E+00
  1.762252E-05  9.267752E-03  1.000000E-01  0.000000E+00  0.000000E+00  0.000000E+00 -2.509824E-02  1.601162E-01  1.439561E-04 -1.605534E-01  0.000000E+00
  8.694958E-05  9.041992E-03  1.000000E-01  7.074311E-05 -2.303711E-04  0.000000E+00 -8.423143E-02  2.144573E-01  1.960903E-04 -1.016112E-01  0.000000E+00
  1.215943E-04  8.929103E-03  1.000000E-01  1.060955E-04 -3.455659E-04 -4.248375E-17 -8.090051E-02  1.460865E-01  1.638818E-04  5.076084E-01  0.000000E+00
  9.800000E-01  7.991939E-03  1.000000E-01  9.999992E-01 -1.301873E-03  0.000000E+00  1.435403E-02  4.636817E-03 -1.877546E-04 -8.830676E-03  0.000000E+00
  9.800000E-01  8.156130E-03  1.000000E-01  9.999992E-01 -1.134328E-03  0.000000E+00  4.518336E-03 -2.218521E-03 -1.000983E-05 -2.123195E-01  0.000000E+00
  9.800000E-01  8.484511E-03  1.000000E-01  9.999992E-01 -7.992393E-04 -2.832250E-17 -4.630210E-04 -1.712622E-02  2.411133E-04 -1.741039E-01  0.000000E+00
  9.800000E-01  8.812893E-03  1.000000E-01  9.999992E-01 -4.641503E-04 -5.664500E-17  3.310254E-03 -1.979463E-02  3.428870E-04 -1.913174E-01  0.000000E+00
  9.800000E-01  8.977084E-03  1.000000E-01  9.999992E-01 -2.966058E-04  0.000000E+00  1.045376E-02 -1.261352E-02  3.190573E-04 -5.689332E-02  0.000000E+00
  2.628044E-01  9.168599E-02  1.000000E-01  2.681544E-01  8.410168E-02 -2.832250E-17  5.093892E-02  1.622294E-03 -5.352612E-04 -1.272711E+00  0.000000E+00
  2.368706E-01  9.050381E-02  1.000000E-01  2.416908E-01  8.289536E-02  3.681925E-16  5.462211E-02  3.352601E-03 -4.126301E-04 -1.349120E+00  0.000000E+00
  2.121362E-01  8.860824E-02  1.000000E-01  2.164512E-01  8.096107E-02  1.416125E-17  5.823396E-02  5.429849E-03 -3.044923E-04 -1.412220E+00  0.000000E+00
  1.886687E-01  8.603383E-02  1.000000E-01  1.925044E-01  7.833407E-02 -4.248375E-17  6.157646E-02  7.822560E-03 -2.136522E-04 -1.455818E+00  0.000000E+00
  1.665185E-01  8.283110E-02  1.000000E-01  1.699017E-01  7.506593E-02  4.814825E-16  6.439346E-02  1.044935E-02 -1.405560E-04 -1.477098E+00  0.000000E+00
  1.457161E-01  7.907502E-02  1.000000E-01  1.486745E-01  7.123313E-02  4.531600E-16  6.652008E-02  1.321641E-02 -8.423696E-05 -1.478671E+00  0.000000E+00
  1.262764E-01  7.484198E-02  1.000000E-01  1.288377E-01  6.691362E-02  0.000000E+00  6.795797E-02  1.606792E-02 -4.262707E-05 -1.467261E+00  0.000000E+00
  1.081990E-01  7.020664E-02  1.000000E-01  1.103910E-01  6.218361E-02  0.000000E+00  6.879018E-02  1.897087E-02 -1.303116E-05 -1.450230E+00  0.000000E+00
  9.146971E-02  6.524449E-02  1.000000E-01  9.332005E-02  5.712010E-02  0.000000E+00  6.918960E-02  2.208778E-02  7.447052E-06 -1.421106E+00  0.000000E+00
  7.608258E-02  5.996218E-02  1.000000E-01  7.761863E-02  5.172990E-02  0.000000E+00  6.913604E-02  2.559945E-02  2.136467E-05 -1.359635E+00  0.000000E+00
  6.202881E-02  5.435845E-02  1.000000E-01  6.327780E-02  4.601171E-02 -5.664500E-17  6.825351E-02  2.935444E-02  3.057347E-05 -1.249565E+00  0.000000E+00
  4.929579E-02  4.845819E-02  1.000000E-01  5.028470E-02  3.999093E-02 -8.496750E-17  6.615857E-02  3.277328E-02  3.627062E-05 -1.101087E+00  0.000000E+00
  3.782553E-02  4.237943E-02  1.000000E-01  3.858016E-02  3.378800E-02  4.248375E-17  6.309130E-02  3.567435E-02  3.976361E-05 -9.468206E-01  0.000000E+00
  2.757469E-02  3.618183E-02  1.000000E-01  2.811994E-02  2.746382E-02 -2.832250E-17  5.978133E-02  3.844906E-02  4.253148E-05 -8.334313E-01  0.000000E+00
  1.848362E-02  2.994714E-02  1.000000E-01  1.884318E-02  2.110177E-02  5.664500E-17  5.713767E-02  4.285662E-02  4.712772E-05 -7.361356E-01  0.000000E+00
  1.064273E-02  2.355211E-02  1.000000E-01  1.084213E-02  1.457613E-02  1.416125E-17  5.414366E-02  5.055554E-02  5.667612E-05 -5.013947E-01  0.000000E+00
  4.262692E-03  1.684806E-02  1.000000E-01  4.331778E-03  7.735141E-03  1.416125E-17  4.370605E-02  5.806017E-02  6.891545E-05 -5.343733E-02  0.000000E+00
  1.215943E-04  9.609774E-03  1.000000E-01  1.060955E-04  3.490074E-04 -8.496750E-17  2.215681E-02  4.676949E-02  6.464342E-05  7.510524E-02  0.000000E+00
    1    2
    2    3
    3    4
    4    5
    5    6
    6    7
    7    8
    8    9
    9   10
   10   11
   11   12
   12   13
   13   14
   14   15
   15   16
   16   17
   18   19
   19   20
   20   21
   21   22
   22   23
   23   24
   24   25
   25   26
   26   27
   27   28
   28   29
   29   30
   30   31
   31   32
   32   33
   33   34
   35   36
   36   37
   37   38
   38   39
   39   40
   40   41
   41   42
   42   43
   43   44
   44   45
   45   46
   46   47
   47   48
   48   49
   49   50
   50   51
   52   53
   53   54
   54   55
   55   56
   56   57
   57   58
   58   59
   59   60
   60   61
   61   62
   62   63
   63   64
   64   65
   65   66
   66   67
   67   68
   69   70
   70   71
   71   72
   72   73
   73   74
   74   75
   75   76
   76   77
   77   78
   78   79
   79   80
   80   81
   81   82
   82   83
   83   84
   84   85
   85   86
   87   88
   88   89
   89   90
   90   91
   92   93
   93   94
   94   95
   95   96
   97   98
   98   99
   99  100
  100  101
  101  102
  102  103
  103  104
  104  105
  105  106
  106  107
  107  108
  108  109
  109  110
  110  111
  111  112
  112  113
  113  114
Zone T= "Slice_0002 None Relative Regular z = 0.36666667"
 Nodes =          114  Elements=          106  ZONETYPE=FELINESEG
 DATAPACKING=POINT
  7.301402E-01  6.058348E-02  3.666667E-01  7.450345E-01  5.254219E-02 -5.664490E-17  2.775551E-02 -3.520139E-03  9.710234E-04 -4.284278E-01  0.000000E+00
  7.043967E-01  6.371770E-02  3.666667E-01  7.187652E-01  5.574042E-02 -1.132898E-16  2.846373E-02 -3.253170E-03  8.746076E-04 -4.465498E-01  0.000000E+00
  6.775455E-01  6.665753E-02  3.666667E-01  6.913656E-01  5.874029E-02  3.058825E-14  2.878994E-02 -2.977340E-03  7.010561E-04 -4.588826E-01  0.000000E+00
  6.496792E-01  6.942500E-02  3.666667E-01  6.629302E-01  6.156428E-02 -1.699347E-16  2.879358E-02 -2.743519E-03  4.438899E-04 -4.699638E-01  0.000000E+00
  6.209097E-01  7.208402E-02  3.666667E-01  6.335731E-01  6.427761E-02  0.000000E+00  2.862938E-02 -2.567414E-03  1.076946E-04 -4.832082E-01  0.000000E+00
  5.913667E-01  7.466246E-02  3.666667E-01  6.034267E-01  6.690871E-02  1.132898E-16  2.848293E-02 -2.434159E-03 -2.897721E-04 -4.995165E-01  0.000000E+00
  5.611982E-01  7.717033E-02  3.666667E-01  5.726421E-01  6.946781E-02  2.265796E-16  2.849427E-02 -2.338278E-03 -7.198457E-04 -5.206058E-01  0.000000E+00
  5.305654E-01  7.961109E-02  3.666667E-01  5.413836E-01  7.195842E-02  1.132898E-16  2.876564E-02 -2.278073E-03 -1.148107E-03 -5.493984E-01  0.000000E+00
  4.996398E-01  8.198485E-02  3.666667E-01  5.098264E-01  7.438066E-02 -1.699347E-16  2.938702E-02 -2.237478E-03 -1.539532E-03 -5.883164E-01  0.000000E+00
  4.685986E-01  8.425712E-02  3.666667E-01  4.781512E-01  7.669934E-02  1.132898E-16  3.043171E-02 -2.180978E-03 -1.861600E-03 -6.374530E-01  0.000000E+00
  4.376215E-01  8.635621E-02  3.666667E-01  4.465415E-01  7.884130E-02 -5.664490E-17  3.192508E-02 -2.069560E-03 -2.085801E-03 -6.953896E-01  0.000000E+00
  4.068895E-01  8.819254E-02  3.666667E-01  4.151818E-01  8.071514E-02 -5.664490E-17  3.384337E-02 -1.869490E-03 -2.191180E-03 -7.611525E-01  0.000000E+00
  3.765814E-01  8.967695E-02  3.666667E-01  3.842546E-01  8.222986E-02  5.664490E-17  3.614571E-02 -1.566520E-03 -2.169584E-03 -8.364850E-01  0.000000E+00
  3.468696E-01  9.076015E-02  3.666667E-01  3.539360E-01  8.333518E-02 -5.664490E-17  3.885209E-02 -1.121110E-03 -2.033847E-03 -9.208266E-01  0.000000E+00
  3.179133E-01  9.135910E-02  3.666667E-01  3.243884E-01  8.394637E-02  0.000000E+00  4.200338E-02 -4.483789E-04 -1.816637E-03 -1.008732E+00  0.000000E+00
  2.898519E-01  9.137700E-02  3.666667E-01  2.957538E-01  8.396463E-02  5.664490E-17  4.551628E-02  4.972886E-04 -1.554963E-03 -1.097767E+00  0.000000E+00
  2.628044E-01  9.077402E-02  3.666667E-01  2.681539E-01  8.334934E-02  5.664490E-17  4.923850E-02  1.718120E-03 -1.279667E-03 -1.188674E+00  0.000000E+00
  9.800000E-01  1.132648E-02  3.666667E-01  9.999974E-01  2.279175E-03  5.664490E-17  1.052345E-02 -1.299138E-02  5.570382E-04 -6.176269E-02  0.000000E+00
  9.720124E-01  1.337514E-02  3.666667E-01  9.918467E-01  4.369671E-03  0.000000E+00  1.222339E-02 -3.193703E-03  4.661951E-04  6.468647E-02  0.000000E+00
  9.632634E-01  1.562441E-02  3.666667E-01  9.829190E-01  6.664884E-03  1.132898E-16  9.546064E-03 -2.379105E-03  3.999444E-04  1.636540E-02  0.000000E+00
  9.536907E-01  1.805937E-02  3.666667E-01  9.731508E-01  9.149570E-03 -5.664490E-17  8.006670E-03 -2.011118E-03  3.576542E-04 -4.481317E-03  0.000000E+00
  9.432303E-01  2.066033E-02  3.666667E-01  9.624767E-01  1.180366E-02 -1.699347E-16  7.907620E-03 -1.933303E-03  3.526894E-04 -2.717976E-02  0.000000E+00
  9.318220E-01  2.342638E-02  3.666667E-01  9.508354E-01  1.462620E-02 -5.664490E-17  8.910933E-03 -2.118282E-03  3.786329E-04 -5.581536E-02  0.000000E+00
  9.194070E-01  2.635568E-02  3.666667E-01  9.381669E-01  1.761532E-02  0.000000E+00  1.052613E-02 -2.431086E-03  4.244309E-04 -8.647024E-02  0.000000E+00
  9.059278E-01  2.944067E-02  3.666667E-01  9.244123E-01  2.076333E-02 -1.132898E-16  1.237405E-02 -2.766524E-03  4.828545E-04 -1.188034E-01  0.000000E+00
  8.913299E-01  3.266908E-02  3.666667E-01  9.095163E-01  2.405767E-02  0.000000E+00  1.428821E-02 -3.081471E-03  5.509612E-04 -1.531442E-01  0.000000E+00
  8.755643E-01  3.602846E-02  3.666667E-01  8.934288E-01  2.748567E-02 -1.132898E-16  1.623030E-02 -3.364424E-03  6.271571E-04 -1.894043E-01  0.000000E+00
  8.585885E-01  3.950031E-02  3.666667E-01  8.761062E-01  3.102841E-02  3.098476E-14  1.817954E-02 -3.602968E-03  7.086959E-04 -2.269080E-01  0.000000E+00
  8.403666E-01  4.305394E-02  3.666667E-01  8.575121E-01  3.465463E-02  3.098476E-14  2.010087E-02 -3.781629E-03  7.915324E-04 -2.647426E-01  0.000000E+00
  8.208730E-01  4.665112E-02  3.666667E-01  8.376205E-01  3.832528E-02 -5.664490E-17  2.195710E-02 -3.890664E-03  8.706740E-04 -3.022149E-01  0.000000E+00
  8.000947E-01  5.025081E-02  3.666667E-01  8.164178E-01  4.199849E-02 -5.664490E-17  2.370930E-02 -3.923283E-03  9.393461E-04 -3.386096E-01  0.000000E+00
  7.780326E-01  5.380631E-02  3.666667E-01  7.939051E-01  4.562660E-02 -1.132898E-16  2.530664E-02 -3.872741E-03  9.879099E-04 -3.728861E-01  0.000000E+00
  7.547032E-01  5.726746E-02  3.666667E-01  7.700992E-01  4.915845E-02  3.075818E-14  2.668148E-02 -3.735536E-03  1.003545E-03 -4.034541E-01  0.000000E+00
  7.301402E-01  6.058348E-02  3.666667E-01  7.450345E-01  5.254219E-02 -5.664490E-17  2.775551E-02 -3.520139E-03  9.710234E-04 -4.284278E-01  0.000000E+00
  2.444131E-01 -9.806666E-03  3.666667E-01  2.493869E-01 -1.928560E-02  3.092812E-14  3.033229E-02  1.038706E-04  5.443244E-04  1.791324E-01  0.000000E+00
  2.700250E-01 -9.745470E-03  3.666667E-01  2.755220E-01 -1.922315E-02  5.664490E-17  3.122666E-02  3.319889E-05  6.602600E-04  1.614779E-01  0.000000E+00
  2.967058E-01 -9.745776E-03  3.666667E-01  3.027477E-01 -1.922346E-02 -5.664490E-17  3.234010E-02  5.082441E-05  7.955262E-04  1.348598E-01  0.000000E+00
  3.243554E-01 -9.651958E-03  3.666667E-01  3.309620E-01 -1.912773E-02  3.070154E-14  3.319957E-02  2.973618E-04  9.368223E-04  1.007739E-01  0.000000E+00
  3.528511E-01 -9.229227E-03  3.666667E-01  3.600397E-01 -1.869636E-02 -5.664490E-17  3.321946E-02  8.477425E-04  1.058230E-03  6.683919E-02  0.000000E+00
  3.820469E-01 -8.149854E-03  3.666667E-01  3.898318E-01 -1.759495E-02 -1.132898E-16  3.201364E-02  1.627563E-03  1.128380E-03  4.490087E-02  0.000000E+00
  4.117740E-01 -6.176655E-03  3.666667E-01  4.201660E-01 -1.558145E-02  1.132898E-16  2.969505E-02  2.419067E-03  1.125280E-03  4.666241E-02  0.000000E+00
  4.418498E-01 -3.202557E-03  3.666667E-01  4.508561E-01 -1.254661E-02 -1.699347E-16  2.681521E-02  2.990229E-03  1.045600E-03  7.340192E-02  0.000000E+00
  4.721105E-01  6.358821E-04  3.666667E-01  4.817349E-01 -8.629770E-03 -1.132898E-16  2.427090E-02  3.058835E-03  9.093607E-04  1.299614E-01  0.000000E+00
  5.024968E-01  4.471292E-03  3.666667E-01  5.127418E-01 -4.716027E-03  5.664490E-17  2.256521E-02  2.718091E-03  7.331744E-04  1.938444E-01  0.000000E+00
  5.328693E-01  7.956401E-03  3.666667E-01  5.437345E-01 -1.159738E-03 -2.265796E-16  2.144215E-02  2.370227E-03  5.205769E-04  2.294739E-01  0.000000E+00
  5.630297E-01  1.117988E-02  3.666667E-01  5.745110E-01  2.129575E-03  1.132898E-16  2.052247E-02  2.136630E-03  2.855648E-04  2.452155E-01  0.000000E+00
  5.927917E-01  1.422237E-02  3.666667E-01  6.048808E-01  5.234208E-03  0.000000E+00  1.955087E-02  1.973193E-03  5.118303E-05  2.607706E-01  0.000000E+00
  6.219828E-01  1.715352E-02  3.666667E-01  6.346682E-01  8.225223E-03  5.664490E-17  1.842349E-02  1.824457E-03 -1.586006E-04  2.815201E-01  0.000000E+00
  6.504533E-01  1.995256E-02  3.666667E-01  6.637201E-01  1.108143E-02 -1.132898E-16  1.721386E-02  1.631296E-03 -3.249961E-04  3.070594E-01  0.000000E+00
  6.780742E-01  2.248463E-02  3.666667E-01  6.919051E-01  1.366521E-02  3.092812E-14  1.609126E-02  1.372805E-03 -4.408818E-04  3.344193E-01  0.000000E+00
  7.047326E-01  2.459631E-02  3.666667E-01  7.191080E-01  1.582002E-02 -5.664490E-17  1.520949E-02  1.073782E-03 -5.118257E-04  3.587615E-01  0.000000E+00
  1.215943E-04  8.753984E-03  3.666667E-01  1.060953E-04 -3.458650E-04 -2.265796E-16 -7.977475E-02  1.444033E-01  4.163707E-04  5.113524E-01  0.000000E+00
  4.902502E-03  3.030693E-03  3.666667E-01  4.984647E-03 -6.186048E-03  5.664490E-17 -3.994198E-02  4.131271E-02  2.722918E-04  1.017836E+00  0.000000E+00
  1.254908E-02 -7.039931E-04  3.666667E-01  1.278740E-02 -9.997011E-03  2.265796E-16 -4.188246E-03  3.052753E-03  1.727023E-04  6.992004E-01  0.000000E+00
  2.163699E-02 -3.213028E-03  3.666667E-01  2.206092E-02 -1.255729E-02  5.664490E-17  1.754702E-02 -3.730564E-03  1.336427E-04  4.777289E-01  0.000000E+00
  3.184423E-02 -5.037122E-03  3.666667E-01  3.247663E-02 -1.441864E-02  0.000000E+00  2.665520E-02 -3.882514E-03  1.267878E-04  4.253286E-01  0.000000E+00
  4.311596E-02 -6.389987E-03  3.666667E-01  4.397857E-02 -1.579913E-02 -1.132898E-16  2.994816E-02 -2.903087E-03  1.309699E-04  3.798307E-01  0.000000E+00
  5.546913E-02 -7.319935E-03  3.666667E-01  5.658404E-02 -1.674808E-02 -5.664490E-17  3.092651E-02 -2.001222E-03  1.393871E-04  3.392778E-01  0.000000E+00
  6.891473E-02 -8.046389E-03  3.666667E-01  7.030425E-02 -1.748937E-02  1.699347E-16  3.122317E-02 -1.520981E-03  1.507340E-04  3.186486E-01  0.000000E+00
  8.348882E-02 -8.682975E-03  3.666667E-01  8.517600E-02 -1.813895E-02  2.832245E-16  3.134431E-02 -1.226351E-03  1.651641E-04  2.987162E-01  0.000000E+00
  9.923792E-02 -9.231786E-03  3.666667E-01  1.012468E-01 -1.869897E-02 -1.132898E-16  3.132650E-02 -9.255084E-04  1.836582E-04  2.731671E-01  0.000000E+00
  1.162051E-01 -9.644253E-03  3.666667E-01  1.185604E-01 -1.911987E-02  5.664490E-17  3.116202E-02 -6.170797E-04  2.073302E-04  2.499293E-01  0.000000E+00
  1.344203E-01 -9.922675E-03  3.666667E-01  1.371477E-01 -1.940397E-02  0.000000E+00  3.088061E-02 -3.553196E-04  2.370691E-04  2.336347E-01  0.000000E+00
  1.539027E-01 -1.007442E-02  3.666667E-01  1.570280E-01 -1.955882E-02  3.064489E-14  3.050437E-02 -1.362836E-04  2.739349E-04  2.207921E-01  0.000000E+00
  1.746592E-01 -1.009866E-02  3.666667E-01  1.782084E-01 -1.958355E-02  3.109805E-14  3.011460E-02  2.697759E-05  3.198025E-04  2.101222E-01  0.000000E+00
  1.966815E-01 -1.003285E-02  3.666667E-01  2.006805E-01 -1.951639E-02 -1.132898E-16  2.985683E-02  1.159799E-04  3.775402E-04  2.013842E-01  0.000000E+00
  2.199461E-01 -9.920965E-03  3.666667E-01  2.244203E-01 -1.940223E-02 -1.699347E-16  2.988463E-02  1.403190E-04  4.509564E-04  1.917848E-01  0.000000E+00
  2.444131E-01 -9.806666E-03  3.666667E-01  2.493869E-01 -1.928560E-02  3.092812E-14  3.033229E-02  1.038706E-04  5.443244E-04  1.791324E-01  0.000000E+00
  7.047326E-01  2.459631E-02  3.666667E-01  7.191080E-01  1.582002E-02 -5.664490E-17  1.520949E-02  1.073782E-03 -5.118257E-04  3.587615E-01  0.000000E+00