 Title= "ADflow Lift Distribution Data"
Variables = "eta" "CoordinateX" "CoordinateY" "CoordinateZ" "Lift" "Drag" "Moment" "Normalized Lift" "Normalized Drag" "Normalized Moment" "CL" "CD" "CM" "CLp" "CDp" "CMp" "CLv" "CDv" "CMv" "Elliptical" "thickness" "twist" "chord" "fx" "fy" "fz" 
Zone T= "LiftDist_01 allWalls: : z normal"
 I=          150
 DATAPACKING=BLOCK
  0.000000E+00
  6.711405E-03
  1.342281E-02
  2.013422E-02
  2.684563E-02
  3.355704E-02
  4.026845E-02
  4.697986E-02
  5.369127E-02
  6.040268E-02
  6.711409E-02
  7.382550E-02
  8.053691E-02
  8.724832E-02
  9.395973E-02
  1.006711E-01
  1.073825E-01
  1.140940E-01
  1.208054E-01
  1.275168E-01
  1.342282E-01
  1.409396E-01
  1.476510E-01
  1.543624E-01
  1.610738E-01
  1.677852E-01
  1.744966E-01
  1.812081E-01
  1.879195E-01
  1.946309E-01
  2.013423E-01
  2.080537E-01
  2.147651E-01
  2.214765E-01
  2.281879E-01
  2.348993E-01
  2.416107E-01
  2.483221E-01
  2.550336E-01
  2.617450E-01
  2.684564E-01
  2.751678E-01
  2.818792E-01
  2.885906E-01
  2.953020E-01
  3.020134E-01
  3.087248E-01
  3.154362E-01
  3.221476E-01
  3.288591E-01
  3.355705E-01
  3.422819E-01
  3.489933E-01
  3.557047E-01
  3.624161E-01
  3.691275E-01
  3.758389E-01
  3.825503E-01
  3.892617E-01
  3.959732E-01
  4.026846E-01
  4.093960E-01
  4.161074E-01
  4.228188E-01
  4.295302E-01
  4.362416E-01
  4.429530E-01
  4.496644E-01
  4.563758E-01
  4.630872E-01
  4.697987E-01
  4.765101E-01
  4.832215E-01
  4.899329E-01
  4.966443E-01
  5.033557E-01
  5.100671E-01
  5.167785E-01
  5.234899E-01
  5.302013E-01
  5.369128E-01
  5.436242E-01
  5.503356E-01
  5.570470E-01
  5.637584E-01
  5.704698E-01
  5.771812E-01
  5.838926E-01
  5.906040E-01
  5.973154E-01
  6.040268E-01
  6.107383E-01
  6.174497E-01
  6.241611E-01
  6.308725E-01
  6.375839E-01
  6.442953E-01
  6.510067E-01
  6.577181E-01
  6.644295E-01
  6.711409E-01
  6.778524E-01
  6.845638E-01
  6.912752E-01
  6.979866E-01
  7.046980E-01
  7.114094E-01
  7.181208E-01
  7.248322E-01
  7.315436E-01
  7.382550E-01
  7.449664E-01
  7.516779E-01
  7.583893E-01
  7.651007E-01
  7.718121E-01
  7.785235E-01
  7.852349E-01
  7.919463E-01
  7.986577E-01
  8.053691E-01
  8.120805E-01
  8.187919E-01
  8.255034E-01
  8.322148E-01
  8.389262E-01
  8.456376E-01
  8.523490E-01
  8.590604E-01
  8.657718E-01
  8.724832E-01
  8.791946E-01
  8.859060E-01
  8.926175E-01
  8.993289E-01
  9.060403E-01
  9.127517E-01
  9.194631E-01
  9.261745E-01
  9.328859E-01
  9.395973E-01
  9.463087E-01
  9.530201E-01
  9.597315E-01
  9.664430E-01
  9.731544E-01
  9.798658E-01
  9.865772E-01
  9.932886E-01
  1.000000E+00
  0.000000E+00
  0.000000E+00
  0.000000E+00
  0.000000E+00
  0.000000E+00
  0.000000E+00
  0.000000E+00
  0.000000E+00
  0.000000E+00
  0.000000E+00
  0.000000E+00
  0.000000E+00
  0.000000E+00
  0.000000E+00
  0.000000E+00
  0.000000E+00
  0.000000E+00
  0.000000E+00
  0.000000E+00
  0.000000E+00
  0.000000E+00
  0.000000E+00
  0.000000E+00
  0.000000E+00
  0.000000E+00
  0.000000E+00
  0.000000E+00
  0.000000E+00
  0.000000E+00
  0.000000E+00
  0.000000E+00
  0.000000E+00
  0.000000E+00
  0.000000E+00
  0.000000E+00
  0.000000E+00
  0.000000E+00
  0.000000E+00
  0.000000E+00
  0.000000E+00
  0.000000E+00
  0.000000E+00
  0.000000E+00
  0.000000E+00
  0.000000E+00
  0.000000E+00
  0.000000E+00
  0.000000E+00
  0.000000E+00
  0.000000E+00
  0.000000E+00
  0.000000E+00
  0.000000E+00
  0.000000E+00
  0.000000E+00
  0.000000E+00
  0.000000E+00
  0.000000E+00
  0.000000E+00
  0.000000E+00
  0.000000E+00
  0.000000E+00
  0.000000E+00
  0.000000E+00
  0.000000E+00
  0.000000E+00
  0.000000E+00
  0.000000E+00
  0.000000E+00
  0.000000E+00
  0.000000E+00
  0.000000E+00
  0.000000E+00
  0.000000E+00
  0.000000E+00
  0.000000E+00
  0.000000E+00
  0.000000E+00
  0.000000E+00
  0.000000E+00
  0.000000E+00
  0.000000E+00
  0.000000E+00
  0.000000E+00
  0.000000E+00
  0.000000E+00
  0.000000E+00
  0.000000E+00
  0.000000E+00
  0.000000E+00
  0.000000E+00
  0.000000E+00
  0.000000E+00
  0.000000E+00
  0.000000E+00
  0.000000E+00
  0.000000E+00
  0.000000E+00
  0.000000E+00
  0.000000E+00
  0.000000E+00
  0.000000E+00
  0.000000E+00
  0.000000E+00
  0.000000E+00
  0.000000E+00
  0.000000E+00
  0.000000E+00
  0.000000E+00
  0.000000E+00
  0.000000E+00
  0.000000E+00
  0.000000E+00
  0.000000E+00
  0.000000E+00
  0.000000E+00
  0.000000E+00
  0.000000E+00
  0.000000E+00
  0.000000E+00
  0.000000E+00
  0.000000E+00
  0.000000E+00
  0.000000E+00
  0.000000E+00
  0.000000E+00
  0.000000E+00
  0.000000E+00
  0.000000E+00
  0.000000E+00
  0.000000E+00
  0.000000E+00
  0.000000E+00
  0.000000E+00
  0.000000E+00
  0.000000E+00
  0.000000E+00
  0.000000E+00
  0.000000E+00
  0.000000E+00
  0.000000E+00
  0.000000E+00
  0.000000E+00
  0.000000E+00
  0.000000E+00
  0.000000E+00
  0.000000E+00
  0.000000E+00
  0.000000E+00
  0.000000E+00
  0.000000E+00
  0.000000E+00
  0.000000E+00
  0.000000E+00
  0.000000E+00
  0.000000E+00
  0.000000E+00
  0.000000E+00
  0.000000E+00
  0.000000E+00
  0.000000E+00
  0.000000E+00
  0.000000E+00
  0.000000E+00
  0.000000E+00
  0.000000E+00
  0.000000E+00
  0.000000E+00
  0.000000E+00
  0.000000E+00
  0.000000E+00
  0.000000E+00
  0.000000E+00
  0.000000E+00
  0.000000E+00
  0.000000E+00
  0.000000E+00
  0.000000E+00
  0.000000E+00
  0.000000E+00
  0.000000E+00
  0.000000E+00
  0.000000E+00
  0.000000E+00
  0.000000E+00
  0.000000E+00
  0.000000E+00
  0.000000E+00
  0.000000E+00
  0.000000E+00
  0.000000E+00
  0.000000E+00
  0.000000E+00
  0.000000E+00
  0.000000E+00
  0.000000E+00
  0.000000E+00
  0.000000E+00
  0.000000E+00
  0.000000E+00
  0.000000E+00
  0.000000E+00
  0.000000E+00
  0.000000E+00
  0.000000E+00
  0.000000E+00
  0.000000E+00
  0.000000E+00
  0.000000E+00
  0.000000E+00
  0.000000E+00
  0.000000E+00
  0.000000E+00
  0.000000E+00
  0.000000E+00
  0.000000E+00
  0.000000E+00
  0.000000E+00
  0.000000E+00
  0.000000E+00
  0.000000E+00
  0.000000E+00
  0.000000E+00
  0.000000E+00
  0.000000E+00
  0.000000E+00
  0.000000E+00
  0.000000E+00
  0.000000E+00
  0.000000E+00
  0.000000E+00
  0.000000E+00
  0.000000E+00
  0.000000E+00
  0.000000E+00
  0.000000E+00
  0.000000E+00
  0.000000E+00
  0.000000E+00
  0.000000E+00
  0.000000E+00
  0.000000E+00
  0.000000E+00
  0.000000E+00
  0.000000E+00
  0.000000E+00
  0.000000E+00
  0.000000E+00
  0.000000E+00
  0.000000E+00
  0.000000E+00
  0.000000E+00
  0.000000E+00
  0.000000E+00
  0.000000E+00
  0.000000E+00
  0.000000E+00
  0.000000E+00
  0.000000E+00
  0.000000E+00
  0.000000E+00
  0.000000E+00
  0.000000E+00
  0.000000E+00
  0.000000E+00
  0.000000E+00
  0.000000E+00
  0.000000E+00
  0.000000E+00
  0.000000E+00
  0.000000E+00
  0.000000E+00
  0.000000E+00
  0.000000E+00
  0.000000E+00
  0.000000E+00
  0.000000E+00
  0.000000E+00
  0.000000E+00
  0.000000E+00
  0.000000E+00
  0.000000E+00
  0.000000E+00
  0.000000E+00
  0.000000E+00
  0.000000E+00
  0.000000E+00
  0.000000E+00
  0.000000E+00
  0.000000E+00
  0.000000E+00
  0.000000E+00
  0.000000E+00
  0.000000E+00
  0.000000E+00
  0.000000E+00
  0.000000E+00
  0.000000E+00
  0.000000E+00
  0.000000E+00
  1.000000E-08
  1.695085E-02
  3.390169E-02
  5.085254E-02
  6.780338E-02
  8.475423E-02
  1.017051E-01
  1.186559E-01
  1.356068E-01
  1.525576E-01
  1.695085E-01
  1.864593E-01
  2.034101E-01
  2.203610E-01
  2.373118E-01
  2.542627E-01
  2.712135E-01
  2.881644E-01
  3.051152E-01
  3.220661E-01
  3.390169E-01
  3.559678E-01
  3.729186E-01
  3.898694E-01
  4.068203E-01
  4.237711E-01
  4.407220E-01
  4.576728E-01
  4.746237E-01
  4.915745E-01
  5.085254E-01
  5.254762E-01
  5.424271E-01
  5.593779E-01
  5.763287E-01
  5.932796E-01
  6.102304E-01
  6.271813E-01
  6.441321E-01
  6.610830E-01
  6.780338E-01
  6.949847E-01
  7.119355E-01
  7.288864E-01
  7.458372E-01
  7.627880E-01
  7.797389E-01
  7.966897E-01
  8.136406E-01
  8.305914E-01
  8.475423E-01
  8.644931E-01
  8.814440E-01
  8.983948E-01
  9.153457E-01
  9.322965E-01
  9.492473E-01
  9.661982E-01
  9.831490E-01
  1.000100E+00
  1.017051E+00
  1.034002E+00
  1.050952E+00
  1.067903E+00
  1.084854E+00
  1.101805E+00
  1.118756E+00
  1.135707E+00
  1.152657E+00
  1.169608E+00
  1.186559E+00
  1.203510E+00
  1.220461E+00
  1.237412E+00
  1.254363E+00
  1.271313E+00
  1.288264E+00
  1.305215E+00
  1.322166E+00
  1.339117E+00
  1.356068E+00
  1.373018E+00
  1.389969E+00
  1.406920E+00
  1.423871E+00
  1.440822E+00
  1.457773E+00
  1.474724E+00
  1.491674E+00
  1.508625E+00
  1.525576E+00
  1.542527E+00
  1.559478E+00
  1.576429E+00
  1.593379E+00
  1.610330E+00
  1.627281E+00
  1.644232E+00
  1.661183E+00
  1.678134E+00
  1.695085E+00
  1.712035E+00
  1.728986E+00
  1.745937E+00
  1.762888E+00
  1.779839E+00
  1.796790E+00
  1.813740E+00
  1.830691E+00
  1.847642E+00
  1.864593E+00
  1.881544E+00
  1.898495E+00
  1.915446E+00
  1.932396E+00
  1.949347E+00
  1.966298E+00
  1.983249E+00
  2.000200E+00
  2.017151E+00
  2.034101E+00
  2.051052E+00
  2.068003E+00
  2.084954E+00
  2.101905E+00
  2.118856E+00
  2.135807E+00
  2.152757E+00
  2.169708E+00
  2.186659E+00
  2.203610E+00
  2.220561E+00
  2.237512E+00
  2.254462E+00
  2.271413E+00
  2.288364E+00
  2.305315E+00
  2.322266E+00
  2.339217E+00
  2.356168E+00
  2.373118E+00
  2.390069E+00
  2.407020E+00
  2.423971E+00
  2.440922E+00
  2.457873E+00
  2.474823E+00
  2.491774E+00
  2.508725E+00
  2.525676E+00
  1.097677E+04
  1.097457E+04
  1.097238E+04
  1.097019E+04
  1.096800E+04
  1.096582E+04
  1.096363E+04
  1.096145E+04
  1.095927E+04
  1.095184E+04
  1.094428E+04
  1.093673E+04
  1.092918E+04
  1.092163E+04
  1.091408E+04
  1.090653E+04
  1.089722E+04
  1.088467E+04
  1.087213E+04
  1.085958E+04
  1.084704E+04
  1.083450E+04
  1.082196E+04
  1.080908E+04
  1.079340E+04
  1.077772E+04
  1.076205E+04
  1.074638E+04
  1.073071E+04
  1.071504E+04
  1.069869E+04
  1.068008E+04
  1.066147E+04
  1.064286E+04
  1.062426E+04
  1.060566E+04
  1.058706E+04
  1.056644E+04
  1.054495E+04
  1.052346E+04
  1.050198E+04
  1.048049E+04
  1.045901E+04
  1.043638E+04
  1.041254E+04
  1.038870E+04
  1.036486E+04
  1.034103E+04
  1.031720E+04
  1.029229E+04
  1.026663E+04
  1.024098E+04
  1.021533E+04
  1.018968E+04
  1.016403E+04
  1.013694E+04
  1.010983E+04
  1.008273E+04
  1.005562E+04
  1.002852E+04
  1.000069E+04
  9.972479E+03
  9.944274E+03
  9.916070E+03
  9.887867E+03
  9.859063E+03
  9.829865E+03
  9.800668E+03
  9.771473E+03
  9.742280E+03
  9.712007E+03
  9.681464E+03
  9.650923E+03
  9.620385E+03
  9.589381E+03
  9.556861E+03
  9.524343E+03
  9.491828E+03
  9.459317E+03
  9.424439E+03
  9.389300E+03
  9.354165E+03
  9.319034E+03
  9.281375E+03
  9.243008E+03
  9.204647E+03
  9.166290E+03
  9.124566E+03
  9.082332E+03
  9.040104E+03
  8.997209E+03
  8.950493E+03
  8.903786E+03
  8.857088E+03
  8.807331E+03
  8.755690E+03
  8.704062E+03
  8.651081E+03
  8.594283E+03
  8.537508E+03
  8.480361E+03
  8.418415E+03
  8.356501E+03
  8.294370E+03
  8.227352E+03
  8.160369E+03
  8.092568E+03
  8.020670E+03
  7.948806E+03
  7.874918E+03
  7.798422E+03
  7.721957E+03
  7.641821E+03
  7.561020E+03
  7.478719E+03
  7.393906E+03
  7.308995E+03
  7.220432E+03
  7.131893E+03
  7.040465E+03
  6.948364E+03
  6.853836E+03
  6.758244E+03
  6.660095E+03
  6.560777E+03
  6.458379E+03
  6.355104E+03
  6.248061E+03
  6.140007E+03
  6.029179E+03
  5.916322E+03
  5.801980E+03
  5.684613E+03
  5.565436E+03
  5.444338E+03
  5.320458E+03
  5.193537E+03
  5.063910E+03
  4.931706E+03
  4.798213E+03
  4.667876E+03
  4.551406E+03
  4.467125E+03
  4.451181E+03
  4.540588E+03
  4.499706E+03
  4.059954E+03
  4.573521E+03
  1.298282E+03
 -2.264073E-04
  6.010861E+02
  6.011612E+02
  6.012366E+02
  6.013122E+02
  6.013882E+02
  6.014644E+02
  6.015409E+02
  6.016177E+02
  6.016948E+02
  6.016954E+02
  6.016945E+02
  6.016941E+02
  6.016940E+02
  6.016944E+02
  6.016951E+02
  6.016963E+02
  6.016206E+02
  6.014035E+02
  6.011868E+02
  6.009705E+02
  6.007547E+02
  6.005392E+02
  6.003241E+02
  6.001028E+02
  5.998291E+02
  5.995559E+02
  5.992831E+02
  5.990108E+02
  5.987389E+02
  5.984675E+02
  5.981933E+02
  5.979091E+02
  5.976254E+02
  5.973422E+02
  5.970595E+02
  5.967774E+02
  5.964957E+02
  5.962639E+02
  5.960542E+02
  5.958450E+02
  5.956363E+02
  5.954282E+02
  5.952206E+02
  5.950802E+02
  5.950107E+02
  5.949417E+02
  5.948731E+02
  5.948050E+02
  5.947373E+02
  5.947123E+02
  5.947171E+02
  5.947221E+02
  5.947274E+02
  5.947329E+02
  5.947386E+02
  5.946490E+02
  5.945578E+02
  5.944666E+02
  5.943753E+02
  5.942840E+02
  5.940535E+02
  5.937514E+02
  5.934491E+02
  5.931467E+02
  5.928441E+02
  5.923763E+02
  5.918002E+02
  5.912241E+02
  5.906478E+02
  5.900714E+02
  5.892205E+02
  5.883009E+02
  5.873816E+02
  5.864625E+02
  5.854585E+02
  5.841787E+02
  5.828996E+02
  5.816211E+02
  5.803434E+02
  5.787830E+02
  5.771921E+02
  5.756024E+02
  5.740138E+02
  5.722585E+02
  5.704573E+02
  5.686574E+02
  5.668590E+02
  5.649866E+02
  5.631040E+02
  5.612228E+02
  5.593425E+02
  5.574611E+02
  5.555811E+02
  5.537023E+02
  5.518056E+02
  5.498985E+02
  5.479927E+02
  5.460605E+02
  5.440525E+02
  5.420461E+02
  5.400272E+02
  5.378358E+02
  5.356467E+02
  5.334432E+02
  5.309122E+02
  5.283836E+02
  5.257775E+02
  5.227870E+02
  5.197987E+02
  5.166117E+02
  5.131693E+02
  5.097289E+02
  5.059782E+02
  5.021708E+02
  4.982686E+02
  4.942074E+02
  4.901429E+02
  4.859395E+02
  4.817369E+02
  4.775562E+02
  4.733804E+02
  4.693703E+02
  4.654322E+02
  4.617636E+02
  4.582171E+02
  4.550520E+02
  4.519934E+02
  4.494983E+02
  4.471859E+02
  4.453947E+02
  4.440831E+02
  4.431310E+02
  4.430501E+02
  4.435649E+02
  4.447254E+02
  4.468630E+02
  4.501290E+02
  4.545467E+02
  4.604833E+02
  4.686333E+02
  4.804323E+02
  4.986754E+02
  5.279285E+02
  5.761077E+02
  6.504137E+02
  7.141659E+02
  7.254335E+02
  8.723421E+02
  1.890041E+02
  3.806501E-04
  1.802385E+03
  1.800416E+03
  1.798447E+03
  1.796478E+03
  1.794511E+03
  1.792543E+03
  1.790576E+03
  1.788610E+03
  1.786644E+03
  1.781771E+03
  1.776827E+03
  1.771883E+03
  1.766939E+03
  1.761997E+03
  1.757054E+03
  1.752113E+03
  1.746710E+03
  1.740461E+03
  1.734212E+03
  1.727963E+03
  1.721716E+03
  1.715468E+03
  1.709295E+03
  1.702945E+03
  1.695763E+03
  1.688581E+03
  1.681400E+03
  1.674220E+03
  1.667040E+03
  1.659861E+03
  1.652481E+03
  1.644435E+03
  1.636390E+03
  1.628345E+03
  1.620301E+03
  1.612258E+03
  1.604215E+03
  1.595750E+03
  1.587101E+03
  1.578453E+03
  1.569805E+03
  1.561158E+03
  1.552512E+03
  1.543831E+03
  1.535113E+03
  1.526396E+03
  1.517679E+03
  1.508964E+03
  1.500249E+03
  1.491919E+03
  1.483858E+03
  1.475798E+03
  1.467738E+03
  1.459679E+03
  1.451621E+03
  1.444911E+03
  1.438223E+03
  1.431535E+03
  1.424848E+03
  1.418160E+03
  1.412692E+03
  1.407849E+03
  1.403006E+03
  1.398163E+03
  1.393321E+03
  1.389672E+03
  1.386806E+03
  1.383941E+03
  1.381076E+03
  1.378211E+03
  1.376832E+03
  1.375826E+03
  1.374820E+03
  1.373815E+03
  1.373182E+03
  1.373757E+03
  1.374332E+03
  1.374908E+03
  1.375486E+03
  1.376959E+03
  1.378533E+03
  1.380109E+03
  1.381687E+03
  1.383330E+03
  1.384992E+03
  1.386657E+03
  1.388324E+03
  1.389308E+03
  1.390190E+03
  1.391075E+03
  1.391744E+03
  1.391178E+03
  1.390616E+03
  1.390056E+03
  1.388151E+03
  1.385488E+03
  1.382829E+03
  1.379491E+03
  1.374244E+03
  1.369003E+03
  1.363578E+03
  1.355835E+03
  1.348100E+03
  1.340274E+03
  1.330454E+03
  1.320645E+03
  1.310541E+03
  1.298973E+03
  1.287415E+03
  1.275204E+03
  1.262152E+03
  1.249111E+03
  1.235047E+03
  1.220799E+03
  1.206196E+03
  1.190999E+03
  1.175782E+03
  1.159762E+03
  1.143750E+03
  1.127137E+03
  1.110385E+03
  1.093243E+03
  1.075931E+03
  1.058348E+03
  1.040642E+03
  1.022734E+03
  1.004769E+03
  9.867732E+02
  9.688487E+02
  9.511466E+02
  9.338303E+02
  9.168148E+02
  9.006947E+02
  8.852443E+02
  8.705176E+02
  8.568822E+02
  8.444706E+02
  8.333435E+02
  8.241034E+02
  8.181422E+02
  8.188740E+02
  8.335835E+02
  8.745589E+02
  9.605919E+02
  1.105807E+03
  1.216879E+03
  1.153711E+03
  1.312940E+03
  1.829100E+02
 -1.878857E-10
  1.239879E+00
  1.239631E+00
  1.239383E+00
  1.239136E+00
  1.238889E+00
  1.238642E+00
  1.238395E+00
  1.238148E+00
  1.237902E+00
  1.237063E+00
  1.236209E+00
  1.235356E+00
  1.234503E+00
  1.233650E+00
  1.232798E+00
  1.231945E+00
  1.230893E+00
  1.229476E+00
  1.228059E+00
  1.226642E+00
  1.225226E+00
  1.223809E+00
  1.222393E+00
  1.220938E+00
  1.219167E+00
  1.217396E+00
  1.215625E+00
  1.213855E+00
  1.212085E+00
  1.210315E+00
  1.208469E+00
  1.206366E+00
  1.204264E+00
  1.202163E+00
  1.200061E+00
  1.197960E+00
  1.195859E+00
  1.193531E+00
  1.191103E+00
  1.188676E+00
  1.186249E+00
  1.183822E+00
  1.181396E+00
  1.178840E+00
  1.176146E+00
  1.173454E+00
  1.170761E+00
  1.168069E+00
  1.165377E+00
  1.162564E+00
  1.159666E+00
  1.156768E+00
  1.153870E+00
  1.150973E+00
  1.148076E+00
  1.145016E+00
  1.141954E+00
  1.138892E+00
  1.135831E+00
  1.132770E+00
  1.129626E+00
  1.126440E+00
  1.123254E+00
  1.120068E+00
  1.116882E+00
  1.113629E+00
  1.110331E+00
  1.107033E+00
  1.103735E+00
  1.100437E+00
  1.097018E+00
  1.093568E+00
  1.090118E+00
  1.086669E+00
  1.083167E+00
  1.079493E+00
  1.075820E+00
  1.072148E+00
  1.068475E+00
  1.064536E+00
  1.060567E+00
  1.056598E+00
  1.052630E+00
  1.048376E+00
  1.044042E+00
  1.039709E+00
  1.035377E+00
  1.030664E+00
  1.025893E+00
  1.021123E+00
  1.016278E+00
  1.011001E+00
  1.005725E+00
  1.000451E+00
  9.948304E-01
  9.889973E-01
  9.831657E-01
  9.771813E-01
  9.707657E-01
  9.643526E-01
  9.578976E-01
  9.509005E-01
  9.439069E-01
  9.368891E-01
  9.293190E-01
  9.217529E-01
  9.140945E-01
  9.059732E-01
  8.978559E-01
  8.895098E-01
  8.808692E-01
  8.722322E-01
  8.631805E-01
  8.540536E-01
  8.447573E-01
  8.351773E-01
  8.255861E-01
  8.155825E-01
  8.055816E-01
  7.952543E-01
  7.848511E-01
  7.741738E-01
  7.633761E-01
  7.522898E-01
  7.410713E-01
  7.295050E-01
  7.178396E-01
  7.057486E-01
  6.935433E-01
  6.810248E-01
  6.682771E-01
  6.553615E-01
  6.421044E-01
  6.286428E-01
  6.149642E-01
  6.009713E-01
  5.866350E-01
  5.719930E-01
  5.570600E-01
  5.419813E-01
  5.272590E-01
  5.141033E-01
  5.045832E-01
  5.027823E-01
  5.128813E-01
  5.082634E-01
  4.585913E-01
  5.166012E-01
  1.466472E-01
 -2.557379E-08
  1.077462E+00
  1.077596E+00
  1.077731E+00
  1.077867E+00
  1.078003E+00
  1.078140E+00
  1.078277E+00
  1.078415E+00
  1.078553E+00
  1.078554E+00
  1.078552E+00
  1.078552E+00
  1.078551E+00
  1.078552E+00
  1.078553E+00
  1.078556E+00
  1.078420E+00
  1.078031E+00
  1.077642E+00
  1.077255E+00
  1.076868E+00
  1.076481E+00
  1.076096E+00
  1.075699E+00
  1.075209E+00
  1.074719E+00
  1.074230E+00
  1.073742E+00
  1.073254E+00
  1.072768E+00
  1.072276E+00
  1.071767E+00
  1.071258E+00
  1.070751E+00
  1.070244E+00
  1.069738E+00
  1.069233E+00
  1.068818E+00
  1.068442E+00
  1.068067E+00
  1.067693E+00
  1.067320E+00
  1.066948E+00
  1.066696E+00
  1.066571E+00
  1.066448E+00
  1.066325E+00
  1.066203E+00
  1.066081E+00
  1.066037E+00
  1.066045E+00
  1.066054E+00
  1.066064E+00
  1.066073E+00
  1.066084E+00
  1.065923E+00
  1.065760E+00
  1.065596E+00
  1.065433E+00
  1.065269E+00
  1.064856E+00
  1.064314E+00
  1.063772E+00
  1.063230E+00
  1.062688E+00
  1.061849E+00
  1.060817E+00
  1.059784E+00
  1.058751E+00
  1.057718E+00
  1.056192E+00
  1.054544E+00
  1.052896E+00
  1.051249E+00
  1.049449E+00
  1.047155E+00
  1.044862E+00
  1.042570E+00
  1.040280E+00
  1.037483E+00
  1.034631E+00
  1.031782E+00
  1.028934E+00
  1.025788E+00
  1.022559E+00
  1.019333E+00
  1.016109E+00
  1.012752E+00
  1.009378E+00
  1.006006E+00
  1.002635E+00
  9.992629E-01
  9.958929E-01
  9.925251E-01
  9.891252E-01
  9.857067E-01
  9.822905E-01
  9.788270E-01
  9.752275E-01
  9.716311E-01
  9.680121E-01
  9.640841E-01
  9.601600E-01
  9.562101E-01
  9.516733E-01
  9.471408E-01
  9.424692E-01
  9.371086E-01
  9.317521E-01
  9.260393E-01
  9.198686E-01
  9.137018E-01
  9.069785E-01
  9.001536E-01
  8.931588E-01
  8.858790E-01
  8.785933E-01
  8.710585E-01
  8.635253E-01
  8.560313E-01
  8.485460E-01
  8.413579E-01
  8.342988E-01
  8.277228E-01
  8.213655E-01
  8.156920E-01
  8.102095E-01
  8.057368E-01
  8.015918E-01
  7.983810E-01
  7.960300E-01
  7.943233E-01
  7.941782E-01
  7.951010E-01
  7.971812E-01
  8.010130E-01
  8.068674E-01
  8.147863E-01
  8.254277E-01
  8.400368E-01
  8.611868E-01
  8.938881E-01
  9.463250E-01
  1.032687E+00
  1.165883E+00
  1.280160E+00
  1.300358E+00
  1.563695E+00
  3.387946E-01
  6.823247E-07
  1.306919E+00
  1.305491E+00
  1.304063E+00
  1.302636E+00
  1.301209E+00
  1.299783E+00
  1.298357E+00
  1.296931E+00
  1.295505E+00
  1.291972E+00
  1.288386E+00
  1.284802E+00
  1.281217E+00
  1.277633E+00
  1.274050E+00
  1.270467E+00
  1.266549E+00
  1.262017E+00
  1.257486E+00
  1.252956E+00
  1.248425E+00
  1.243895E+00
  1.239419E+00
  1.234814E+00
  1.229607E+00
  1.224399E+00
  1.219192E+00
  1.213986E+00
  1.208780E+00
  1.203574E+00
  1.198223E+00
  1.192389E+00
  1.186555E+00
  1.180722E+00
  1.174889E+00
  1.169057E+00
  1.163225E+00
  1.157087E+00
  1.150815E+00
  1.144544E+00
  1.138274E+00
  1.132004E+00
  1.125735E+00
  1.119440E+00
  1.113119E+00
  1.106798E+00
  1.100478E+00
  1.094158E+00
  1.087839E+00
  1.081798E+00
  1.075953E+00
  1.070109E+00
  1.064265E+00
  1.058421E+00
  1.052578E+00
  1.047713E+00
  1.042863E+00
  1.038014E+00
  1.033165E+00
  1.028316E+00
  1.024351E+00
  1.020839E+00
  1.017327E+00
  1.013816E+00
  1.010304E+00
  1.007658E+00
  1.005581E+00
  1.003503E+00
  1.001425E+00
  9.993480E-01
  9.983480E-01
  9.976185E-01
  9.968895E-01
  9.961610E-01
  9.957020E-01
  9.961183E-01
  9.965355E-01
  9.969535E-01
  9.973724E-01
  9.984401E-01
  9.995817E-01
  1.000725E+00
  1.001869E+00
  1.003060E+00
  1.004265E+00
  1.005472E+00
  1.006681E+00
  1.007395E+00
  1.008034E+00
  1.008676E+00
  1.009161E+00
  1.008751E+00
  1.008343E+00
  1.007937E+00
  1.006556E+00
  1.004625E+00
  1.002696E+00
  1.000276E+00
  9.964716E-01
  9.926713E-01
  9.887375E-01
  9.831231E-01
  9.775147E-01
  9.718397E-01
  9.647196E-01
  9.576067E-01
  9.502805E-01
  9.418923E-01
  9.335118E-01
  9.246575E-01
  9.151936E-01
  9.057371E-01
  8.955392E-01
  8.852079E-01
  8.746196E-01
  8.635995E-01
  8.525656E-01
  8.409497E-01
  8.293393E-01
  8.172930E-01
  8.051461E-01
  7.927165E-01
  7.801634E-01
  7.674141E-01
  7.545753E-01
  7.415896E-01
  7.285630E-01
  7.155145E-01
  7.025174E-01
  6.896816E-01
  6.771254E-01
  6.647874E-01
  6.530986E-01
  6.418954E-01
  6.312170E-01
  6.213299E-01
  6.123302E-01
  6.042619E-01
  5.975618E-01
  5.932393E-01
  5.937699E-01
  6.044359E-01
  6.341474E-01
  6.965303E-01
  8.018269E-01
  8.823656E-01
  8.365623E-01
  9.520201E-01
  1.326290E-01
 -1.362369E-13
  9.814925E-01
  9.812965E-01
  9.811008E-01
  9.809051E-01
  9.807096E-01
  9.805142E-01
  9.803189E-01
  9.801238E-01
  9.799288E-01
  9.792647E-01
  9.785893E-01
  9.779139E-01
  9.772388E-01
  9.765637E-01
  9.758889E-01
  9.752142E-01
  9.743817E-01
  9.732599E-01
  9.721382E-01
  9.710167E-01
  9.698954E-01
  9.687742E-01
  9.676531E-01
  9.665009E-01
  9.650989E-01
  9.636971E-01
  9.622955E-01
  9.608941E-01
  9.594928E-01
  9.580917E-01
  9.566298E-01
  9.549654E-01
  9.533012E-01
  9.516372E-01
  9.499734E-01
  9.483098E-01
  9.466464E-01
  9.448030E-01
  9.428810E-01
  9.409592E-01
  9.390376E-01
  9.371163E-01
  9.351952E-01
  9.331713E-01
  9.310389E-01
  9.289068E-01
  9.267749E-01
  9.246432E-01
  9.225118E-01
  9.202843E-01
  9.179896E-01
  9.156950E-01
  9.134007E-01
  9.111066E-01
  9.088128E-01
  9.063903E-01
  9.039660E-01
  9.015418E-01
  8.991178E-01
  8.966940E-01
  8.942050E-01
  8.916827E-01
  8.891605E-01
  8.866385E-01
  8.841166E-01
  8.815410E-01
  8.789304E-01
  8.763199E-01
  8.737096E-01
  8.710994E-01
  8.683929E-01
  8.656623E-01
  8.629320E-01
  8.602018E-01
  8.574301E-01
  8.545229E-01
  8.516160E-01
  8.487094E-01
  8.458029E-01
  8.426851E-01
  8.395439E-01
  8.364030E-01
  8.332624E-01
  8.298958E-01
  8.264658E-01
  8.230363E-01
  8.196072E-01
  8.158770E-01
  8.121011E-01
  8.083257E-01
  8.044906E-01
  8.003138E-01
  7.961377E-01
  7.919624E-01
  7.875133E-01
  7.828955E-01
  7.782790E-01
  7.735413E-01
  7.684623E-01
  7.633853E-01
  7.582749E-01
  7.527355E-01
  7.471987E-01
  7.416426E-01
  7.356495E-01
  7.296594E-01
  7.235962E-01
  7.171667E-01
  7.107402E-01
  7.041326E-01
  6.972919E-01
  6.904540E-01
  6.832879E-01
  6.760622E-01
  6.687025E-01
  6.611183E-01
  6.535251E-01
  6.456056E-01
  6.376882E-01
  6.295125E-01
  6.212768E-01
  6.128242E-01
  6.042765E-01
  5.955005E-01
  5.866201E-01
  5.774646E-01
  5.682308E-01
  5.586605E-01
  5.489998E-01
  5.390914E-01
  5.290016E-01
  5.187791E-01
  5.082863E-01
  4.976315E-01
  4.868049E-01
  4.757293E-01
  4.643817E-01
  4.527920E-01
  4.409715E-01
  4.290354E-01
  4.173808E-01
  4.069658E-01
  3.994285E-01
  3.980011E-01
  4.059931E-01
  4.023347E-01
  3.630117E-01
  4.089267E-01
  1.594473E-01
 -4.922958E-03
  5.374638E-02
  5.375310E-02
  5.375985E-02
  5.376662E-02
  5.377342E-02
  5.378024E-02
  5.378709E-02
  5.379397E-02
  5.380087E-02
  5.380093E-02
  5.380086E-02
  5.380082E-02
  5.380082E-02
  5.380086E-02
  5.380094E-02
  5.380105E-02
  5.379428E-02
  5.377488E-02
  5.375551E-02
  5.373617E-02
  5.371687E-02
  5.369761E-02
  5.367837E-02
  5.365859E-02
  5.363411E-02
  5.360967E-02
  5.358528E-02
  5.356092E-02
  5.353660E-02
  5.351233E-02
  5.348781E-02
  5.346238E-02
  5.343700E-02
  5.341167E-02
  5.338638E-02
  5.336114E-02
  5.333594E-02
  5.331519E-02
  5.329642E-02
  5.327769E-02
  5.325902E-02
  5.324038E-02
  5.322180E-02
  5.320922E-02
  5.320298E-02
  5.319678E-02
  5.319062E-02
  5.318450E-02
  5.317842E-02
  5.317614E-02
  5.317654E-02
  5.317696E-02
  5.317739E-02
  5.317785E-02
  5.317833E-02
  5.317029E-02
  5.316211E-02
  5.315392E-02
  5.314574E-02
  5.313754E-02
  5.311691E-02
  5.308989E-02
  5.306285E-02
  5.303580E-02
  5.300873E-02
  5.296690E-02
  5.291540E-02
  5.286389E-02
  5.281237E-02
  5.276084E-02
  5.268478E-02
  5.260258E-02
  5.252040E-02
  5.243825E-02
  5.234851E-02
  5.223411E-02
  5.211978E-02
  5.200550E-02
  5.189129E-02
  5.175182E-02
  5.160961E-02
  5.146750E-02
  5.132550E-02
  5.116859E-02
  5.100758E-02
  5.084668E-02
  5.068590E-02
  5.051852E-02
  5.035022E-02
  5.018203E-02
  5.001393E-02
  4.984573E-02
  4.967764E-02
  4.950965E-02
  4.934006E-02
  4.916952E-02
  4.899910E-02
  4.882631E-02
  4.864673E-02
  4.846731E-02
  4.828675E-02
  4.809077E-02
  4.789499E-02
  4.769792E-02
  4.747157E-02
  4.724543E-02
  4.701235E-02
  4.674490E-02
  4.647765E-02
  4.619263E-02
  4.588477E-02
  4.557710E-02
  4.524167E-02
  4.490118E-02
  4.455221E-02
  4.418902E-02
  4.382555E-02
  4.344965E-02
  4.307383E-02
  4.269997E-02
  4.232654E-02
  4.196795E-02
  4.161580E-02
  4.128777E-02
  4.097066E-02
  4.068767E-02
  4.041422E-02
  4.019117E-02
  3.998448E-02
  3.982440E-02
  3.970722E-02
  3.962218E-02
  3.961505E-02
  3.966119E-02
  3.976507E-02
  3.995630E-02
  4.024843E-02
  4.064351E-02
  4.117439E-02
  4.190315E-02
  4.295813E-02
  4.458926E-02
  4.720479E-02
  5.151251E-02
  5.815623E-02
  6.385611E-02
  6.486301E-02
  7.799767E-02
  2.321237E-02
  8.276785E-03
  1.611610E-01
  1.609850E-01
  1.608090E-01
  1.606330E-01
  1.604571E-01
  1.602812E-01
  1.601053E-01
  1.599295E-01
  1.597537E-01
  1.593180E-01
  1.588759E-01
  1.584339E-01
  1.579919E-01
  1.575500E-01
  1.571081E-01
  1.566663E-01
  1.561832E-01
  1.556244E-01
  1.550657E-01
  1.545070E-01
  1.539483E-01
  1.533897E-01
  1.528377E-01
  1.522699E-01
  1.516277E-01
  1.509856E-01
  1.503434E-01
  1.497014E-01
  1.490594E-01
  1.484174E-01
  1.477576E-01
  1.470381E-01
  1.463187E-01
  1.455993E-01
  1.448800E-01
  1.441608E-01
  1.434416E-01
  1.426847E-01
  1.419113E-01
  1.411379E-01
  1.403646E-01
  1.395914E-01
  1.388182E-01
  1.380419E-01
  1.372624E-01
  1.364829E-01
  1.357034E-01
  1.349240E-01
  1.341447E-01
  1.333998E-01
  1.326789E-01
  1.319582E-01
  1.312374E-01
  1.305167E-01
  1.297961E-01
  1.291961E-01
  1.285980E-01
  1.280000E-01
  1.274019E-01
  1.268039E-01
  1.263150E-01
  1.258819E-01
  1.254488E-01
  1.250158E-01
  1.245828E-01
  1.242565E-01
  1.240003E-01
  1.237441E-01
  1.234879E-01
  1.232318E-01
  1.231085E-01
  1.230186E-01
  1.229288E-01
  1.228390E-01
  1.227825E-01
  1.228339E-01
  1.228854E-01
  1.229371E-01
  1.229888E-01
  1.231206E-01
  1.232615E-01
  1.234025E-01
  1.235437E-01
  1.236907E-01
  1.238394E-01
  1.239884E-01
  1.241375E-01
  1.242256E-01
  1.243045E-01
  1.243837E-01
  1.244436E-01
  1.243931E-01
  1.243428E-01
  1.242928E-01
  1.241225E-01
  1.238843E-01
  1.236465E-01
  1.233479E-01
  1.228787E-01
  1.224100E-01
  1.219249E-01
  1.212324E-01
  1.205407E-01
  1.198408E-01
  1.189627E-01
  1.180855E-01
  1.171819E-01
  1.161474E-01
  1.151139E-01
  1.140219E-01
  1.128547E-01
  1.116885E-01
  1.104308E-01
  1.091567E-01
  1.078509E-01
  1.064919E-01
  1.051311E-01
  1.036986E-01
  1.022668E-01
  1.007812E-01
  9.928329E-02
  9.775050E-02
  9.620249E-02
  9.463032E-02
  9.304715E-02
  9.144592E-02
  8.983966E-02
  8.823076E-02
  8.662820E-02
  8.504557E-02
  8.349744E-02
  8.197622E-02
  8.053507E-02
  7.915380E-02
  7.783723E-02
  7.661822E-02
  7.550861E-02
  7.451381E-02
  7.368771E-02
  7.315472E-02
  7.322008E-02
  7.453519E-02
  7.819878E-02
  8.589105E-02
  9.887489E-02
  1.088055E-01
  1.031565E-01
  1.173924E-01
  2.246392E-02
 -4.085352E-09
  9.816056E-01
  9.814099E-01
  9.812143E-01
  9.810189E-01
  9.808236E-01
  9.806284E-01
  9.804334E-01
  9.802385E-01
  9.800437E-01
  9.793802E-01
  9.787052E-01
  9.780304E-01
  9.773558E-01
  9.766813E-01
  9.760070E-01
  9.753328E-01
  9.745009E-01
  9.733797E-01
  9.722586E-01
  9.711377E-01
  9.700170E-01
  9.688964E-01
  9.677759E-01
  9.666243E-01
  9.652230E-01