 Title= "ADflow Lift Distribution Data"
Variables = "eta" "CoordinateX" "CoordinateY" "CoordinateZ" "Lift" "Drag" "Moment" "Normalized Lift" "Normalized Drag" "Normalized Moment" "CL" "CD" "CM" "CLp" "CDp" "CMp" "CLv" "CDv" "CMv" "Elliptical" "thickness" "twist" "chord" "fx" "fy" "fz" 
Zone T= "LiftDist_01 allWalls: : z normal"
 I=          150
 DATAPACKING=BLOCK
  0.000000E+00
  6.711405E-03
  1.342281E-02
  2.013422E-02
  2.684563E-02
  3.355704E-02
  4.026845E-02
  4.697986E-02
  5.369127E-02
  6.040268E-02
  6.711409E-02
  7.382550E-02
  8.053691E-02
  8.724832E-02
  9.395973E-02
  1.006711E-01
  1.073825E-01
  1.140940E-01
  1.208054E-01
  1.275168E-01
  1.342282E-01
  1.409396E-01
  1.476510E-01
  1.543624E-01
  1.610738E-01
  1.677852E-01
  1.744966E-01
  1.812081E-01
  1.879195E-01
  1.946309E-01
  2.013423E-01
  2.080537E-01
  2.147651E-01
  2.214765E-01
  2.281879E-01
  2.348993E-01
  2.416107E-01
  2.483221E-01
  2.550336E-01
  2.617450E-01
  2.684564E-01
  2.751678E-01
  2.818792E-01
  2.885906E-01
  2.953020E-01
  3.020134E-01
  3.087248E-01
  3.154362E-01
  3.221476E-01
  3.288591E-01
  3.355705E-01
  3.422819E-01
  3.489933E-01
  3.557047E-01
  3.624161E-01
  3.691275E-01
  3.758389E-01
  3.825503E-01
  3.892617E-01
  3.959732E-01
  4.026846E-01
  4.093960E-01
  4.161074E-01
  4.228188E-01
  4.295302E-01
  4.362416E-01
  4.429530E-01
  4.496644E-01
  4.563758E-01
  4.630872E-01
  4.697987E-01
  4.765101E-01
  4.832215E-01
  4.899329E-01
  4.966443E-01
  5.033557E-01
  5.100671E-01
  5.167785E-01
  5.234899E-01
  5.302013E-01
  5.369128E-01
  5.436242E-01
  5.503356E-01
  5.570470E-01
  5.637584E-01
  5.704698E-01
  5.771812E-01
  5.838926E-01
  5.906040E-01
  5.973154E-01
  6.040268E-01
  6.107383E-01
  6.174497E-01
  6.241611E-01
  6.308725E-01
  6.375839E-01
  6.442953E-01
  6.510067E-01
  6.577181E-01
  6.644295E-01
  6.711409E-01
  6.778524E-01
  6.845638E-01
  6.912752E-01
  6.979866E-01
  7.046980E-01
  7.114094E-01
  7.181208E-01
  7.248322E-01
  7.315436E-01
  7.382550E-01
  7.449664E-01
  7.516779E-01
  7.583893E-01
  7.651007E-01
  7.718121E-01
  7.785235E-01
  7.852349E-01
  7.919463E-01
  7.986577E-01
  8.053691E-01
  8.120805E-01
  8.187919E-01
  8.255034E-01
  8.322148E-01
  8.389262E-01
  8.456376E-01
  8.523490E-01
  8.590604E-01
  8.657718E-01
  8.724832E-01
  8.791946E-01
  8.859060E-01
  8.926175E-01
  8.993289E-01
  9.060403E-01
  9.127517E-01
  9.194631E-01
  9.261745E-01
  9.328859E-01
  9.395973E-01
  9.463087E-01
  9.530201E-01
  9.597315E-01
  9.664430E-01
  9.731544E-01
  9.798658E-01
  9.865772E-01
  9.932886E-01
  1.000000E+00
  0.000000E+00
  0.000000E+00
  0.000000E+00
  0.000000E+00
  0.000000E+00
  0.000000E+00
  0.000000E+00
  0.000000E+00
  0.000000E+00
  0.000000E+00
  0.000000E+00
  0.000000E+00
  0.000000E+00
  0.000000E+00
  0.000000E+00
  0.000000E+00
  0.000000E+00
  0.000000E+00
  0.000000E+00
  0.000000E+00
  0.000000E+00
  0.000000E+00
  0.000000E+00
  0.000000E+00
  0.000000E+00
  0.000000E+00
  0.000000E+00
  0.000000E+00
  0.000000E+00
  0.000000E+00
  0.000000E+00
  0.000000E+00
  0.000000E+00
  0.000000E+00
  0.000000E+00
  0.000000E+00
  0.000000E+00
  0.000000E+00
  0.000000E+00
  0.000000E+00
  0.000000E+00
  0.000000E+00
  0.000000E+00
  0.000000E+00
  0.000000E+00
  0.000000E+00
  0.000000E+00
  0.000000E+00
  0.000000E+00
  0.000000E+00
  0.000000E+00
  0.000000E+00
  0.000000E+00
  0.000000E+00
  0.000000E+00
  0.000000E+00
  0.000000E+00
  0.000000E+00
  0.000000E+00
  0.000000E+00
  0.000000E+00
  0.000000E+00
  0.000000E+00
  0.000000E+00
  0.000000E+00
  0.000000E+00
  0.000000E+00
  0.000000E+00
  0.000000E+00
  0.000000E+00
  0.000000E+00
  0.000000E+00
  0.000000E+00
  0.000000E+00
  0.000000E+00
  0.000000E+00
  0.000000E+00
  0.000000E+00
  0.000000E+00
  0.000000E+00
  0.000000E+00
  0.000000E+00
  0.000000E+00
  0.000000E+00
  0.000000E+00
  0.000000E+00
  0.000000E+00
  0.000000E+00
  0.000000E+00
  0.000000E+00
  0.000000E+00
  0.000000E+00
  0.000000E+00
  0.000000E+00
  0.000000E+00
  0.000000E+00
  0.000000E+00
  0.000000E+00
  0.000000E+00
  0.000000E+00
  0.000000E+00
  0.000000E+00
  0.000000E+00
  0.000000E+00
  0.000000E+00
  0.000000E+00
  0.000000E+00
  0.000000E+00
  0.000000E+00
  0.000000E+00
  0.000000E+00
  0.000000E+00
  0.000000E+00
  0.000000E+00
  0.000000E+00
  0.000000E+00
  0.000000E+00
  0.000000E+00
  0.000000E+00
  0.000000E+00
  0.000000E+00
  0.000000E+00
  0.000000E+00
  0.000000E+00
  0.000000E+00
  0.000000E+00
  0.000000E+00
  0.000000E+00
  0.000000E+00
  0.000000E+00
  0.000000E+00
  0.000000E+00
  0.000000E+00
  0.000000E+00
  0.000000E+00
  0.000000E+00
  0.000000E+00
  0.000000E+00
  0.000000E+00
  0.000000E+00
  0.000000E+00
  0.000000E+00
  0.000000E+00
  0.000000E+00
  0.000000E+00
  0.000000E+00
  0.000000E+00
  0.000000E+00
  0.000000E+00
  0.000000E+00
  0.000000E+00
  0.000000E+00
  0.000000E+00
  0.000000E+00
  0.000000E+00
  0.000000E+00
  0.000000E+00
  0.000000E+00
  0.000000E+00
  0.000000E+00
  0.000000E+00
  0.000000E+00
  0.000000E+00
  0.000000E+00
  0.000000E+00
  0.000000E+00
  0.000000E+00
  0.000000E+00
  0.000000E+00
  0.000000E+00
  0.000000E+00
  0.000000E+00
  0.000000E+00
  0.000000E+00
  0.000000E+00
  0.000000E+00
  0.000000E+00
  0.000000E+00
  0.000000E+00
  0.000000E+00
  0.000000E+00
  0.000000E+00
  0.000000E+00
  0.000000E+00
  0.000000E+00
  0.000000E+00
  0.000000E+00
  0.000000E+00
  0.000000E+00
  0.000000E+00
  0.000000E+00
  0.000000E+00
  0.000000E+00
  0.000000E+00
  0.000000E+00
  0.000000E+00
  0.000000E+00
  0.000000E+00
  0.000000E+00
  0.000000E+00
  0.000000E+00
  0.000000E+00
  0.000000E+00
  0.000000E+00
  0.000000E+00
  0.000000E+00
  0.000000E+00
  0.000000E+00
  0.000000E+00
  0.000000E+00
  0.000000E+00
  0.000000E+00
  0.000000E+00
  0.000000E+00
  0.000000E+00
  0.000000E+00
  0.000000E+00
  0.000000E+00
  0.000000E+00
  0.000000E+00
  0.000000E+00
  0.000000E+00
  0.000000E+00
  0.000000E+00
  0.000000E+00
  0.000000E+00
  0.000000E+00
  0.000000E+00
  0.000000E+00
  0.000000E+00
  0.000000E+00
  0.000000E+00
  0.000000E+00
  0.000000E+00
  0.000000E+00
  0.000000E+00
  0.000000E+00
  0.000000E+00
  0.000000E+00
  0.000000E+00
  0.000000E+00
  0.000000E+00
  0.000000E+00
  0.000000E+00
  0.000000E+00
  0.000000E+00
  0.000000E+00
  0.000000E+00
  0.000000E+00
  0.000000E+00
  0.000000E+00
  0.000000E+00
  0.000000E+00
  0.000000E+00
  0.000000E+00
  0.000000E+00
  0.000000E+00
  0.000000E+00
  0.000000E+00
  0.000000E+00
  0.000000E+00
  0.000000E+00
  0.000000E+00
  0.000000E+00
  0.000000E+00
  0.000000E+00
  0.000000E+00
  0.000000E+00
  0.000000E+00
  0.000000E+00
  0.000000E+00
  0.000000E+00
  0.000000E+00
  0.000000E+00
  0.000000E+00
  0.000000E+00
  0.000000E+00
  0.000000E+00
  0.000000E+00
  0.000000E+00
  0.000000E+00
  0.000000E+00
  0.000000E+00
  0.000000E+00
  0.000000E+00
  0.000000E+00
  0.000000E+00
  0.000000E+00
  0.000000E+00
  0.000000E+00
  0.000000E+00
  0.000000E+00
  0.000000E+00
  0.000000E+00
  0.000000E+00
  0.000000E+00
  0.000000E+00
  0.000000E+00
  0.000000E+00
  0.000000E+00
  1.000000E-08
  1.695085E-02
  3.390169E-02
  5.085254E-02
  6.780338E-02
  8.475423E-02
  1.017051E-01
  1.186559E-01
  1.356068E-01
  1.525576E-01
  1.695085E-01
  1.864593E-01
  2.034101E-01
  2.203610E-01
  2.373118E-01
  2.542627E-01
  2.712135E-01
  2.881644E-01
  3.051152E-01
  3.220661E-01
  3.390169E-01
  3.559678E-01
  3.729186E-01
  3.898694E-01
  4.068203E-01
  4.237711E-01
  4.407220E-01
  4.576728E-01
  4.746237E-01
  4.915745E-01
  5.085254E-01
  5.254762E-01
  5.424271E-01
  5.593779E-01
  5.763287E-01
  5.932796E-01
  6.102304E-01
  6.271813E-01
  6.441321E-01
  6.610830E-01
  6.780338E-01
  6.949847E-01
  7.119355E-01
  7.288864E-01
  7.458372E-01
  7.627880E-01
  7.797389E-01
  7.966897E-01
  8.136406E-01
  8.305914E-01
  8.475423E-01
  8.644931E-01
  8.814440E-01
  8.983948E-01
  9.153457E-01
  9.322965E-01
  9.492473E-01
  9.661982E-01
  9.831490E-01
  1.000100E+00
  1.017051E+00
  1.034002E+00
  1.050952E+00
  1.067903E+00
  1.084854E+00
  1.101805E+00
  1.118756E+00
  1.135707E+00
  1.152657E+00
  1.169608E+00
  1.186559E+00
  1.203510E+00
  1.220461E+00
  1.237412E+00
  1.254363E+00
  1.271313E+00
  1.288264E+00
  1.305215E+00
  1.322166E+00
  1.339117E+00
  1.356068E+00
  1.373018E+00
  1.389969E+00
  1.406920E+00
  1.423871E+00
  1.440822E+00
  1.457773E+00
  1.474724E+00
  1.491674E+00
  1.508625E+00
  1.525576E+00
  1.542527E+00
  1.559478E+00
  1.576429E+00
  1.593379E+00
  1.610330E+00
  1.627281E+00
  1.644232E+00
  1.661183E+00
  1.678134E+00
  1.695085E+00
  1.712035E+00
  1.728986E+00
  1.745937E+00
  1.762888E+00
  1.779839E+00
  1.796790E+00
  1.813740E+00
  1.830691E+00
  1.847642E+00
  1.864593E+00
  1.881544E+00
  1.898495E+00
  1.915446E+00
  1.932396E+00
  1.949347E+00
  1.966298E+00
  1.983249E+00
  2.000200E+00
  2.017151E+00
  2.034101E+00
  2.051052E+00
  2.068003E+00
  2.084954E+00
  2.101905E+00
  2.118856E+00
  2.135807E+00
  2.152757E+00
  2.169708E+00
  2.186659E+00
  2.203610E+00
  2.220561E+00
  2.237512E+00
  2.254462E+00
  2.271413E+00
  2.288364E+00
  2.305315E+00
  2.322266E+00
  2.339217E+00
  2.356168E+00
  2.373118E+00
  2.390069E+00
  2.407020E+00
  2.423971E+00
  2.440922E+00
  2.457873E+00
  2.474823E+00
  2.491774E+00
  2.508725E+00
  2.525676E+00
  6.835383E+03
  6.834571E+03
  6.833758E+03
  6.832946E+03
  6.832134E+03
  6.831322E+03
  6.830510E+03
  6.829698E+03
  6.828886E+03
  6.826570E+03
  6.824217E+03
  6.821864E+03
  6.819511E+03
  6.817158E+03
  6.814805E+03
  6.812453E+03
  6.809626E+03
  6.805930E+03
  6.802234E+03
  6.798539E+03
  6.794843E+03
  6.791147E+03
  6.787452E+03
  6.783602E+03
  6.778517E+03
  6.773433E+03
  6.768348E+03
  6.763264E+03
  6.758179E+03
  6.753095E+03
  6.747663E+03
  6.741080E+03
  6.734497E+03
  6.727915E+03
  6.721332E+03
  6.714749E+03
  6.708166E+03
  6.700484E+03
  6.692323E+03
  6.684161E+03
  6.675999E+03
  6.667837E+03
  6.659675E+03
  6.650705E+03
  6.640884E+03
  6.631063E+03
  6.621242E+03
  6.611421E+03
  6.601600E+03
  6.590725E+03
  6.579113E+03
  6.567501E+03
  6.555888E+03
  6.544276E+03
  6.532664E+03
  6.519113E+03
  6.505532E+03
  6.491951E+03
  6.478370E+03
  6.464789E+03
  6.449784E+03
  6.434049E+03
  6.418314E+03
  6.402579E+03
  6.386844E+03
  6.369697E+03
  6.351624E+03
  6.333550E+03
  6.315477E+03
  6.297405E+03
  6.277356E+03
  6.256813E+03
  6.236270E+03
  6.215727E+03
  6.194605E+03
  6.171598E+03
  6.148592E+03
  6.125587E+03
  6.102583E+03
  6.077448E+03
  6.052076E+03
  6.026706E+03
  6.001338E+03
  5.974206E+03
  5.946579E+03
  5.918955E+03
  5.891333E+03
  5.861925E+03
  5.832244E+03
  5.802566E+03
  5.772622E+03
  5.741152E+03
  5.709685E+03
  5.678220E+03
  5.645741E+03
  5.612637E+03
  5.579534E+03
  5.546006E+03
  5.511278E+03
  5.476552E+03
  5.441704E+03
  5.405341E+03
  5.368980E+03
  5.332539E+03
  5.294477E+03
  5.256415E+03
  5.218033E+03
  5.178090E+03
  5.138148E+03
  5.097288E+03
  5.055250E+03
  5.013214E+03
  4.969245E+03
  4.924915E+03
  4.879650E+03
  4.832832E+03
  4.785927E+03
  4.736438E+03
  4.686948E+03
  4.635167E+03
  4.582839E+03
  4.528436E+03
  4.473113E+03
  4.415653E+03
  4.357204E+03
  4.296266E+03
  4.234606E+03
  4.169820E+03
  4.104135E+03
  4.035994E+03
  3.965945E+03
  3.894493E+03
  3.820136E+03
  3.744078E+03
  3.666251E+03
  3.585986E+03
  3.503217E+03
  3.418149E+03
  3.330482E+03
  3.240083E+03
  3.147519E+03
  3.054715E+03
  2.965641E+03
  2.902054E+03
  2.905679E+03
  2.858508E+03
  2.698335E+03
  3.404645E+03
  8.144191E+02
 -1.954948E-05
  3.027279E+02
  3.027033E+02
  3.026787E+02
  3.026542E+02
  3.026296E+02
  3.026051E+02
  3.025805E+02
  3.025559E+02
  3.025314E+02
  3.025086E+02
  3.024859E+02
  3.024633E+02
  3.024406E+02
  3.024179E+02
  3.023952E+02
  3.023725E+02
  3.023743E+02
  3.024211E+02
  3.024679E+02
  3.025148E+02
  3.025616E+02
  3.026084E+02
  3.026552E+02
  3.027072E+02
  3.028007E+02
  3.028942E+02
  3.029877E+02
  3.030812E+02
  3.031747E+02
  3.032682E+02
  3.033611E+02
  3.034517E+02
  3.035424E+02
  3.036330E+02
  3.037236E+02
  3.038143E+02
  3.039049E+02
  3.039835E+02
  3.040567E+02
  3.041300E+02
  3.042032E+02
  3.042765E+02
  3.043497E+02
  3.044129E+02
  3.044655E+02
  3.045181E+02
  3.045707E+02
  3.046233E+02
  3.046759E+02
  3.047098E+02
  3.047307E+02
  3.047517E+02
  3.047726E+02
  3.047935E+02
  3.048144E+02
  3.047905E+02
  3.047658E+02
  3.047412E+02
  3.047166E+02
  3.046919E+02
  3.046325E+02
  3.045554E+02
  3.044782E+02
  3.044010E+02
  3.043238E+02
  3.042184E+02
  3.040945E+02
  3.039707E+02
  3.038468E+02
  3.037229E+02
  3.035732E+02
  3.034169E+02
  3.032607E+02
  3.031044E+02
  3.029438E+02
  3.027692E+02
  3.025946E+02
  3.024200E+02
  3.022453E+02
  3.020646E+02
  3.018831E+02
  3.017016E+02
  3.015201E+02
  3.013287E+02
  3.011345E+02
  3.009403E+02
  3.007460E+02
  3.005139E+02
  3.002759E+02
  3.000379E+02
  2.997879E+02
  2.994702E+02
  2.991524E+02
  2.988344E+02
  2.984515E+02
  2.980282E+02
  2.976047E+02
  2.971507E+02
  2.966115E+02
  2.960720E+02
  2.955249E+02
  2.948893E+02
  2.942532E+02
  2.936147E+02
  2.929339E+02
  2.922527E+02
  2.915723E+02
  2.908974E+02
  2.902220E+02
  2.895647E+02
  2.889307E+02
  2.882962E+02
  2.877145E+02
  2.871423E+02
  2.865974E+02
  2.860978E+02
  2.856005E+02
  2.851771E+02
  2.847535E+02
  2.843918E+02
  2.840447E+02
  2.837481E+02
  2.834738E+02
  2.832473E+02
  2.830430E+02
  2.829000E+02
  2.827748E+02
  2.827522E+02
  2.827714E+02
  2.829099E+02
  2.831902E+02
  2.835804E+02
  2.842939E+02
  2.852776E+02
  2.865687E+02
  2.883777E+02
  2.908503E+02
  2.940033E+02
  2.980012E+02
  3.030927E+02
  3.097216E+02
  3.186560E+02
  3.311890E+02
  3.521167E+02
  3.898388E+02
  4.251040E+02
  4.488291E+02
  6.005435E+02
  1.175927E+01
  3.547878E-04
  1.466685E+03
  1.466593E+03
  1.466501E+03
  1.466409E+03
  1.466317E+03
  1.466225E+03
  1.466133E+03
  1.466041E+03
  1.465949E+03
  1.465728E+03
  1.465504E+03
  1.465280E+03
  1.465056E+03
  1.464832E+03
  1.464608E+03
  1.464384E+03
  1.464133E+03
  1.463832E+03
  1.463531E+03
  1.463230E+03
  1.462930E+03
  1.462629E+03
  1.462328E+03
  1.462013E+03
  1.461581E+03
  1.461150E+03
  1.460719E+03
  1.460287E+03
  1.459856E+03
  1.459425E+03
  1.458947E+03
  1.458314E+03
  1.457682E+03
  1.457049E+03
  1.456416E+03
  1.455783E+03
  1.455151E+03
  1.454344E+03
  1.453461E+03
  1.452578E+03
  1.451695E+03
  1.450812E+03
  1.449930E+03
  1.448901E+03
  1.447719E+03
  1.446537E+03
  1.445356E+03
  1.444174E+03
  1.442992E+03
  1.441595E+03
  1.440049E+03
  1.438502E+03
  1.436955E+03
  1.435408E+03
  1.433861E+03
  1.431851E+03
  1.429834E+03
  1.427816E+03
  1.425799E+03
  1.423781E+03
  1.421345E+03
  1.418693E+03
  1.416042E+03
  1.413390E+03
  1.410738E+03
  1.407588E+03
  1.404110E+03
  1.400633E+03
  1.397155E+03
  1.393678E+03
  1.389399E+03
  1.384920E+03
  1.380442E+03
  1.375963E+03
  1.371225E+03
  1.365647E+03
  1.360069E+03
  1.354491E+03
  1.348913E+03
  1.342438E+03
  1.335863E+03
  1.329289E+03
  1.322714E+03
  1.315613E+03
  1.308363E+03
  1.301114E+03
  1.293865E+03
  1.286356E+03
  1.278807E+03
  1.271258E+03
  1.263713E+03
  1.256181E+03
  1.248649E+03
  1.241117E+03
  1.233755E+03
  1.226498E+03
  1.219241E+03
  1.212097E+03
  1.205270E+03
  1.198443E+03
  1.191649E+03
  1.185249E+03
  1.178849E+03
  1.172464E+03
  1.166369E+03
  1.160273E+03
  1.154203E+03
  1.148254E+03
  1.142306E+03
  1.136357E+03
  1.130408E+03
  1.124458E+03
  1.118392E+03
  1.112304E+03
  1.106117E+03
  1.099768E+03
  1.093406E+03
  1.086695E+03
  1.079984E+03
  1.072922E+03
  1.065776E+03
  1.058295E+03
  1.050667E+03
  1.042695E+03
  1.034563E+03
  1.026049E+03
  1.017424E+03
  1.008372E+03
  9.992185E+02
  9.897973E+02
  9.802426E+02
  9.705970E+02
  9.608860E+02
  9.512175E+02
  9.416116E+02
  9.321567E+02
  9.229043E+02
  9.138307E+02
  9.049622E+02
  8.964519E+02
  8.889244E+02
  8.840530E+02
  8.852868E+02
  9.054284E+02
  9.683345E+02
  1.021866E+03
  1.010740E+03
  1.336067E+03
  1.715634E+02
 -1.807935E-11
  1.203790E+00
  1.203647E+00
  1.203504E+00
  1.203361E+00
  1.203218E+00
  1.203075E+00
  1.202932E+00
  1.202789E+00
  1.202645E+00
  1.202238E+00
  1.201823E+00
  1.201409E+00
  1.200995E+00
  1.200580E+00
  1.200166E+00
  1.199751E+00
  1.199254E+00
  1.198603E+00
  1.197952E+00
  1.197301E+00
  1.196650E+00
  1.195999E+00
  1.195348E+00
  1.194670E+00
  1.193775E+00
  1.192880E+00
  1.191984E+00
  1.191089E+00
  1.190193E+00
  1.189298E+00
  1.188341E+00
  1.187182E+00
  1.186023E+00
  1.184863E+00
  1.183704E+00
  1.182545E+00
  1.181385E+00
  1.180033E+00
  1.178595E+00
  1.177158E+00
  1.175720E+00
  1.174283E+00
  1.172845E+00
  1.171266E+00
  1.169536E+00
  1.167807E+00
  1.166077E+00
  1.164347E+00
  1.162618E+00
  1.160703E+00
  1.158658E+00
  1.156613E+00
  1.154567E+00
  1.152522E+00
  1.150477E+00
  1.148091E+00
  1.145699E+00
  1.143307E+00
  1.140916E+00
  1.138524E+00
  1.135881E+00
  1.133110E+00
  1.130339E+00
  1.127568E+00
  1.124797E+00
  1.121777E+00
  1.118594E+00
  1.115411E+00
  1.112228E+00
  1.109046E+00
  1.105515E+00
  1.101897E+00
  1.098279E+00
  1.094661E+00
  1.090941E+00
  1.086889E+00
  1.082838E+00
  1.078787E+00
  1.074735E+00
  1.070309E+00
  1.065840E+00
  1.061372E+00
  1.056905E+00
  1.052127E+00
  1.047261E+00
  1.042396E+00
  1.037532E+00
  1.032352E+00
  1.027125E+00
  1.021899E+00
  1.016625E+00
  1.011083E+00
  1.005541E+00
  9.999999E-01
  9.942801E-01
  9.884500E-01
  9.826203E-01
  9.767155E-01
  9.705996E-01
  9.644839E-01
  9.583468E-01
  9.519429E-01
  9.455393E-01
  9.391216E-01
  9.324184E-01
  9.257153E-01
  9.189558E-01
  9.119214E-01
  9.048871E-01
  8.976911E-01
  8.902878E-01
  8.828847E-01
  8.751413E-01
  8.673343E-01
  8.593626E-01
  8.511175E-01
  8.428570E-01
  8.341412E-01
  8.254256E-01
  8.163064E-01
  8.070907E-01
  7.975098E-01
  7.877668E-01
  7.776474E-01
  7.673539E-01
  7.566219E-01
  7.457629E-01
  7.343533E-01
  7.227855E-01
  7.107850E-01
  6.984486E-01
  6.858651E-01
  6.727700E-01
  6.593753E-01
  6.456691E-01
  6.315334E-01
  6.169568E-01
  6.019754E-01
  5.865363E-01
  5.706159E-01
  5.543144E-01
  5.379705E-01
  5.222836E-01
  5.110852E-01
  5.117236E-01
  5.034161E-01
  4.752079E-01
  5.995972E-01
  1.434286E-01
 -3.442889E-09
  1.006238E+00
  1.006156E+00
  1.006075E+00
  1.005993E+00
  1.005911E+00
  1.005830E+00
  1.005748E+00
  1.005667E+00
  1.005585E+00
  1.005509E+00
  1.005434E+00
  1.005358E+00
  1.005283E+00
  1.005208E+00
  1.005132E+00
  1.005057E+00
  1.005063E+00
  1.005218E+00
  1.005374E+00
  1.005530E+00
  1.005685E+00
  1.005841E+00
  1.005996E+00
  1.006169E+00
  1.006480E+00
  1.006791E+00
  1.007102E+00
  1.007413E+00
  1.007723E+00
  1.008034E+00
  1.008343E+00
  1.008644E+00
  1.008945E+00
  1.009247E+00
  1.009548E+00
  1.009849E+00
  1.010150E+00
  1.010412E+00
  1.010655E+00
  1.010898E+00
  1.011142E+00
  1.011385E+00
  1.011629E+00
  1.011839E+00
  1.012014E+00
  1.012189E+00
  1.012363E+00
  1.012538E+00
  1.012713E+00
  1.012826E+00
  1.012895E+00
  1.012965E+00
  1.013034E+00
  1.013104E+00
  1.013173E+00
  1.013094E+00
  1.013012E+00
  1.012930E+00
  1.012848E+00
  1.012766E+00
  1.012569E+00
  1.012312E+00
  1.012056E+00
  1.011799E+00
  1.011543E+00
  1.011192E+00
  1.010781E+00
  1.010369E+00
  1.009957E+00
  1.009545E+00
  1.009048E+00
  1.008528E+00
  1.008009E+00
  1.007490E+00
  1.006956E+00
  1.006376E+00
  1.005795E+00
  1.005215E+00
  1.004634E+00
  1.004033E+00
  1.003430E+00
  1.002827E+00
  1.002223E+00
  1.001587E+00
  1.000942E+00
  1.000296E+00
  9.996503E-01
  9.988789E-01
  9.980880E-01
  9.972967E-01
  9.964657E-01
  9.954099E-01
  9.943535E-01
  9.932966E-01
  9.920237E-01
  9.906168E-01
  9.892092E-01
  9.877001E-01
  9.859079E-01
  9.841145E-01
  9.822962E-01
  9.801833E-01
  9.780691E-01
  9.759468E-01
  9.736838E-01
  9.714195E-01
  9.691579E-01
  9.669146E-01
  9.646698E-01
  9.624850E-01
  9.603774E-01
  9.582685E-01
  9.563349E-01
  9.544332E-01
  9.526218E-01
  9.509613E-01
  9.493082E-01
  9.479010E-01
  9.464931E-01
  9.452906E-01
  9.441370E-01
  9.431510E-01
  9.422394E-01
  9.414865E-01
  9.408073E-01
  9.403320E-01
  9.399160E-01
  9.398409E-01
  9.399047E-01
  9.403650E-01
  9.412966E-01
  9.425937E-01
  9.449654E-01
  9.482350E-01
  9.525266E-01
  9.585395E-01
  9.667580E-01
  9.772384E-01
  9.905271E-01
  1.007451E+00
  1.029484E+00
  1.059182E+00
  1.100840E+00
  1.170402E+00
  1.295786E+00
  1.413005E+00
  1.491864E+00
  1.996148E+00
  3.908668E-02
  1.179280E-06
  1.149916E+00
  1.149844E+00
  1.149772E+00
  1.149700E+00
  1.149627E+00
  1.149555E+00
  1.149483E+00
  1.149411E+00
  1.149339E+00
  1.149166E+00
  1.148990E+00
  1.148814E+00
  1.148639E+00
  1.148463E+00
  1.148288E+00
  1.148112E+00
  1.147915E+00
  1.147679E+00
  1.147443E+00
  1.147208E+00
  1.146972E+00
  1.146736E+00
  1.146500E+00
  1.146253E+00
  1.145915E+00
  1.145577E+00
  1.145238E+00
  1.144900E+00
  1.144562E+00
  1.144224E+00
  1.143849E+00
  1.143353E+00
  1.142857E+00
  1.142361E+00
  1.141865E+00
  1.141369E+00
  1.140873E+00
  1.140241E+00
  1.139548E+00
  1.138856E+00
  1.138164E+00
  1.137472E+00
  1.136779E+00
  1.135973E+00
  1.135047E+00
  1.134120E+00
  1.133193E+00
  1.132267E+00
  1.131340E+00
  1.130245E+00
  1.129033E+00
  1.127820E+00
  1.126607E+00
  1.125394E+00
  1.124182E+00
  1.122606E+00
  1.121024E+00
  1.119442E+00
  1.117860E+00
  1.116279E+00
  1.114368E+00
  1.112289E+00
  1.110210E+00
  1.108132E+00
  1.106053E+00
  1.103583E+00
  1.100856E+00
  1.098130E+00
  1.095403E+00
  1.092677E+00
  1.089322E+00
  1.085811E+00
  1.082299E+00
  1.078788E+00
  1.075073E+00
  1.070700E+00
  1.066327E+00
  1.061953E+00
  1.057580E+00
  1.052504E+00
  1.047349E+00
  1.042194E+00
  1.037040E+00
  1.031472E+00
  1.025788E+00
  1.020104E+00
  1.014421E+00
  1.008534E+00
  1.002615E+00
  9.966970E-01
  9.907811E-01
  9.848756E-01
  9.789705E-01
  9.730658E-01
  9.672938E-01
  9.616038E-01
  9.559141E-01
  9.503132E-01
  9.449606E-01
  9.396081E-01
  9.342811E-01
  9.292636E-01
  9.242461E-01
  9.192402E-01
  9.144609E-01
  9.096818E-01
  9.049224E-01
  9.002588E-01
  8.955952E-01
  8.909312E-01
  8.862666E-01
  8.816021E-01
  8.768459E-01
  8.720727E-01
  8.672224E-01
  8.622442E-01
  8.572567E-01
  8.519949E-01
  8.467332E-01
  8.411963E-01
  8.355936E-01
  8.297290E-01
  8.237482E-01
  8.174975E-01
  8.111219E-01
  8.044468E-01
  7.976848E-01
  7.905878E-01
  7.834113E-01
  7.760248E-01
  7.685337E-01
  7.609713E-01
  7.533576E-01
  7.457773E-01
  7.382461E-01
  7.308332E-01
  7.235790E-01
  7.164651E-01
  7.095121E-01
  7.028398E-01
  6.969380E-01
  6.931187E-01
  6.940860E-01
  7.098775E-01
  7.591974E-01
  8.011678E-01
  7.924446E-01
  1.047508E+00
  1.345098E-01
 -1.417464E-14
  6.111874E-01
  6.111148E-01
  6.110422E-01
  6.109695E-01
  6.108969E-01
  6.108243E-01
  6.107517E-01
  6.106791E-01
  6.106064E-01
  6.103994E-01
  6.101890E-01
  6.099786E-01
  6.097682E-01
  6.095578E-01
  6.093474E-01
  6.091370E-01
  6.088843E-01
  6.085538E-01
  6.082234E-01
  6.078929E-01
  6.075625E-01
  6.072320E-01
  6.069015E-01
  6.065573E-01
  6.061027E-01
  6.056480E-01
  6.051934E-01
  6.047388E-01
  6.042841E-01
  6.038295E-01
  6.033439E-01
  6.027552E-01
  6.021666E-01
  6.015780E-01
  6.009894E-01
  6.004008E-01
  5.998121E-01
  5.991253E-01
  5.983955E-01
  5.976657E-01
  5.969359E-01
  5.962061E-01
  5.954763E-01
  5.946743E-01
  5.937962E-01
  5.929180E-01
  5.920399E-01
  5.911617E-01
  5.902836E-01
  5.893112E-01
  5.882729E-01
  5.872346E-01
  5.861963E-01
  5.851580E-01
  5.841197E-01
  5.829081E-01
  5.816937E-01
  5.804794E-01
  5.792651E-01
  5.780507E-01
  5.767091E-01
  5.753021E-01
  5.738952E-01
  5.724883E-01
  5.710813E-01
  5.695482E-01
  5.679322E-01
  5.663162E-01
  5.647002E-01
  5.630843E-01
  5.612917E-01
  5.594549E-01
  5.576181E-01
  5.557813E-01
  5.538927E-01
  5.518356E-01
  5.497786E-01
  5.477217E-01
  5.456649E-01
  5.434176E-01
  5.411490E-01
  5.388806E-01
  5.366124E-01
  5.341865E-01
  5.317163E-01
  5.292464E-01
  5.267767E-01
  5.241471E-01
  5.214933E-01
  5.188397E-01
  5.161623E-01
  5.133485E-01
  5.105348E-01
  5.077214E-01
  5.048174E-01
  5.018574E-01
  4.988975E-01
  4.958996E-01
  4.927944E-01
  4.896894E-01
  4.865734E-01
  4.833220E-01
  4.800707E-01
  4.768124E-01
  4.734090E-01
  4.700057E-01
  4.665737E-01
  4.630022E-01
  4.594307E-01
  4.557772E-01
  4.520183E-01
  4.482596E-01
  4.443281E-01
  4.403643E-01
  4.363169E-01
  4.321307E-01
  4.279366E-01
  4.235114E-01
  4.190863E-01
  4.144563E-01
  4.097773E-01
  4.049129E-01
  3.999661E-01
  3.948283E-01
  3.896021E-01
  3.841532E-01
  3.786399E-01
  3.728470E-01
  3.669737E-01
  3.608809E-01
  3.546174E-01
  3.482285E-01
  3.415799E-01
  3.347791E-01
  3.278202E-01
  3.206432E-01
  3.132423E-01
  3.056359E-01
  2.977972E-01
  2.897140E-01
  2.814374E-01
  2.731393E-01
  2.651747E-01
  2.594891E-01
  2.598132E-01
  2.555953E-01
  2.412734E-01
  3.044285E-01
  9.997238E-02
 -4.250528E-04
  2.706848E-02
  2.706629E-02
  2.706409E-02
  2.706190E-02
  2.705970E-02
  2.705750E-02
  2.705531E-02
  2.705311E-02
  2.705091E-02
  2.704888E-02
  2.704685E-02
  2.704482E-02
  2.704279E-02
  2.704076E-02
  2.703874E-02
  2.703671E-02
  2.703687E-02
  2.704106E-02
  2.704524E-02
  2.704943E-02
  2.705361E-02
  2.705780E-02
  2.706198E-02
  2.706663E-02
  2.707499E-02
  2.708335E-02
  2.709172E-02
  2.710008E-02
  2.710844E-02
  2.711680E-02
  2.712510E-02
  2.713321E-02
  2.714131E-02
  2.714941E-02
  2.715752E-02
  2.716562E-02
  2.717373E-02
  2.718075E-02
  2.718730E-02
  2.719385E-02
  2.720040E-02
  2.720695E-02
  2.721350E-02
  2.721915E-02
  2.722385E-02
  2.722856E-02
  2.723326E-02
  2.723796E-02
  2.724266E-02
  2.724570E-02
  2.724757E-02
  2.724944E-02
  2.725131E-02
  2.725318E-02
  2.725505E-02
  2.725291E-02
  2.725071E-02
  2.724851E-02
  2.724631E-02
  2.724410E-02
  2.723880E-02
  2.723190E-02
  2.722499E-02
  2.721809E-02
  2.721119E-02
  2.720177E-02
  2.719070E-02
  2.717962E-02
  2.716855E-02
  2.715747E-02
  2.714409E-02
  2.713012E-02
  2.711615E-02
  2.710218E-02
  2.708782E-02
  2.707222E-02
  2.705661E-02
  2.704100E-02
  2.702538E-02
  2.700923E-02
  2.699301E-02
  2.697678E-02
  2.696056E-02
  2.694345E-02
  2.692609E-02
  2.690873E-02
  2.689136E-02
  2.687061E-02
  2.684934E-02
  2.682806E-02
  2.680570E-02
  2.677730E-02
  2.674889E-02
  2.672046E-02
  2.668622E-02
  2.664838E-02
  2.661051E-02
  2.656992E-02
  2.652170E-02
  2.647346E-02
  2.642455E-02
  2.636771E-02
  2.631084E-02
  2.625374E-02
  2.619287E-02
  2.613196E-02
  2.607112E-02
  2.601077E-02
  2.595038E-02
  2.589161E-02
  2.583491E-02
  2.577818E-02
  2.572617E-02
  2.567501E-02
  2.562628E-02
  2.558161E-02
  2.553714E-02
  2.549928E-02
  2.546141E-02
  2.542906E-02
  2.539803E-02
  2.537150E-02
  2.534698E-02
  2.532673E-02
  2.530846E-02
  2.529567E-02
  2.528448E-02
  2.528246E-02
  2.528418E-02
  2.529656E-02
  2.532162E-02
  2.535652E-02
  2.542032E-02
  2.550827E-02
  2.562372E-02
  2.578547E-02
  2.600656E-02
  2.628849E-02
  2.664597E-02
  2.710123E-02
  2.769395E-02
  2.849283E-02
  2.961348E-02
  3.148475E-02
  3.485769E-02
  3.801095E-02
  4.013235E-02
  5.369798E-02
  1.443486E-03
  7.713940E-03
  1.311440E-01
  1.311358E-01
  1.311275E-01
  1.311193E-01
  1.311111E-01
  1.311028E-01
  1.310946E-01
  1.310864E-01
  1.310781E-01
  1.310584E-01
  1.310384E-01
  1.310183E-01
  1.309983E-01
  1.309783E-01
  1.309582E-01
  1.309382E-01
  1.309158E-01
  1.308889E-01
  1.308620E-01
  1.308351E-01
  1.308082E-01
  1.307813E-01
  1.307544E-01
  1.307262E-01
  1.306876E-01
  1.306491E-01
  1.306105E-01
  1.305719E-01
  1.305334E-01
  1.304948E-01
  1.304521E-01
  1.303955E-01
  1.303389E-01
  1.302824E-01
  1.302258E-01
  1.301692E-01
  1.301126E-01
  1.300405E-01
  1.299616E-01
  1.298826E-01
  1.298037E-01
  1.297247E-01
  1.296458E-01
  1.295538E-01
  1.294482E-01
  1.293425E-01
  1.292368E-01
  1.291311E-01
  1.290255E-01
  1.289006E-01
  1.287623E-01
  1.286240E-01
  1.284857E-01
  1.283474E-01
  1.282091E-01
  1.280293E-01
  1.278489E-01
  1.276685E-01
  1.274882E-01
  1.273078E-01
  1.270899E-01
  1.268528E-01
  1.266157E-01
  1.263786E-01
  1.261415E-01
  1.258599E-01
  1.255489E-01
  1.252380E-01
  1.249270E-01
  1.246161E-01
  1.242336E-01
  1.238331E-01
  1.234326E-01
  1.230322E-01
  1.226086E-01
  1.221098E-01
  1.216111E-01
  1.211123E-01
  1.206136E-01
  1.200347E-01
  1.194468E-01
  1.188589E-01
  1.182711E-01
  1.176361E-01
  1.169879E-01
  1.163398E-01
  1.156916E-01
  1.150202E-01
  1.143452E-01
  1.136703E-01
  1.129956E-01
  1.123221E-01
  1.116487E-01
  1.109753E-01
  1.103170E-01
  1.096681E-01
  1.090192E-01
  1.083804E-01
  1.077700E-01
  1.071596E-01
  1.065520E-01
  1.059798E-01
  1.054076E-01
  1.048366E-01
  1.042916E-01
  1.037465E-01
  1.032037E-01
  1.026719E-01
  1.021400E-01
  1.016081E-01
  1.010761E-01
  1.005441E-01
  1.000017E-01
  9.945731E-02
  9.890415E-02
  9.833640E-02
  9.776759E-02
  9.716750E-02
  9.656741E-02
  9.593594E-02
  9.529697E-02
  9.462813E-02
  9.394603E-02
  9.323316E-02
  9.250605E-02
  9.174477E-02
  9.097359E-02
  9.016419E-02
  8.934574E-02
  8.850334E-02
  8.764900E-02
  8.678653E-02
  8.591822E-02
  8.505370E-02
  8.419479E-02
  8.334937E-02
  8.252207E-02
  8.171075E-02
  8.091777E-02
  8.015682E-02
  7.948374E-02
  7.904817E-02
  7.915848E-02
  8.095946E-02
  8.658425E-02
  9.137085E-02
  9.037599E-02
  1.194653E-01
  2.105992E-02
 -3.930886E-10
  6.111930E-01
  6.111204E-01
  6.110478E-01
  6.109752E-01
  6.109026E-01
  6.108300E-01
  6.107574E-01
  6.106848E-01
  6.106122E-01
  6.104052E-01
  6.101949E-01
  6.099845E-01
  6.097742E-01
  6.095639E-01
  6.093536E-01
  6.091432E-01
  6.088906E-01
  6.085602E-01
  6.082299E-01
  6.078996E-01
  6.075692E-01
  6.072389E-01
  6.069086E-01
  6.065645E-01
  6.061100E-01