 Title= "ADflow Lift Distribution Data"
Variables = "eta" "CoordinateX" "CoordinateY" "CoordinateZ" "Lift" "Drag" "Moment" "Normalized Lift" "Normalized Drag" "Normalized Moment" "CL" "CD" "CM" "CLp" "CDp" "CMp" "CLv" "CDv" "CMv" "Elliptical" "thickness" "twist" "chord" "fx" "fy" "fz" 
Zone T= "LiftDist_01 allWalls: : z normal"
 I=          150
 DATAPACKING=BLOCK
  0.000000E+00
  6.711405E-03
  1.342281E-02
  2.013422E-02
  2.684563E-02
  3.355704E-02
  4.026845E-02
  4.697986E-02
  5.369127E-02
  6.040268E-02
  6.711409E-02
  7.382550E-02
  8.053691E-02
  8.724832E-02
  9.395973E-02
  1.006711E-01
  1.073825E-01
  1.140940E-01
  1.208054E-01
  1.275168E-01
  1.342282E-01
  1.409396E-01
  1.476510E-01
  1.543624E-01
  1.610738E-01
  1.677852E-01
  1.744966E-01
  1.812081E-01
  1.879195E-01
  1.946309E-01
  2.013423E-01
  2.080537E-01
  2.147651E-01
  2.214765E-01
  2.281879E-01
  2.348993E-01
  2.416107E-01
  2.483221E-01
  2.550336E-01
  2.617450E-01
  2.684564E-01
  2.751678E-01
  2.818792E-01
  2.885906E-01
  2.953020E-01
  3.020134E-01
  3.087248E-01
  3.154362E-01
  3.221476E-01
  3.288591E-01
  3.355705E-01
  3.422819E-01
  3.489933E-01
  3.557047E-01
  3.624161E-01
  3.691275E-01
  3.758389E-01
  3.825503E-01
  3.892617E-01
  3.959732E-01
  4.026846E-01
  4.093960E-01
  4.161074E-01
  4.228188E-01
  4.295302E-01
  4.362416E-01
  4.429530E-01
  4.496644E-01
  4.563758E-01
  4.630872E-01
  4.697987E-01
  4.765101E-01
  4.832215E-01
  4.899329E-01
  4.966443E-01
  5.033557E-01
  5.100671E-01
  5.167785E-01
  5.234899E-01
  5.302013E-01
  5.369128E-01
  5.436242E-01
  5.503356E-01
  5.570470E-01
  5.637584E-01
  5.704698E-01
  5.771812E-01
  5.838926E-01
  5.906040E-01
  5.973154E-01
  6.040268E-01
  6.107383E-01
  6.174497E-01
  6.241611E-01
  6.308725E-01
  6.375839E-01
  6.442953E-01
  6.510067E-01
  6.577181E-01
  6.644295E-01
  6.711409E-01
  6.778524E-01
  6.845638E-01
  6.912752E-01
  6.979866E-01
  7.046980E-01
  7.114094E-01
  7.181208E-01
  7.248322E-01
  7.315436E-01
  7.382550E-01
  7.449664E-01
  7.516779E-01
  7.583893E-01
  7.651007E-01
  7.718121E-01
  7.785235E-01
  7.852349E-01
  7.919463E-01
  7.986577E-01
  8.053691E-01
  8.120805E-01
  8.187919E-01
  8.255034E-01
  8.322148E-01
  8.389262E-01
  8.456376E-01
  8.523490E-01
  8.590604E-01
  8.657718E-01
  8.724832E-01
  8.791946E-01
  8.859060E-01
  8.926175E-01
  8.993289E-01
  9.060403E-01
  9.127517E-01
  9.194631E-01
  9.261745E-01
  9.328859E-01
  9.395973E-01
  9.463087E-01
  9.530201E-01
  9.597315E-01
  9.664430E-01
  9.731544E-01
  9.798658E-01
  9.865772E-01
  9.932886E-01
  1.000000E+00
  0.000000E+00
  0.000000E+00
  0.000000E+00
  0.000000E+00
  0.000000E+00
  0.000000E+00
  0.000000E+00
  0.000000E+00
  0.000000E+00
  0.000000E+00
  0.000000E+00
  0.000000E+00
  0.000000E+00
  0.000000E+00
  0.000000E+00
  0.000000E+00
  0.000000E+00
  0.000000E+00
  0.000000E+00
  0.000000E+00
  0.000000E+00
  0.000000E+00
  0.000000E+00
  0.000000E+00
  0.000000E+00
  0.000000E+00
  0.000000E+00
  0.000000E+00
  0.000000E+00
  0.000000E+00
  0.000000E+00
  0.000000E+00
  0.000000E+00
  0.000000E+00
  0.000000E+00
  0.000000E+00
  0.000000E+00
  0.000000E+00
  0.000000E+00
  0.000000E+00
  0.000000E+00
  0.000000E+00
  0.000000E+00
  0.000000E+00
  0.000000E+00
  0.000000E+00
  0.000000E+00
  0.000000E+00
  0.000000E+00
  0.000000E+00
  0.000000E+00
  0.000000E+00
  0.000000E+00
  0.000000E+00
  0.000000E+00
  0.000000E+00
  0.000000E+00
  0.000000E+00
  0.000000E+00
  0.000000E+00
  0.000000E+00
  0.000000E+00
  0.000000E+00
  0.000000E+00
  0.000000E+00
  0.000000E+00
  0.000000E+00
  0.000000E+00
  0.000000E+00
  0.000000E+00
  0.000000E+00
  0.000000E+00
  0.000000E+00
  0.000000E+00
  0.000000E+00
  0.000000E+00
  0.000000E+00
  0.000000E+00
  0.000000E+00
  0.000000E+00
  0.000000E+00
  0.000000E+00
  0.000000E+00
  0.000000E+00
  0.000000E+00
  0.000000E+00
  0.000000E+00
  0.000000E+00
  0.000000E+00
  0.000000E+00
  0.000000E+00
  0.000000E+00
  0.000000E+00
  0.000000E+00
  0.000000E+00
  0.000000E+00
  0.000000E+00
  0.000000E+00
  0.000000E+00
  0.000000E+00
  0.000000E+00
  0.000000E+00
  0.000000E+00
  0.000000E+00
  0.000000E+00
  0.000000E+00
  0.000000E+00
  0.000000E+00
  0.000000E+00
  0.000000E+00
  0.000000E+00
  0.000000E+00
  0.000000E+00
  0.000000E+00
  0.000000E+00
  0.000000E+00
  0.000000E+00
  0.000000E+00
  0.000000E+00
  0.000000E+00
  0.000000E+00
  0.000000E+00
  0.000000E+00
  0.000000E+00
  0.000000E+00
  0.000000E+00
  0.000000E+00
  0.000000E+00
  0.000000E+00
  0.000000E+00
  0.000000E+00
  0.000000E+00
  0.000000E+00
  0.000000E+00
  0.000000E+00
  0.000000E+00
  0.000000E+00
  0.000000E+00
  0.000000E+00
  0.000000E+00
  0.000000E+00
  0.000000E+00
  0.000000E+00
  0.000000E+00
  0.000000E+00
  0.000000E+00
  0.000000E+00
  0.000000E+00
  0.000000E+00
  0.000000E+00
  0.000000E+00
  0.000000E+00
  0.000000E+00
  0.000000E+00
  0.000000E+00
  0.000000E+00
  0.000000E+00
  0.000000E+00
  0.000000E+00
  0.000000E+00
  0.000000E+00
  0.000000E+00
  0.000000E+00
  0.000000E+00
  0.000000E+00
  0.000000E+00
  0.000000E+00
  0.000000E+00
  0.000000E+00
  0.000000E+00
  0.000000E+00
  0.000000E+00
  0.000000E+00
  0.000000E+00
  0.000000E+00
  0.000000E+00
  0.000000E+00
  0.000000E+00
  0.000000E+00
  0.000000E+00
  0.000000E+00
  0.000000E+00
  0.000000E+00
  0.000000E+00
  0.000000E+00
  0.000000E+00
  0.000000E+00
  0.000000E+00
  0.000000E+00
  0.000000E+00
  0.000000E+00
  0.000000E+00
  0.000000E+00
  0.000000E+00
  0.000000E+00
  0.000000E+00
  0.000000E+00
  0.000000E+00
  0.000000E+00
  0.000000E+00
  0.000000E+00
  0.000000E+00
  0.000000E+00
  0.000000E+00
  0.000000E+00
  0.000000E+00
  0.000000E+00
  0.000000E+00
  0.000000E+00
  0.000000E+00
  0.000000E+00
  0.000000E+00
  0.000000E+00
  0.000000E+00
  0.000000E+00
  0.000000E+00
  0.000000E+00
  0.000000E+00
  0.000000E+00
  0.000000E+00
  0.000000E+00
  0.000000E+00
  0.000000E+00
  0.000000E+00
  0.000000E+00
  0.000000E+00
  0.000000E+00
  0.000000E+00
  0.000000E+00
  0.000000E+00
  0.000000E+00
  0.000000E+00
  0.000000E+00
  0.000000E+00
  0.000000E+00
  0.000000E+00
  0.000000E+00
  0.000000E+00
  0.000000E+00
  0.000000E+00
  0.000000E+00
  0.000000E+00
  0.000000E+00
  0.000000E+00
  0.000000E+00
  0.000000E+00
  0.000000E+00
  0.000000E+00
  0.000000E+00
  0.000000E+00
  0.000000E+00
  0.000000E+00
  0.000000E+00
  0.000000E+00
  0.000000E+00
  0.000000E+00
  0.000000E+00
  0.000000E+00
  0.000000E+00
  0.000000E+00
  0.000000E+00
  0.000000E+00
  0.000000E+00
  0.000000E+00
  0.000000E+00
  0.000000E+00
  0.000000E+00
  0.000000E+00
  0.000000E+00
  0.000000E+00
  0.000000E+00
  0.000000E+00
  0.000000E+00
  0.000000E+00
  0.000000E+00
  0.000000E+00
  0.000000E+00
  0.000000E+00
  0.000000E+00
  0.000000E+00
  0.000000E+00
  0.000000E+00
  0.000000E+00
  0.000000E+00
  0.000000E+00
  0.000000E+00
  0.000000E+00
  0.000000E+00
  0.000000E+00
  0.000000E+00
  0.000000E+00
  0.000000E+00
  0.000000E+00
  0.000000E+00
  0.000000E+00
  0.000000E+00
  0.000000E+00
  0.000000E+00
  0.000000E+00
  0.000000E+00
  1.000000E-08
  1.695085E-02
  3.390169E-02
  5.085254E-02
  6.780338E-02
  8.475423E-02
  1.017051E-01
  1.186559E-01
  1.356068E-01
  1.525576E-01
  1.695085E-01
  1.864593E-01
  2.034101E-01
  2.203610E-01
  2.373118E-01
  2.542627E-01
  2.712135E-01
  2.881644E-01
  3.051152E-01
  3.220661E-01
  3.390169E-01
  3.559678E-01
  3.729186E-01
  3.898694E-01
  4.068203E-01
  4.237711E-01
  4.407220E-01
  4.576728E-01
  4.746237E-01
  4.915745E-01
  5.085254E-01
  5.254762E-01
  5.424271E-01
  5.593779E-01
  5.763287E-01
  5.932796E-01
  6.102304E-01
  6.271813E-01
  6.441321E-01
  6.610830E-01
  6.780338E-01
  6.949847E-01
  7.119355E-01
  7.288864E-01
  7.458372E-01
  7.627880E-01
  7.797389E-01
  7.966897E-01
  8.136406E-01
  8.305914E-01
  8.475423E-01
  8.644931E-01
  8.814440E-01
  8.983948E-01
  9.153457E-01
  9.322965E-01
  9.492473E-01
  9.661982E-01
  9.831490E-01
  1.000100E+00
  1.017051E+00
  1.034002E+00
  1.050952E+00
  1.067903E+00
  1.084854E+00
  1.101805E+00
  1.118756E+00
  1.135707E+00
  1.152657E+00
  1.169608E+00
  1.186559E+00
  1.203510E+00
  1.220461E+00
  1.237412E+00
  1.254363E+00
  1.271313E+00
  1.288264E+00
  1.305215E+00
  1.322166E+00
  1.339117E+00
  1.356068E+00
  1.373018E+00
  1.389969E+00
  1.406920E+00
  1.423871E+00
  1.440822E+00
  1.457773E+00
  1.474724E+00
  1.491674E+00
  1.508625E+00
  1.525576E+00
  1.542527E+00
  1.559478E+00
  1.576429E+00
  1.593379E+00
  1.610330E+00
  1.627281E+00
  1.644232E+00
  1.661183E+00
  1.678134E+00
  1.695085E+00
  1.712035E+00
  1.728986E+00
  1.745937E+00
  1.762888E+00
  1.779839E+00
  1.796790E+00
  1.813740E+00
  1.830691E+00
  1.847642E+00
  1.864593E+00
  1.881544E+00
  1.898495E+00
  1.915446E+00
  1.932396E+00
  1.949347E+00
  1.966298E+00
  1.983249E+00
  2.000200E+00
  2.017151E+00
  2.034101E+00
  2.051052E+00
  2.068003E+00
  2.084954E+00
  2.101905E+00
  2.118856E+00
  2.135807E+00
  2.152757E+00
  2.169708E+00
  2.186659E+00
  2.203610E+00
  2.220561E+00
  2.237512E+00
  2.254462E+00
  2.271413E+00
  2.288364E+00
  2.305315E+00
  2.322266E+00
  2.339217E+00
  2.356168E+00
  2.373118E+00
  2.390069E+00
  2.407020E+00
  2.423971E+00
  2.440922E+00
  2.457873E+00
  2.474823E+00
  2.491774E+00
  2.508725E+00
  2.525676E+00
  1.106363E+04
  1.106174E+04
  1.105986E+04
  1.105798E+04
  1.105609E+04
  1.105421E+04
  1.105233E+04
  1.105044E+04
  1.104856E+04
  1.104309E+04
  1.103753E+04
  1.103197E+04
  1.102641E+04
  1.102085E+04
  1.101529E+04
  1.100973E+04
  1.100301E+04
  1.099418E+04
  1.098534E+04
  1.097650E+04
  1.096766E+04
  1.095882E+04
  1.094998E+04
  1.094078E+04
  1.092869E+04
  1.091660E+04
  1.090451E+04
  1.089242E+04
  1.088033E+04
  1.086824E+04
  1.085535E+04
  1.083982E+04
  1.082428E+04
  1.080874E+04
  1.079320E+04
  1.077767E+04
  1.076213E+04
  1.074418E+04
  1.072516E+04
  1.070615E+04
  1.068714E+04
  1.066813E+04
  1.064912E+04
  1.062848E+04
  1.060611E+04
  1.058374E+04
  1.056138E+04
  1.053901E+04
  1.051665E+04
  1.049234E+04
  1.046665E+04
  1.044098E+04
  1.041530E+04
  1.038962E+04
  1.036395E+04
  1.033502E+04
  1.030604E+04
  1.027706E+04
  1.024808E+04
  1.021911E+04
  1.018802E+04
  1.015585E+04
  1.012368E+04
  1.009151E+04
  1.005935E+04
  1.002525E+04
  9.989886E+03
  9.954521E+03
  9.919160E+03
  9.883802E+03
  9.845692E+03
  9.806893E+03
  9.768098E+03
  9.729305E+03
  9.689658E+03
  9.647227E+03
  9.604799E+03
  9.562372E+03
  9.519947E+03
  9.474171E+03
  9.428022E+03
  9.381875E+03
  9.335728E+03
  9.286658E+03
  9.236766E+03
  9.186876E+03
  9.136987E+03
  9.084117E+03
  9.030792E+03
  8.977469E+03
  8.923713E+03
  8.867479E+03
  8.811251E+03
  8.755028E+03
  8.697148E+03
  8.638252E+03
  8.579367E+03
  8.519801E+03
  8.458308E+03
  8.396840E+03
  8.335217E+03
  8.271427E+03
  8.207674E+03
  8.143835E+03
  8.077570E+03
  8.011349E+03
  7.944598E+03
  7.875103E+03
  7.805654E+03
  7.734487E+03
  7.661104E+03
  7.587760E+03
  7.510792E+03
  7.433170E+03
  7.353909E+03
  7.271898E+03
  7.189768E+03
  7.103401E+03
  7.017054E+03
  6.927256E+03
  6.836644E+03
  6.743124E+03
  6.648319E+03
  6.550685E+03
  6.451748E+03
  6.349743E+03
  6.246857E+03
  6.140457E+03
  6.033132E+03
  5.923293E+03
  5.811637E+03
  5.698650E+03
  5.582987E+03
  5.465729E+03
  5.346784E+03
  5.225412E+03
  5.101430E+03
  4.975171E+03
  4.846826E+03
  4.717700E+03
  4.592123E+03
  4.480469E+03
  4.400491E+03
  4.387492E+03
  4.478633E+03
  4.442510E+03
  4.002278E+03
  4.497650E+03
  1.345967E+03
 -1.147049E-04
  6.307942E+02
  6.307076E+02
  6.306210E+02
  6.305344E+02
  6.304478E+02
  6.303612E+02
  6.302746E+02
  6.301880E+02
  6.301014E+02
  6.299243E+02
  6.297450E+02
  6.295656E+02
  6.293862E+02
  6.292069E+02
  6.290276E+02
  6.288482E+02
  6.286738E+02
  6.285086E+02
  6.283433E+02
  6.281780E+02
  6.280127E+02
  6.278474E+02
  6.276821E+02
  6.275145E+02
  6.273281E+02
  6.271417E+02
  6.269553E+02
  6.267688E+02
  6.265824E+02
  6.263959E+02
  6.261900E+02
  6.259193E+02
  6.256486E+02
  6.253778E+02
  6.251071E+02
  6.248363E+02
  6.245654E+02
  6.242298E+02
  6.238658E+02
  6.235017E+02
  6.231375E+02
  6.227733E+02
  6.224091E+02
  6.219882E+02
  6.215076E+02
  6.210269E+02
  6.205462E+02
  6.200653E+02
  6.195844E+02
  6.189785E+02
  6.182849E+02
  6.175912E+02
  6.168974E+02
  6.162035E+02
  6.155095E+02
  6.145047E+02
  6.134950E+02
  6.124852E+02
  6.114753E+02
  6.104653E+02
  6.092462E+02
  6.079199E+02
  6.065935E+02
  6.052670E+02
  6.039404E+02
  6.024610E+02
  6.008812E+02
  5.993013E+02
  5.977212E+02
  5.961410E+02
  5.944346E+02
  5.926964E+02
  5.909579E+02
  5.892191E+02
  5.874781E+02
  5.857304E+02
  5.839823E+02
  5.822339E+02
  5.804851E+02
  5.787401E+02
  5.769953E+02
  5.752503E+02
  5.735050E+02
  5.716051E+02
  5.696616E+02
  5.677179E+02
  5.657739E+02
  5.634939E+02
  5.611622E+02
  5.588305E+02
  5.564230E+02
  5.535855E+02
  5.507488E+02
  5.479128E+02
  5.446148E+02
  5.410333E+02
  5.374548E+02
  5.336435E+02
  5.291766E+02
  5.247168E+02
  5.202168E+02
  5.151483E+02
  5.100905E+02
  5.050329E+02
  4.997764E+02
  4.945315E+02
  4.893057E+02
  4.841274E+02
  4.789591E+02
  4.739143E+02
  4.690229E+02
  4.641386E+02
  4.596283E+02
  4.551909E+02
  4.509618E+02
  4.470743E+02
  4.432071E+02
  4.399218E+02
  4.366346E+02
  4.338584E+02
  4.312017E+02
  4.289617E+02
  4.269049E+02
  4.252094E+02
  4.236803E+02
  4.225321E+02
  4.214951E+02
  4.209390E+02
  4.205354E+02
  4.205482E+02
  4.209412E+02
  4.216272E+02
  4.230162E+02
  4.249206E+02
  4.273952E+02
  4.307554E+02
  4.351974E+02
  4.407934E+02
  4.479450E+02
  4.573884E+02
  4.705997E+02
  4.904210E+02
  5.215030E+02
  5.720354E+02
  6.500210E+02
  7.187365E+02
  7.316360E+02
  8.834949E+02
  2.136042E+02
  3.892070E-04
  1.805877E+03
  1.805362E+03
  1.804848E+03
  1.804334E+03
  1.803819E+03
  1.803305E+03
  1.802791E+03
  1.802276E+03
  1.801762E+03
  1.800447E+03
  1.799113E+03
  1.797778E+03
  1.796443E+03
  1.795109E+03
  1.793774E+03
  1.792440E+03
  1.790904E+03
  1.789000E+03
  1.787095E+03
  1.785191E+03
  1.783286E+03
  1.781382E+03
  1.779478E+03
  1.777497E+03
  1.774908E+03
  1.772319E+03
  1.769729E+03
  1.767140E+03
  1.764551E+03
  1.761962E+03
  1.759191E+03
  1.755818E+03
  1.752445E+03
  1.749072E+03
  1.745699E+03
  1.742326E+03
  1.738953E+03
  1.735047E+03
  1.730908E+03
  1.726770E+03
  1.722631E+03
  1.718493E+03
  1.714355E+03
  1.709887E+03
  1.705073E+03
  1.700259E+03
  1.695445E+03
  1.690631E+03
  1.685818E+03
  1.680690E+03
  1.675343E+03
  1.669996E+03
  1.664649E+03
  1.659303E+03
  1.653957E+03
  1.648275E+03
  1.642589E+03
  1.636903E+03
  1.631218E+03
  1.625533E+03
  1.619720E+03
  1.613841E+03
  1.607964E+03
  1.602087E+03
  1.596211E+03
  1.590199E+03
  1.584098E+03
  1.577998E+03
  1.571899E+03
  1.565800E+03
  1.559474E+03
  1.553091E+03
  1.546708E+03
  1.540327E+03
  1.533915E+03
  1.527406E+03
  1.520896E+03
  1.514387E+03
  1.507879E+03
  1.501337E+03
  1.494792E+03
  1.488247E+03
  1.481702E+03
  1.474987E+03
  1.468225E+03
  1.461463E+03
  1.454701E+03
  1.447795E+03
  1.440868E+03
  1.433941E+03
  1.427037E+03
  1.420257E+03
  1.413479E+03
  1.406704E+03
  1.399957E+03
  1.393230E+03
  1.386509E+03
  1.379683E+03
  1.372559E+03
  1.365446E+03
  1.358303E+03
  1.350681E+03
  1.343077E+03
  1.335460E+03
  1.327279E+03
  1.319119E+03
  1.310793E+03
  1.301578E+03
  1.292385E+03
  1.282526E+03
  1.271805E+03
  1.261102E+03
  1.248923E+03
  1.236478E+03
  1.223364E+03
  1.209124E+03
  1.194836E+03
  1.178838E+03
  1.162846E+03
  1.145574E+03
  1.127998E+03
  1.109543E+03
  1.090698E+03
  1.071226E+03
  1.051464E+03
  1.031281E+03
  1.010978E+03
  9.905494E+02
  9.701933E+02
  9.500732E+02
  9.304034E+02
  9.110882E+02
  8.928434E+02
  8.754225E+02
  8.589006E+02
  8.437614E+02
  8.302131E+02
  8.183148E+02
  8.087211E+02
  8.028597E+02
  8.040269E+02
  8.193291E+02
  8.606877E+02
  9.465684E+02
  1.091263E+03
  1.201909E+03
  1.134077E+03
  1.284940E+03
  2.073854E+02
 -8.392458E-11
  1.244969E+00
  1.244757E+00
  1.244545E+00
  1.244333E+00
  1.244121E+00
  1.243910E+00
  1.243698E+00
  1.243486E+00
  1.243274E+00
  1.242658E+00
  1.242032E+00
  1.241407E+00
  1.240781E+00
  1.240156E+00
  1.239530E+00
  1.238904E+00
  1.238149E+00
  1.237154E+00
  1.236159E+00
  1.235165E+00
  1.234170E+00
  1.233176E+00
  1.232181E+00
  1.231146E+00
  1.229785E+00
  1.228425E+00
  1.227064E+00
  1.225704E+00
  1.224343E+00
  1.222983E+00
  1.221533E+00
  1.219784E+00
  1.218036E+00
  1.216287E+00
  1.214539E+00
  1.212791E+00
  1.211042E+00
  1.209022E+00
  1.206883E+00
  1.204743E+00
  1.202604E+00
  1.200465E+00
  1.198326E+00
  1.196003E+00
  1.193486E+00
  1.190969E+00
  1.188452E+00
  1.185935E+00
  1.183419E+00
  1.180683E+00
  1.177793E+00
  1.174903E+00
  1.172014E+00
  1.169125E+00
  1.166236E+00
  1.162980E+00
  1.159719E+00
  1.156458E+00
  1.153197E+00
  1.149937E+00
  1.146439E+00
  1.142818E+00
  1.139199E+00
  1.135579E+00
  1.131960E+00
  1.128123E+00
  1.124143E+00
  1.120164E+00
  1.116184E+00
  1.112206E+00
  1.107917E+00
  1.103551E+00
  1.099186E+00
  1.094820E+00
  1.090359E+00
  1.085584E+00
  1.080810E+00
  1.076036E+00
  1.071262E+00
  1.066111E+00
  1.060918E+00
  1.055725E+00
  1.050532E+00
  1.045010E+00
  1.039396E+00
  1.033782E+00
  1.028168E+00
  1.022219E+00
  1.016218E+00
  1.010218E+00
  1.004169E+00
  9.978408E-01
  9.915135E-01
  9.851868E-01
  9.786738E-01
  9.720463E-01
  9.654201E-01
  9.587172E-01
  9.517976E-01
  9.448807E-01
  9.379464E-01
  9.307681E-01
  9.235941E-01
  9.164105E-01
  9.089538E-01
  9.015021E-01
  8.939907E-01
  8.861706E-01
  8.783556E-01
  8.703473E-01
  8.620896E-01
  8.538364E-01
  8.451753E-01
  8.364407E-01
  8.275215E-01
  8.182931E-01
  8.090511E-01
  7.993324E-01
  7.896160E-01
  7.795111E-01
  7.693148E-01
  7.587911E-01
  7.481229E-01
  7.371362E-01
  7.260031E-01
  7.145247E-01
  7.029471E-01
  6.909742E-01
  6.788970E-01
  6.665370E-01
  6.539726E-01
  6.412584E-01
  6.282430E-01
  6.150483E-01
  6.016636E-01
  5.880059E-01
  5.740544E-01
  5.598466E-01
  5.454042E-01
  5.308740E-01
  5.167429E-01
  5.041788E-01
  4.951790E-01
  4.937163E-01
  5.039722E-01
  4.999073E-01
  4.503688E-01
  5.061121E-01
  1.514592E-01
 -1.290753E-08
  1.126257E+00
  1.126103E+00
  1.125948E+00
  1.125794E+00
  1.125639E+00
  1.125484E+00
  1.125330E+00
  1.125175E+00
  1.125021E+00
  1.124704E+00
  1.124384E+00
  1.124064E+00
  1.123744E+00
  1.123423E+00
  1.123103E+00
  1.122783E+00
  1.122472E+00
  1.122177E+00
  1.121881E+00
  1.121586E+00
  1.121291E+00
  1.120996E+00
  1.120701E+00
  1.120402E+00
  1.120069E+00
  1.119736E+00
  1.119403E+00
  1.119070E+00
  1.118737E+00
  1.118405E+00
  1.118037E+00
  1.117554E+00
  1.117070E+00
  1.116587E+00
  1.116103E+00
  1.115620E+00
  1.115136E+00
  1.114537E+00
  1.113887E+00
  1.113237E+00
  1.112587E+00
  1.111936E+00
  1.111286E+00
  1.110535E+00
  1.109677E+00
  1.108818E+00
  1.107960E+00
  1.107102E+00
  1.106243E+00
  1.105161E+00
  1.103923E+00
  1.102684E+00
  1.101445E+00
  1.100206E+00
  1.098967E+00
  1.097173E+00
  1.095370E+00
  1.093567E+00
  1.091764E+00
  1.089961E+00
  1.087784E+00
  1.085416E+00
  1.083048E+00
  1.080680E+00
  1.078311E+00
  1.075670E+00
  1.072849E+00
  1.070028E+00
  1.067207E+00
  1.064386E+00
  1.061339E+00
  1.058235E+00
  1.055131E+00
  1.052027E+00
  1.048918E+00
  1.045798E+00
  1.042677E+00
  1.039555E+00
  1.036433E+00
  1.033317E+00
  1.030202E+00
  1.027086E+00
  1.023970E+00
  1.020578E+00
  1.017108E+00
  1.013637E+00
  1.010166E+00
  1.006095E+00
  1.001932E+00
  9.977692E-01
  9.934707E-01
  9.884045E-01
  9.833396E-01
  9.782760E-01
  9.723877E-01
  9.659931E-01
  9.596038E-01
  9.527989E-01
  9.448234E-01
  9.368605E-01
  9.288260E-01
  9.197763E-01
  9.107460E-01
  9.017158E-01
  8.923304E-01
  8.829660E-01
  8.736355E-01
  8.643898E-01
  8.551621E-01
  8.461547E-01
  8.374214E-01
  8.287006E-01
  8.206478E-01
  8.127249E-01
  8.051740E-01
  7.982330E-01
  7.913283E-01
  7.854625E-01
  7.795935E-01
  7.746366E-01
  7.698931E-01
  7.658938E-01
  7.622214E-01
  7.591942E-01
  7.564641E-01
  7.544139E-01
  7.525625E-01
  7.515695E-01
  7.508489E-01
  7.508718E-01
  7.515734E-01
  7.527984E-01
  7.552782E-01
  7.586785E-01
  7.630967E-01
  7.690964E-01
  7.770273E-01
  7.870188E-01
  7.997876E-01
  8.166485E-01
  8.402366E-01
  8.756269E-01
  9.311224E-01
  1.021346E+00
  1.160586E+00
  1.283275E+00
  1.306307E+00
  1.577444E+00
  3.813816E-01
  6.949133E-07
  1.244075E+00
  1.243720E+00
  1.243366E+00
  1.243012E+00
  1.242657E+00
  1.242303E+00
  1.241949E+00
  1.241594E+00
  1.241240E+00
  1.240334E+00
  1.239415E+00
  1.238495E+00
  1.237576E+00
  1.236657E+00
  1.235737E+00
  1.234818E+00
  1.233760E+00
  1.232448E+00
  1.231136E+00
  1.229824E+00
  1.228512E+00
  1.227200E+00
  1.225888E+00
  1.224524E+00
  1.222740E+00
  1.220956E+00
  1.219173E+00
  1.217389E+00
  1.215605E+00
  1.213822E+00
  1.211913E+00
  1.209589E+00
  1.207265E+00
  1.204942E+00
  1.202618E+00
  1.200294E+00
  1.197971E+00
  1.195280E+00
  1.192429E+00
  1.189578E+00
  1.186727E+00
  1.183876E+00
  1.181025E+00
  1.177947E+00
  1.174630E+00
  1.171314E+00
  1.167998E+00
  1.164681E+00
  1.161365E+00
  1.157833E+00
  1.154149E+00
  1.150466E+00
  1.146782E+00
  1.143099E+00
  1.139417E+00
  1.135503E+00
  1.131585E+00
  1.127668E+00
  1.123751E+00
  1.119835E+00
  1.115831E+00
  1.111781E+00
  1.107732E+00
  1.103683E+00
  1.099635E+00
  1.095493E+00
  1.091291E+00
  1.087088E+00
  1.082886E+00
  1.078685E+00
  1.074327E+00
  1.069930E+00
  1.065533E+00
  1.061136E+00
  1.056719E+00
  1.052235E+00
  1.047751E+00
  1.043267E+00
  1.038783E+00
  1.034276E+00
  1.029767E+00
  1.025258E+00
  1.020750E+00
  1.016124E+00
  1.011465E+00
  1.006807E+00
  1.002148E+00
  9.973909E-01
  9.926186E-01
  9.878469E-01
  9.830906E-01
  9.784200E-01
  9.737508E-01
  9.690830E-01
  9.644349E-01
  9.598011E-01
  9.551707E-01
  9.504684E-01
  9.455607E-01
  9.406604E-01
  9.357397E-01
  9.304889E-01
  9.252501E-01
  9.200030E-01
  9.143670E-01
  9.087456E-01
  9.030095E-01
  8.966618E-01
  8.903288E-01
  8.835366E-01
  8.761505E-01
  8.687773E-01
  8.603872E-01
  8.518142E-01
  8.427795E-01
  8.329699E-01
  8.231266E-01
  8.121057E-01
  8.010888E-01
  7.891900E-01
  7.770819E-01
  7.643679E-01
  7.513856E-01
  7.379710E-01
  7.243574E-01
  7.104530E-01
  6.964663E-01
  6.823929E-01
  6.683695E-01
  6.545087E-01
  6.409581E-01
  6.276518E-01
  6.150829E-01
  6.030815E-01
  5.916996E-01
  5.812701E-01
  5.719366E-01
  5.637399E-01
  5.571307E-01
  5.530928E-01
  5.538969E-01
  5.644386E-01
  5.929307E-01
  6.520942E-01
  7.517745E-01
  8.279992E-01
  7.812698E-01
  8.851993E-01
  1.428685E-01
 -5.781593E-14
  9.892588E-01
  9.890904E-01
  9.889220E-01
  9.887536E-01
  9.885851E-01
  9.884167E-01
  9.882484E-01
  9.880800E-01
  9.879116E-01
  9.874224E-01
  9.869253E-01
  9.864282E-01
  9.859311E-01
  9.854340E-01
  9.849369E-01
  9.844399E-01
  9.838393E-01
  9.830490E-01
  9.822587E-01
  9.814684E-01
  9.806782E-01
  9.798879E-01
  9.790977E-01
  9.782751E-01
  9.771941E-01
  9.761130E-01
  9.750320E-01
  9.739510E-01
  9.728700E-01
  9.717890E-01
  9.706368E-01
  9.692475E-01
  9.678582E-01
  9.664690E-01
  9.650798E-01
  9.636906E-01
  9.623015E-01
  9.606962E-01
  9.589962E-01
  9.572964E-01
  9.555966E-01
  9.538968E-01
  9.521972E-01
  9.503513E-01
  9.483513E-01
  9.463514E-01
  9.443517E-01
  9.423520E-01
  9.403525E-01
  9.381784E-01
  9.358822E-01
  9.335861E-01
  9.312902E-01
  9.289945E-01
  9.266990E-01
  9.241119E-01
  9.215205E-01
  9.189294E-01
  9.163384E-01
  9.137477E-01
  9.109679E-01
  9.080912E-01
  9.052148E-01
  9.023387E-01
  8.994628E-01
  8.964138E-01
  8.932513E-01
  8.900891E-01
  8.869272E-01
  8.837655E-01
  8.803578E-01
  8.768886E-01
  8.734196E-01
  8.699508E-01
  8.664057E-01
  8.626117E-01
  8.588179E-01
  8.550242E-01
  8.512307E-01
  8.471377E-01
  8.430113E-01
  8.388850E-01
  8.347588E-01
  8.303712E-01
  8.259101E-01
  8.214491E-01
  8.169883E-01
  8.122608E-01
  8.074926E-01
  8.027247E-01
  7.979179E-01
  7.928894E-01
  7.878614E-01
  7.828339E-01
  7.776581E-01
  7.723911E-01
  7.671252E-01
  7.617981E-01
  7.562983E-01
  7.508005E-01
  7.452887E-01
  7.395825E-01
  7.338794E-01
  7.281685E-01
  7.222401E-01
  7.163156E-01
  7.103434E-01
  7.041259E-01
  6.979122E-01
  6.915451E-01
  6.849801E-01
  6.784185E-01
  6.715335E-01
  6.645902E-01
  6.575007E-01
  6.501662E-01
  6.428210E-01
  6.350982E-01
  6.273773E-01
  6.193488E-01
  6.112478E-01
  6.028876E-01
  5.944128E-01
  5.856857E-01
  5.768424E-01
  5.677253E-01
  5.585294E-01
  5.490198E-01
  5.394272E-01
  5.296100E-01
  5.196302E-01
  5.095311E-01
  4.991926E-01
  4.887112E-01
  4.780785E-01
  4.672285E-01
  4.561446E-01
  4.448566E-01
  4.333816E-01
  4.218363E-01
  4.106073E-01
  4.006228E-01
  3.934701E-01
  3.923058E-01
  4.004524E-01
  3.972191E-01
  3.578530E-01
  4.021406E-01
  1.653040E-01
 -2.494964E-03
  5.640272E-02
  5.639498E-02
  5.638723E-02
  5.637949E-02
  5.637175E-02
  5.636401E-02
  5.635626E-02
  5.634852E-02
  5.634078E-02
  5.632495E-02
  5.630891E-02
  5.629287E-02
  5.627684E-02
  5.626080E-02
  5.624477E-02
  5.622873E-02
  5.621314E-02
  5.619837E-02
  5.618359E-02
  5.616881E-02
  5.615404E-02
  5.613926E-02
  5.612448E-02
  5.610949E-02
  5.609283E-02
  5.607616E-02
  5.605950E-02
  5.604283E-02
  5.602616E-02
  5.600950E-02
  5.599108E-02
  5.596688E-02
  5.594268E-02
  5.591848E-02
  5.589427E-02
  5.587006E-02
  5.584585E-02
  5.581584E-02
  5.578329E-02
  5.575074E-02
  5.571818E-02
  5.568562E-02
  5.565305E-02
  5.561543E-02
  5.557246E-02
  5.552948E-02
  5.548650E-02
  5.544351E-02
  5.540051E-02
  5.534633E-02
  5.528431E-02
  5.522229E-02
  5.516025E-02
  5.509821E-02
  5.503616E-02
  5.494631E-02
  5.485603E-02
  5.476574E-02
  5.467543E-02
  5.458512E-02
  5.447612E-02
  5.435752E-02
  5.423892E-02
  5.412031E-02
  5.400169E-02
  5.386940E-02
  5.372814E-02
  5.358686E-02
  5.344557E-02
  5.330427E-02
  5.315169E-02
  5.299626E-02
  5.284081E-02
  5.268533E-02
  5.252966E-02
  5.237338E-02
  5.221707E-02
  5.206073E-02
  5.190436E-02
  5.174833E-02
  5.159232E-02
  5.143629E-02
  5.128023E-02
  5.111036E-02
  5.093658E-02
  5.076278E-02
  5.058896E-02
  5.038508E-02
  5.017659E-02
  4.996809E-02
  4.975282E-02
  4.949909E-02
  4.924542E-02
  4.899181E-02
  4.869690E-02
  4.837661E-02
  4.805659E-02
  4.771574E-02
  4.731624E-02
  4.691737E-02
  4.651489E-02
  4.606154E-02
  4.560914E-02
  4.515674E-02
  4.468653E-02
  4.421735E-02
  4.374986E-02
  4.328662E-02
  4.282427E-02
  4.237296E-02
  4.193539E-02
  4.149844E-02
  4.109498E-02
  4.069803E-02
  4.031974E-02
  3.997203E-02
  3.962615E-02
  3.933236E-02
  3.903841E-02
  3.879021E-02
  3.855269E-02
  3.835251E-02
  3.816871E-02
  3.801726E-02
  3.788071E-02
  3.777825E-02
  3.768574E-02
  3.763626E-02
  3.760041E-02
  3.760181E-02
  3.763720E-02
  3.769879E-02
  3.782322E-02
  3.799373E-02
  3.821521E-02
  3.851585E-02
  3.891319E-02
  3.941369E-02
  4.005324E-02
  4.089769E-02
  4.207894E-02
  4.385118E-02
  4.663021E-02
  5.114830E-02
  5.812096E-02
  6.426454E-02
  6.541728E-02
  7.899440E-02
  2.623364E-02
  8.465701E-03
  1.614732E-01
  1.614272E-01
  1.613812E-01
  1.613352E-01
  1.612892E-01
  1.612433E-01
  1.611973E-01
  1.611513E-01
  1.611053E-01
  1.609877E-01
  1.608684E-01
  1.607491E-01
  1.606297E-01
  1.605104E-01
  1.603911E-01
  1.602718E-01
  1.601345E-01
  1.599642E-01
  1.597939E-01
  1.596236E-01
  1.594534E-01
  1.592831E-01
  1.591128E-01
  1.589357E-01
  1.587042E-01
  1.584727E-01
  1.582412E-01
  1.580097E-01
  1.577782E-01
  1.575467E-01
  1.572989E-01
  1.569973E-01
  1.566957E-01
  1.563941E-01
  1.560926E-01
  1.557910E-01
  1.554894E-01
  1.551402E-01
  1.547701E-01
  1.544001E-01
  1.540300E-01
  1.536600E-01
  1.532900E-01
  1.528905E-01
  1.524601E-01
  1.520296E-01
  1.515992E-01
  1.511688E-01
  1.507384E-01
  1.502799E-01
  1.498018E-01
  1.493237E-01
  1.488456E-01
  1.483676E-01
  1.478896E-01
  1.473815E-01
  1.468731E-01
  1.463647E-01
  1.458563E-01
  1.453480E-01
  1.448282E-01
  1.443026E-01
  1.437770E-01
  1.432516E-01
  1.427261E-01
  1.421886E-01
  1.416430E-01
  1.410976E-01
  1.405522E-01
  1.400069E-01
  1.394412E-01
  1.388704E-01
  1.382997E-01
  1.377291E-01
  1.371558E-01
  1.365737E-01
  1.359917E-01
  1.354097E-01
  1.348278E-01
  1.342428E-01
  1.336576E-01
  1.330723E-01
  1.324872E-01
  1.318867E-01
  1.312821E-01
  1.306774E-01
  1.300728E-01
  1.294553E-01
  1.288359E-01
  1.282165E-01
  1.275992E-01
  1.269929E-01
  1.263868E-01
  1.257809E-01
  1.251775E-01
  1.245760E-01
  1.239749E-01
  1.233644E-01
  1.227271E-01
  1.220909E-01
  1.214519E-01
  1.207700E-01
  1.200896E-01
  1.194081E-01
  1.186761E-01
  1.179459E-01
  1.172007E-01
  1.163762E-01
  1.155536E-01
  1.146714E-01
  1.137122E-01
  1.127546E-01
  1.116651E-01
  1.105519E-01
  1.093789E-01
  1.081054E-01
  1.068276E-01
  1.053971E-01
  1.039672E-01
  1.024229E-01
  1.008516E-01
  9.920174E-02
  9.751711E-02
  9.577649E-02
  9.401007E-02
  9.220599E-02
  9.039122E-02
  8.856526E-02
  8.674576E-02
  8.494739E-02
  8.318924E-02
  8.146277E-02
  7.983197E-02
  7.827479E-02
  7.679793E-02
  7.544464E-02
  7.423353E-02
  7.316989E-02
  7.231223E-02
  7.178823E-02
  7.189253E-02
  7.326062E-02
  7.695842E-02
  8.463701E-02
  9.757412E-02
  1.074665E-01
  1.014005E-01
  1.148881E-01
  2.546989E-02
 -1.825456E-09
  9.893891E-01
  9.892207E-01
  9.890524E-01
  9.888840E-01
  9.887157E-01
  9.885473E-01
  9.883790E-01
  9.882106E-01
  9.880423E-01
  9.875532E-01
  9.870563E-01
  9.865593E-01
  9.860624E-01
  9.855655E-01
  9.850686E-01
  9.845716E-01
  9.839713E-01
  9.831813E-01
  9.823912E-01
  9.816012E-01
  9.808113E-01
  9.800213E-01
  9.792313E-01
  9.784091E-01
  9.773284E-01