 Title = "ADflow Slice Data"
Variables =  "CoordinateX"  "CoordinateY"  "CoordinateZ"  "XoC"  "YoC"  "ZoC" "VelocityX" "VelocityY" "VelocityZ" "CoefPressure" "Mach" 
Zone T= "Slice_0001 None Relative Regular z = 0.10000000"
 Nodes =          114  Elements=          106  ZONETYPE=FELINESEG
 DATAPACKING=POINT
  7.301402E-01  6.759206E-02  1.000000E-01  7.450343E-01  5.910749E-02  1.416122E-17  2.556825E-02 -4.282510E-03 -1.820653E-04 -4.384100E-01  0.000000E+00
  7.043967E-01  7.175855E-02  1.000000E-01  7.187650E-01  6.335907E-02 -4.248367E-17  2.698524E-02 -4.208976E-03 -1.826618E-04 -4.748772E-01  0.000000E+00
  6.775455E-01  7.579516E-02  1.000000E-01  6.913654E-01  6.747813E-02  3.965142E-16  2.823117E-02 -4.087793E-03 -1.827743E-04 -5.094587E-01  0.000000E+00
  6.496792E-01  7.968006E-02  1.000000E-01  6.629300E-01  7.144237E-02  4.248367E-17  2.933147E-02 -3.945613E-03 -1.824648E-04 -5.447761E-01  0.000000E+00
  6.209097E-01  8.341222E-02  1.000000E-01  6.335729E-01  7.525076E-02 -2.832244E-17  3.037366E-02 -3.792081E-03 -1.817179E-04 -5.825679E-01  0.000000E+00
  5.913667E-01  8.696013E-02  1.000000E-01  6.034266E-01  7.887113E-02 -2.832244E-17  3.146720E-02 -3.619922E-03 -1.803401E-04 -6.230844E-01  0.000000E+00
  5.611982E-01  9.028232E-02  1.000000E-01  5.726419E-01  8.226117E-02  0.000000E+00  3.269758E-02 -3.424438E-03 -1.778781E-04 -6.672179E-01  0.000000E+00
  5.305654E-01  9.332965E-02  1.000000E-01  5.413834E-01  8.537074E-02 -5.664489E-17  3.413325E-02 -3.199709E-03 -1.737113E-04 -7.167666E-01  0.000000E+00
  4.996398E-01  9.605519E-02  1.000000E-01  5.098262E-01  8.815194E-02  0.000000E+00  3.584326E-02 -2.925082E-03 -1.671871E-04 -7.729562E-01  0.000000E+00
  4.685986E-01  9.839060E-02  1.000000E-01  4.781510E-01  9.053504E-02  1.416122E-17  3.788552E-02 -2.558129E-03 -1.577333E-04 -8.344075E-01  0.000000E+00
  4.376215E-01  1.002493E-01  1.000000E-01  4.465413E-01  9.243172E-02 -8.496733E-17  4.025227E-02 -2.053642E-03 -1.449194E-04 -8.976724E-01  0.000000E+00
  4.068895E-01  1.015479E-01  1.000000E-01  4.151817E-01  9.375681E-02  0.000000E+00  4.284351E-02 -1.378301E-03 -1.286318E-04 -9.586291E-01  0.000000E+00
  3.765814E-01  1.022219E-01  1.000000E-01  3.842545E-01  9.444459E-02 -5.664489E-17  4.548402E-02 -5.364389E-04 -1.093689E-04 -1.015316E+00  0.000000E+00
  3.468696E-01  1.022616E-01  1.000000E-01  3.539360E-01  9.448515E-02 -5.664489E-17  4.803357E-02  4.554926E-04 -8.848253E-05 -1.066864E+00  0.000000E+00
  3.179133E-01  1.016692E-01  1.000000E-01  3.243883E-01  9.388066E-02 -2.832244E-17  5.045028E-02  1.595843E-03 -6.791146E-05 -1.112686E+00  0.000000E+00
  2.898519E-01  1.004593E-01  1.000000E-01  2.957537E-01  9.264599E-02 -4.248367E-17  5.274230E-02  2.869098E-03 -4.940611E-05 -1.155555E+00  0.000000E+00
  2.628044E-01  9.866980E-02  1.000000E-01  2.681538E-01  9.081995E-02  0.000000E+00  5.496728E-02  4.265492E-03 -3.396045E-05 -1.199269E+00  0.000000E+00
  9.800000E-01  1.200097E-02  1.000000E-01  9.999972E-01  2.381031E-03 -2.832244E-17  1.058799E-02 -1.318151E-02 -1.938276E-04 -5.648787E-02  0.000000E+00
  9.720124E-01  1.413184E-02  1.000000E-01  9.918464E-01  4.555416E-03 -2.832244E-17  1.209657E-02 -3.298629E-03 -1.841836E-04  6.897176E-02  0.000000E+00
  9.632634E-01  1.647993E-02  1.000000E-01  9.829188E-01  6.951464E-03 -2.832244E-17  9.040229E-03 -2.363878E-03 -1.560742E-04  2.218592E-02  0.000000E+00
  9.536907E-01  1.903384E-02  1.000000E-01  9.731506E-01  9.557534E-03 -2.832244E-17  7.121089E-03 -1.889826E-03 -1.362907E-04  4.417339E-03  0.000000E+00
  9.432303E-01  2.177800E-02  1.000000E-01  9.624764E-01  1.235774E-02  1.416122E-17  6.672834E-03 -1.735426E-03 -1.289679E-04 -1.527012E-02  0.000000E+00
  9.318220E-01  2.471599E-02  1.000000E-01  9.508352E-01  1.535573E-02  1.416122E-17  7.371280E-03 -1.877729E-03 -1.306087E-04 -4.095556E-02  0.000000E+00
  9.194070E-01  2.785116E-02  1.000000E-01  9.381666E-01  1.855494E-02 -8.496733E-17  8.722724E-03 -2.177145E-03 -1.366931E-04 -6.860818E-02  0.000000E+00
  9.059278E-01  3.118193E-02  1.000000E-01  9.244121E-01  2.195374E-02 -5.664489E-17  1.031596E-02 -2.516807E-03 -1.440557E-04 -9.809644E-02  0.000000E+00
  8.913299E-01  3.470272E-02  1.000000E-01  9.095161E-01  2.554643E-02  0.000000E+00  1.194427E-02 -2.842672E-03 -1.511046E-04 -1.299677E-01  0.000000E+00
  8.755643E-01  3.840858E-02  1.000000E-01  8.934285E-01  2.932798E-02 -2.832244E-17  1.357295E-02 -3.145092E-03 -1.573920E-04 -1.643513E-01  0.000000E+00
  8.585885E-01  4.228915E-02  1.000000E-01  8.761060E-01  3.328780E-02  4.106755E-16  1.524658E-02 -3.428204E-03 -1.630634E-04 -2.008422E-01  0.000000E+00
  8.403666E-01  4.632253E-02  1.000000E-01  8.575119E-01  3.740356E-02  3.965142E-16  1.699028E-02 -3.689704E-03 -1.682068E-04 -2.388603E-01  0.000000E+00
  8.208730E-01  5.047946E-02  1.000000E-01  8.376203E-01  4.164539E-02 -8.496733E-17  1.877674E-02 -3.918881E-03 -1.726448E-04 -2.781132E-01  0.000000E+00
  8.000947E-01  5.472749E-02  1.000000E-01  8.164176E-01  4.598017E-02 -2.832244E-17  2.056329E-02 -4.102955E-03 -1.762229E-04 -3.183654E-01  0.000000E+00
  7.780326E-01  5.902715E-02  1.000000E-01  7.939049E-01  5.036766E-02 -2.832244E-17  2.231514E-02 -4.230488E-03 -1.789386E-04 -3.591532E-01  0.000000E+00
  7.547032E-01  6.333264E-02  1.000000E-01  7.700990E-01  5.476107E-02  4.389979E-16  2.399773E-02 -4.291705E-03 -1.808593E-04 -3.995603E-01  0.000000E+00
  7.301402E-01  6.759206E-02  1.000000E-01  7.450343E-01  5.910749E-02  2.832244E-17  2.556825E-02 -4.282510E-03 -1.820653E-04 -4.384100E-01  0.000000E+00
  2.444131E-01 -2.695381E-03  1.000000E-01  2.493869E-01 -1.261548E-02  3.681918E-16  2.800513E-02  1.268015E-03  4.102230E-05  1.655104E-01  0.000000E+00
  2.700250E-01 -1.535543E-03  1.000000E-01  2.755219E-01 -1.143195E-02 -4.248367E-17  2.827855E-02  1.260509E-03  4.563429E-05  1.633042E-01  0.000000E+00
  2.967058E-01 -3.616020E-04  1.000000E-01  3.027477E-01 -1.023403E-02 -2.832244E-17  2.866926E-02  1.300319E-03  5.177076E-05  1.549679E-01  0.000000E+00
  3.243554E-01  9.328561E-04  1.000000E-01  3.309619E-01 -8.913137E-03  4.248367E-16  2.881334E-02  1.465824E-03  5.943646E-05  1.418075E-01  0.000000E+00
  3.528511E-01  2.502219E-03  1.000000E-01  3.600397E-01 -7.311722E-03 -4.248367E-17  2.830569E-02  1.775345E-03  6.813114E-05  1.302387E-01  0.000000E+00
  3.820469E-01  4.567155E-03  1.000000E-01  3.898317E-01 -5.204612E-03  5.664489E-17  2.688814E-02  2.173798E-03  7.681966E-05  1.282117E-01  0.000000E+00
  4.117740E-01  7.295883E-03  1.000000E-01  4.201659E-01 -2.420154E-03 -5.664489E-17  2.464390E-02  2.536685E-03  8.430236E-05  1.428765E-01  0.000000E+00
  4.418498E-01  1.075995E-02  1.000000E-01  4.508560E-01  1.114660E-03 -2.832244E-17  2.202206E-02  2.725371E-03  8.984560E-05  1.743234E-01  0.000000E+00
  4.721105E-01  1.480129E-02  1.000000E-01  4.817348E-01  5.238544E-03 -5.664489E-17  1.980305E-02  2.548815E-03  9.355143E-05  2.277567E-01  0.000000E+00
  5.024968E-01  1.854807E-02  1.000000E-01  5.127416E-01  9.061848E-03  1.416122E-17  1.845264E-02  2.097162E-03  9.615174E-05  2.839690E-01  0.000000E+00
  5.328693E-01  2.166548E-02  1.000000E-01  5.437344E-01  1.224292E-02 -4.248367E-17  1.777159E-02  1.686455E-03  9.838013E-05  3.118290E-01  0.000000E+00
  5.630297E-01  2.427310E-02  1.000000E-01  5.745109E-01  1.490380E-02  1.416122E-17  1.740494E-02  1.405101E-03  1.005782E-04  3.198205E-01  0.000000E+00
  5.927917E-01  2.649613E-02  1.000000E-01  6.048806E-01  1.717223E-02  5.664489E-17  1.708405E-02  1.214848E-03  1.026253E-04  3.260108E-01  0.000000E+00
  6.219828E-01  2.845496E-02  1.000000E-01  6.346680E-01  1.917107E-02 -4.248367E-17  1.666809E-02  1.067982E-03  1.042417E-04  3.355903E-01  0.000000E+00
  6.504533E-01  3.017910E-02  1.000000E-01  6.637199E-01  2.093042E-02  5.664489E-17  1.616678E-02  9.082652E-04  1.054172E-04  3.489687E-01  0.000000E+00
  6.780742E-01  3.159452E-02  1.000000E-01  6.919050E-01  2.237475E-02  4.531591E-16  1.567747E-02  7.064982E-04  1.063974E-04  3.642068E-01  0.000000E+00
  7.047326E-01  3.261403E-02  1.000000E-01  7.191078E-01  2.341508E-02  0.000000E+00  1.530592E-02  4.677972E-04  1.074714E-04  3.779134E-01  0.000000E+00
  1.215943E-04  9.329812E-03  1.000000E-01  1.060953E-04 -3.446844E-04 -5.664489E-17 -4.560274E-02  8.136097E-02  6.967424E-05  7.503861E-01  0.000000E+00
  4.902502E-03  3.661163E-03  1.000000E-01  4.984646E-03 -6.129108E-03 -8.496733E-17 -1.697124E-02  1.972971E-02  5.002270E-05  9.388482E-01  0.000000E+00
  1.254908E-02  1.947463E-05  1.000000E-01  1.278740E-02 -9.845173E-03 -2.832244E-17  7.778640E-03 -2.014303E-03  3.520664E-05  5.443415E-01  0.000000E+00
  2.163699E-02 -2.370031E-03  1.000000E-01  2.206092E-02 -1.228348E-02  1.416122E-17  2.161787E-02 -4.460128E-03  2.926410E-05  3.427102E-01  0.000000E+00
  3.184423E-02 -4.048054E-03  1.000000E-01  3.247662E-02 -1.399577E-02 -2.832244E-17  2.739953E-02 -3.603750E-03  2.815162E-05  3.085380E-01  0.000000E+00
  4.311596E-02 -5.224839E-03  1.000000E-01  4.397856E-02 -1.519659E-02 -8.496733E-17  2.960651E-02 -2.391303E-03  2.828510E-05  2.731378E-01  0.000000E+00
  5.546913E-02 -5.943673E-03  1.000000E-01  5.658403E-02 -1.593011E-02  1.416122E-17  3.027803E-02 -1.419180E-03  2.865384E-05  2.404537E-01  0.000000E+00
  6.891473E-02 -6.418349E-03  1.000000E-01  7.030424E-02 -1.641448E-02 -8.496733E-17  3.051959E-02 -8.884174E-04  2.908446E-05  2.282977E-01  0.000000E+00
  8.348882E-02 -6.755613E-03  1.000000E-01  8.517598E-02 -1.675863E-02  5.664489E-17  3.064937E-02 -5.401331E-04  2.951307E-05  2.160618E-01  0.000000E+00
  9.923792E-02 -6.949473E-03  1.000000E-01  1.012467E-01 -1.695645E-02 -9.912856E-17  3.062584E-02 -1.828162E-04  2.998921E-05  1.969627E-01  0.000000E+00
  1.162051E-01 -6.942279E-03  1.000000E-01  1.185604E-01 -1.694911E-02 -8.496733E-17  3.041297E-02  1.840494E-04  3.058548E-05  1.799074E-01  0.000000E+00
  1.344203E-01 -6.726552E-03  1.000000E-01  1.371477E-01 -1.672898E-02 -8.496733E-17  3.003471E-02  5.055546E-04  3.133914E-05  1.703643E-01  0.000000E+00
  1.539027E-01 -6.299428E-03  1.000000E-01  1.570280E-01 -1.629313E-02  4.389979E-16  2.951110E-02  7.829817E-04  3.229674E-05  1.650568E-01  0.000000E+00
  1.746592E-01 -5.649944E-03  1.000000E-01  1.782084E-01 -1.563038E-02  3.257081E-16  2.891741E-02  1.003359E-03  3.355494E-05  1.628140E-01  0.000000E+00
  1.966815E-01 -4.806628E-03  1.000000E-01  2.006805E-01 -1.476984E-02 -2.832244E-17  2.838511E-02  1.150969E-03  3.527044E-05  1.636523E-01  0.000000E+00
  2.199461E-01 -3.807377E-03  1.000000E-01  2.244202E-01 -1.375018E-02 -4.248367E-17  2.804499E-02  1.237563E-03  3.766741E-05  1.651371E-01  0.000000E+00
  2.444131E-01 -2.695381E-03  1.000000E-01  2.493869E-01 -1.261548E-02  3.823530E-16  2.800513E-02  1.268015E-03  4.102230E-05  1.655104E-01  0.000000E+00
  7.047326E-01  3.261403E-02  1.000000E-01  7.191078E-01  2.341508E-02 -2.832244E-17  1.530592E-02  4.677972E-04  1.074714E-04  3.779134E-01  0.000000E+00
  7.303325E-01  3.318403E-02  1.000000E-01  7.452305E-01  2.399672E-02 -2.832244E-17  1.513757E-02  2.037735E-04  1.088753E-04  3.879867E-01  0.000000E+00
  7.547951E-01  3.328669E-02  1.000000E-01  7.701928E-01  2.410148E-02  4.389979E-16  1.524476E-02 -8.972402E-05  1.107985E-04  3.943084E-01  0.000000E+00
  7.780600E-01  3.290936E-02  1.000000E-01  7.939328E-01  2.371645E-02  1.416122E-17  1.568229E-02 -4.277333E-04  1.133689E-04  3.966149E-01  0.000000E+00
  8.000833E-01  3.206531E-02  1.000000E-01  8.164059E-01  2.285516E-02 -4.248367E-17  1.646327E-02 -8.243382E-04  1.166112E-04  3.941840E-01  0.000000E+00
  8.208376E-01  3.078730E-02  1.000000E-01  8.375841E-01  2.155104E-02 -2.832244E-17  1.752253E-02 -1.263193E-03  1.203560E-04  3.859436E-01  0.000000E+00
  8.403144E-01  2.918282E-02  1.000000E-01  8.574587E-01  1.991379E-02  4.389979E-16  1.870093E-02 -1.678741E-03  1.242034E-04  3.710562E-01  0.000000E+00
  8.585258E-01  2.741405E-02  1.000000E-01  8.760420E-01  1.810890E-02  3.965142E-16  1.980303E-02 -2.004094E-03  1.276547E-04  3.520142E-01  0.000000E+00
  8.754993E-01  2.562398E-02  1.000000E-01  8.933622E-01  1.628227E-02 -2.832244E-17  2.068529E-02 -2.221455E-03  1.302327E-04  3.330453E-01  0.000000E+00
  8.912718E-01  2.389515E-02  1.000000E-01  9.094568E-01  1.451813E-02 -2.832244E-17  2.133277E-02 -2.389085E-03  1.316587E-04  3.178439E-01  0.000000E+00
  9.058836E-01  2.222000E-02  1.000000E-01  9.243670E-01  1.280877E-02 -4.248367E-17  2.187091E-02 -2.593214E-03  1.320474E-04  3.070194E-01  0.000000E+00
  9.193796E-01  2.056212E-02  1.000000E-01  9.381387E-01  1.111702E-02 -5.664489E-17  2.249289E-02 -2.862113E-03  1.320782E-04  2.958924E-01  0.000000E+00
  9.318118E-01  1.892148E-02  1.000000E-01  9.508248E-01  9.442878E-03  4.248367E-17  2.340265E-02 -3.212184E-03  1.331466E-04  2.817751E-01  0.000000E+00
  9.432349E-01  1.729216E-02  1.000000E-01  9.624811E-01  7.780287E-03 -2.832244E-17  2.464004E-02 -3.659678E-03  1.362799E-04  2.651985E-01  0.000000E+00
  9.537058E-01  1.567346E-02  1.000000E-01  9.731660E-01  6.128523E-03  0.000000E+00  2.556432E-02 -4.103561E-03  1.390946E-04  2.405874E-01  0.000000E+00
  9.632829E-01  1.406933E-02  1.000000E-01  9.829386E-01  4.491629E-03 -2.832244E-17  2.457382E-02 -4.290252E-03  1.338802E-04  2.058772E-01  0.000000E+00
  9.720275E-01  1.251212E-02  1.000000E-01  9.918619E-01  2.902618E-03  0.000000E+00  2.087793E-02 -3.737130E-03  1.151941E-04  2.034247E-01  0.000000E+00
  9.800000E-01  1.102367E-02  1.000000E-01  9.999972E-01  1.383768E-03  1.416122E-17  1.388354E-02  4.365607E-03  7.121448E-05 -1.026241E-02  0.000000E+00
  1.215943E-04  1.001048E-02  1.000000E-01  1.060953E-04  3.498886E-04 -9.912856E-17  2.286491E-02  5.297259E-02  3.897990E-05  4.567179E-01  0.000000E+00
  7.278129E-05  9.895836E-03  1.000000E-01  5.628531E-05  2.329000E-04  1.416122E-17  1.553582E-02  7.599755E-02  5.058678E-05  2.963779E-01  0.000000E+00
  1.762252E-05  9.667598E-03  1.000000E-01  0.000000E+00  0.000000E+00  0.000000E+00 -1.219829E-02  1.221361E-01  7.205508E-05  3.361130E-01  0.000000E+00
  8.694958E-05  9.442414E-03  1.000000E-01  7.074297E-05 -2.297834E-04  0.000000E+00 -5.100064E-02  1.324333E-01  8.105537E-05  3.852806E-01  0.000000E+00
  1.215943E-04  9.329812E-03  1.000000E-01  1.060953E-04 -3.446844E-04 -4.248367E-17 -4.560274E-02  8.136097E-02  6.967424E-05  7.503861E-01  0.000000E+00
  9.800000E-01  1.102367E-02  1.000000E-01  9.999972E-01  1.383768E-03  0.000000E+00  1.388354E-02  4.365607E-03  7.121448E-05 -1.026241E-02  0.000000E+00
  9.800000E-01  1.118655E-02  1.000000E-01  9.999972E-01  1.549978E-03  0.000000E+00  4.497470E-03 -1.575054E-03 -1.399119E-05 -2.111890E-01  0.000000E+00
  9.800000E-01  1.151232E-02  1.000000E-01  9.999972E-01  1.882399E-03 -2.832244E-17 -4.415730E-04 -1.603227E-02 -1.079523E-04 -1.755326E-01  0.000000E+00
  9.800000E-01  1.183809E-02  1.000000E-01  9.999972E-01  2.214820E-03 -5.664489E-17  3.424403E-03 -1.971223E-02 -1.682657E-04 -1.938419E-01  0.000000E+00
  9.800000E-01  1.200097E-02  1.000000E-01  9.999972E-01  2.381031E-03  0.000000E+00  1.058799E-02 -1.318151E-02 -1.938276E-04 -5.648787E-02  0.000000E+00
  2.628044E-01  9.866980E-02  1.000000E-01  2.681538E-01  9.081995E-02 -2.832244E-17  5.496728E-02  4.265492E-03 -3.396045E-05 -1.199269E+00  0.000000E+00
  2.368706E-01  9.634682E-02  1.000000E-01  2.416904E-01  8.844952E-02  3.681918E-16  5.725979E-02  5.868630E-03 -2.172733E-05 -1.240629E+00  0.000000E+00
  2.121362E-01  9.348055E-02  1.000000E-01  2.164508E-01  8.552471E-02  1.416122E-17  5.963155E-02  7.752016E-03 -1.235731E-05 -1.272685E+00  0.000000E+00
  1.886687E-01  9.008710E-02  1.000000E-01  1.925040E-01  8.206196E-02 -4.248367E-17  6.189597E-02  9.892515E-03 -5.353262E-06 -1.290436E+00  0.000000E+00
  1.665185E-01  8.619770E-02  1.000000E-01  1.699014E-01  7.809312E-02  4.814816E-16  6.382236E-02  1.222246E-02 -2.213661E-07 -1.291324E+00  0.000000E+00
  1.457161E-01  8.186871E-02  1.000000E-01  1.486742E-01  7.367572E-02  4.531591E-16  6.525691E-02  1.466711E-02  3.470966E-06 -1.276882E+00  0.000000E+00
  1.262764E-01  7.715956E-02  1.000000E-01  1.288374E-01  6.887039E-02  0.000000E+00  6.618267E-02  1.718887E-02  6.112828E-06 -1.252315E+00  0.000000E+00
  1.081990E-01  7.212986E-02  1.000000E-01  1.103908E-01  6.373797E-02  0.000000E+00  6.663732E-02  1.976330E-02  8.024381E-06 -1.224740E+00  0.000000E+00
  9.146971E-02  6.684198E-02  1.000000E-01  9.331987E-02  5.834209E-02  0.000000E+00  6.673174E-02  2.254467E-02  9.516192E-06 -1.189362E+00  0.000000E+00
  7.608258E-02  6.129160E-02  1.000000E-01  7.761848E-02  5.267835E-02  0.000000E+00  6.642521E-02  2.570421E-02  1.084976E-05 -1.127823E+00  0.000000E+00
  6.202881E-02  5.546815E-02  1.000000E-01  6.327768E-02  4.673597E-02 -5.664489E-17  6.538091E-02  2.910256E-02  1.216381E-05 -1.022948E+00  0.000000E+00
  4.929579E-02  4.938859E-02  1.000000E-01  5.028460E-02  4.053224E-02 -8.496733E-17  6.324173E-02  3.219057E-02  1.348593E-05 -8.798355E-01  0.000000E+00
  3.782553E-02  4.316376E-02  1.000000E-01  3.858008E-02  3.418028E-02  4.248367E-17  6.014440E-02  3.474998E-02  1.490337E-05 -7.253690E-01  0.000000E+00
  2.757469E-02  3.684756E-02  1.000000E-01  2.811988E-02  2.773508E-02 -2.832244E-17  5.659387E-02  3.702107E-02  1.663785E-05 -6.072320E-01  0.000000E+00
  1.848362E-02  3.051680E-02  1.000000E-01  1.884314E-02  2.127501E-02  5.664489E-17  5.326862E-02  4.045754E-02  1.947999E-05 -5.095344E-01  0.000000E+00
  1.064273E-02  2.404560E-02  1.000000E-01  1.084211E-02  1.467165E-02  1.416122E-17  4.951680E-02  4.668987E-02  2.502225E-05 -2.697509E-01  0.000000E+00
  4.262692E-03  1.728402E-02  1.000000E-01  4.331769E-03  7.771976E-03  1.416122E-17  4.014525E-02  5.394107E-02  3.342074E-05  2.411894E-01  0.000000E+00
  1.215943E-04  1.001048E-02  1.000000E-01  1.060953E-04  3.498886E-04 -8.496733E-17  2.286491E-02  5.297259E-02  3.897990E-05  4.567179E-01  0.000000E+00
    1    2
    2    3
    3    4
    4    5
    5    6
    6    7
    7    8
    8    9
    9   10
   10   11
   11   12
   12   13
   13   14
   14   15
   15   16
   16   17
   18   19
   19   20
   20   21
   21   22
   22   23
   23   24
   24   25
   25   26
   26   27
   27   28
   28   29
   29   30
   30   31
   31   32
   32   33
   33   34
   35   36
   36   37
   37   38
   38   39
   39   40
   40   41
   41   42
   42   43
   43   44
   44   45
   45   46
   46   47
   47   48
   48   49
   49   50
   50   51
   52   53
   53   54
   54   55
   55   56
   56   57
   57   58
   58   59
   59   60
   60   61
   61   62
   62   63
   63   64
   64   65
   65   66
   66   67
   67   68
   69   70
   70   71
   71   72
   72   73
   73   74
   74   75
   75   76
   76   77
   77   78
   78   79
   79   80
   80   81
   81   82
   82   83
   83   84
   84   85
   85   86
   87   88
   88   89
   89   90
   90   91
   92   93
   93   94
   94   95
   95   96
   97   98
   98   99
   99  100
  100  101
  101  102
  102  103
  103  104
  104  105
  105  106
  106  107
  107  108
  108  109
  109  110
  110  111
  111  112
  112  113
  113  114
Zone T= "Slice_0002 None Relative Regular z = 0.36666667"
 Nodes =          114  Elements=          106  ZONETYPE=FELINESEG
 DATAPACKING=POINT
  7.301402E-01  6.700827E-02  3.666667E-01  7.450346E-01  5.855624E-02 -5.664491E-17  2.576730E-02 -4.281873E-03 -5.919998E-04 -4.338962E-01  0.000000E+00
  7.043967E-01  7.113918E-02  3.666667E-01  7.187653E-01  6.277152E-02 -1.132898E-16  2.719425E-02 -4.205724E-03 -5.878911E-04 -4.698981E-01  0.000000E+00
  6.775455E-01  7.513795E-02  3.666667E-01  6.913657E-01  6.685195E-02  3.058825E-14  2.845183E-02 -4.081878E-03 -5.808222E-04 -5.039635E-01  0.000000E+00
  6.496792E-01  7.898249E-02  3.666667E-01  6.629302E-01  7.077502E-02 -1.699347E-16  2.956271E-02 -3.936734E-03 -5.713632E-04 -5.386191E-01  0.000000E+00
  6.209097E-01  8.267184E-02  3.666667E-01  6.335732E-01  7.453972E-02  0.000000E+00  3.061044E-02 -3.780157E-03 -5.600053E-04 -5.755347E-01  0.000000E+00
  5.913667E-01  8.617606E-02  3.666667E-01  6.034268E-01  7.811551E-02  1.132898E-16  3.170077E-02 -3.605812E-03 -5.467943E-04 -6.149782E-01  0.000000E+00
  5.611982E-01  8.945680E-02  3.666667E-01  5.726422E-01  8.146325E-02  2.265796E-16  3.291794E-02 -3.410188E-03 -5.310583E-04 -6.578959E-01  0.000000E+00
  5.305654E-01  9.246876E-02  3.666667E-01  5.413836E-01  8.453673E-02  1.132898E-16  3.433193E-02 -3.188578E-03 -5.116870E-04 -7.061573E-01  0.000000E+00
  4.996398E-01  9.516919E-02  3.666667E-01  5.098264E-01  8.729231E-02 -1.699347E-16  3.601471E-02 -2.921414E-03 -4.875299E-04 -7.610806E-01  0.000000E+00
  4.685986E-01  9.749361E-02  3.666667E-01  4.781512E-01  8.966421E-02  1.132898E-16  3.802660E-02 -2.566926E-03 -4.576936E-04 -8.214039E-01  0.000000E+00
  4.376215E-01  9.935846E-02  3.666667E-01  4.465415E-01  9.156714E-02 -5.664491E-17  4.036161E-02 -2.080200E-03 -4.215664E-04 -8.838534E-01  0.000000E+00
  4.068895E-01  1.006819E-01  3.666667E-01  4.151818E-01  9.291759E-02 -5.664491E-17  4.292314E-02 -1.427772E-03 -3.791191E-04 -9.445753E-01  0.000000E+00
  3.765814E-01  1.013996E-01  3.666667E-01  3.842547E-01  9.364995E-02  5.664491E-17  4.554366E-02 -6.129086E-04 -3.313405E-04 -1.001909E+00  0.000000E+00
  3.468696E-01  1.015005E-01  3.666667E-01  3.539361E-01  9.375295E-02 -5.664491E-17  4.809509E-02  3.524242E-04 -2.807883E-04 -1.054994E+00  0.000000E+00
  3.179133E-01  1.009815E-01  3.666667E-01  3.243884E-01  9.322331E-02  0.000000E+00  5.054460E-02  1.473978E-03 -2.311835E-04 -1.102828E+00  0.000000E+00
  2.898519E-01  9.984917E-02  3.666667E-01  2.957538E-01  9.206788E-02  5.664491E-17  5.289667E-02  2.740145E-03 -1.857787E-04 -1.147756E+00  0.000000E+00
  2.628044E-01  9.813601E-02  3.666667E-01  2.681539E-01  9.031973E-02  5.664491E-17  5.519514E-02  4.140214E-03 -1.463312E-04 -1.193349E+00  0.000000E+00
  9.800000E-01  1.179270E-02  3.666667E-01  9.999976E-01  2.212942E-03  5.664491E-17  1.058314E-02 -1.308890E-02 -6.355863E-04 -5.731878E-02  0.000000E+00
  9.720124E-01  1.390909E-02  3.666667E-01  9.918468E-01  4.372556E-03  0.000000E+00  1.211807E-02 -3.281989E-03 -6.011430E-04  6.928665E-02  0.000000E+00
  9.632634E-01  1.624158E-02  3.666667E-01  9.829192E-01  6.752680E-03  1.132898E-16  9.139747E-03 -2.373713E-03 -5.105196E-04  2.262234E-02  0.000000E+00
  9.536907E-01  1.877873E-02  3.666667E-01  9.731510E-01  9.341656E-03 -5.664491E-17  7.276824E-03 -1.917736E-03 -4.473710E-04  4.889443E-03  0.000000E+00
  9.432303E-01  2.150497E-02  3.666667E-01  9.624768E-01  1.212358E-02 -1.699347E-16  6.856642E-03 -1.770953E-03 -4.245060E-04 -1.472414E-02  0.000000E+00
  9.318220E-01  2.442387E-02  3.666667E-01  9.508355E-01  1.510209E-02 -5.664491E-17  7.564979E-03 -1.913988E-03 -4.305382E-04 -4.027198E-02  0.000000E+00
  9.194070E-01  2.753876E-02  3.666667E-01  9.381670E-01  1.828060E-02  0.000000E+00  8.915323E-03 -2.210237E-03 -4.508326E-04 -6.773517E-02  0.000000E+00
  9.059278E-01  3.084804E-02  3.666667E-01  9.244125E-01  2.165747E-02 -1.132898E-16  1.050222E-02 -2.545101E-03 -4.752593E-04 -9.699642E-02  0.000000E+00
  8.913299E-01  3.434615E-02  3.666667E-01  9.095164E-01  2.522702E-02  0.000000E+00  1.212594E-02 -2.866658E-03 -4.988471E-04 -1.286027E-01  0.000000E+00
  8.755643E-01  3.802813E-02  3.666667E-01  8.934289E-01  2.898420E-02 -1.132898E-16  1.375711E-02 -3.166531E-03 -5.202260E-04 -1.626805E-01  0.000000E+00
  8.585885E-01  4.188362E-02  3.666667E-01  8.761063E-01  3.291843E-02  3.098477E-14  1.543808E-02 -3.448103E-03 -5.396621E-04 -1.988315E-01  0.000000E+00
  8.403666E-01  4.589071E-02  3.666667E-01  8.575123E-01  3.700737E-02  3.098477E-14  1.718588E-02 -3.707143E-03 -5.570325E-04 -2.364814E-01  0.000000E+00
  8.208730E-01  5.002010E-02  3.666667E-01  8.376206E-01  4.122110E-02 -5.664491E-17  1.897062E-02 -3.932476E-03 -5.714716E-04 -2.753423E-01  0.000000E+00
  8.000947E-01  5.423929E-02  3.666667E-01  8.164179E-01  4.552646E-02 -5.664491E-17  2.075382E-02 -4.112316E-03 -5.823239E-04 -3.151824E-01  0.000000E+00
  7.780326E-01  5.850872E-02  3.666667E-01  7.939052E-01  4.988309E-02 -1.132898E-16  2.250463E-02 -4.235997E-03 -5.893752E-04 -3.555400E-01  0.000000E+00
  7.547032E-01  6.278241E-02  3.666667E-01  7.700993E-01  5.424406E-02  3.075819E-14  2.419004E-02 -4.293919E-03 -5.925859E-04 -3.955015E-01  0.000000E+00
  7.301402E-01  6.700827E-02  3.666667E-01  7.450346E-01  5.855624E-02 -5.664491E-17  2.576730E-02 -4.281873E-03 -5.919998E-04 -4.338962E-01  0.000000E+00
  2.444131E-01 -3.178518E-03  3.666667E-01  2.493870E-01 -1.306405E-02  3.092812E-14  2.831174E-02  1.209872E-03  1.452456E-04  1.633505E-01  0.000000E+00
  2.700250E-01 -2.089752E-03  3.666667E-01  2.755220E-01 -1.195305E-02  5.664491E-17  2.861636E-02  1.200789E-03  1.579545E-04  1.605099E-01  0.000000E+00
  2.967058E-01 -9.906913E-04  3.666667E-01  3.027478E-01 -1.083154E-02 -5.664491E-17  2.904056E-02  1.241991E-03  1.742582E-04  1.513791E-01  0.000000E+00
  3.243554E-01  2.287727E-04  3.666667E-01  3.309620E-01 -9.587168E-03  3.070154E-14  2.920916E-02  1.415201E-03  1.940983E-04  1.372907E-01  0.000000E+00
  3.528511E-01  1.728856E-03  3.666667E-01  3.600398E-01 -8.056447E-03 -5.664491E-17  2.870528E-02  1.740896E-03  2.162699E-04  1.247469E-01  0.000000E+00
  3.820469E-01  3.737723E-03  3.666667E-01  3.898318E-01 -6.006551E-03 -1.132898E-16  2.726810E-02  2.161516E-03  2.383791E-04  1.219397E-01  0.000000E+00
  4.117740E-01  6.427519E-03  3.666667E-01  4.201661E-01 -3.261818E-03  1.132898E-16  2.498739E-02  2.546262E-03  2.576648E-04  1.362499E-01  0.000000E+00
  4.418498E-01  9.870623E-03  3.666667E-01  4.508561E-01  2.516072E-04 -1.699347E-16  2.232085E-02  2.751325E-03  2.724007E-04  1.677515E-01  0.000000E+00
  4.721105E-01  1.390850E-02  3.666667E-01  4.817349E-01  4.371959E-03 -1.132898E-16  2.006052E-02  2.582205E-03  2.836831E-04  2.215537E-01  0.000000E+00
  5.024968E-01  1.766764E-02  3.666667E-01  5.127418E-01  8.207866E-03  5.664491E-17  1.867983E-02  2.131373E-03  2.934409E-04  2.782868E-01  0.000000E+00
  5.328693E-01  2.081043E-02  3.666667E-01  5.437346E-01  1.141485E-02 -2.265796E-16  1.797811E-02  1.720307E-03  3.026988E-04  3.066216E-01  0.000000E+00
  5.630297E-01  2.345284E-02  3.666667E-01  5.745111E-01  1.411123E-02  1.132898E-16  1.759722E-02  1.438754E-03  3.123482E-04  3.150005E-01  0.000000E+00
  5.927917E-01  2.571616E-02  3.666667E-01  6.048809E-01  1.642078E-02  0.000000E+00  1.726650E-02  1.247925E-03  3.220638E-04  3.215495E-01  0.000000E+00
  6.219828E-01  2.771719E-02  3.666667E-01  6.346682E-01  1.846267E-02  5.664491E-17  1.684408E-02  1.099638E-03  3.307514E-04  3.314856E-01  0.000000E+00
  6.504533E-01  2.948255E-02  3.666667E-01  6.637202E-01  2.026409E-02 -1.132898E-16  1.633904E-02  9.375521E-04  3.381083E-04  3.451772E-01  0.000000E+00
  6.780742E-01  3.093706E-02  3.666667E-01  6.919052E-01  2.174831E-02  3.092812E-14  1.584778E-02  7.329416E-04  3.446274E-04  3.606441E-01  0.000000E+00
  7.047326E-01  3.199385E-02  3.666667E-01  7.191081E-01  2.282668E-02 -5.664491E-17  1.547524E-02  4.913340E-04  3.509914E-04  3.745180E-01  0.000000E+00
  1.215943E-04  9.286184E-03  3.666667E-01  1.060953E-04 -3.447683E-04 -2.265796E-16 -4.491549E-02  8.020070E-02  2.114758E-04  7.528855E-01  0.000000E+00
  4.902502E-03  3.613654E-03  3.666667E-01  4.984648E-03 -6.133154E-03  5.664491E-17 -1.647812E-02  1.928830E-02  1.625836E-04  9.374758E-01  0.000000E+00
  1.254908E-02 -3.461587E-05  3.666667E-01  1.278740E-02 -9.855936E-03  2.265796E-16  8.076623E-03 -2.139840E-03  1.184946E-04  5.418593E-01  0.000000E+00
  2.163699E-02 -2.432539E-03  3.666667E-01  2.206093E-02 -1.230283E-02  5.664491E-17  2.183001E-02 -4.525892E-03  9.948401E-05  3.406233E-01  0.000000E+00
  3.184423E-02 -4.120797E-03  3.666667E-01  3.247663E-02 -1.402557E-02  0.000000E+00  2.761434E-02 -3.659552E-03  9.661310E-05  3.070298E-01  0.000000E+00
  4.311596E-02 -5.309855E-03  3.666667E-01  4.397858E-02 -1.523892E-02 -1.132898E-16  2.984046E-02 -2.442235E-03  9.791926E-05  2.719515E-01  0.000000E+00
  5.546913E-02 -6.043327E-03  3.666667E-01  5.658405E-02 -1.598737E-02 -5.664491E-17  3.052257E-02 -1.466302E-03  9.998533E-05  2.394135E-01  0.000000E+00
  6.891473E-02 -6.535374E-03  3.666667E-01  7.030426E-02 -1.648947E-02  1.699347E-16  3.076918E-02 -9.348441E-04  1.023773E-04  2.273812E-01  0.000000E+00
  8.348882E-02 -6.893184E-03  3.666667E-01  8.517601E-02 -1.685458E-02  2.832246E-16  3.090315E-02 -5.874392E-04  1.047910E-04  2.152569E-01  0.000000E+00
  9.923792E-02 -7.111288E-03  3.666667E-01  1.012468E-01 -1.707714E-02 -1.132898E-16  3.088340E-02 -2.309901E-04  1.073278E-04  1.962201E-01  0.000000E+00
  1.162051E-01 -7.132614E-03  3.666667E-01  1.185605E-01 -1.709890E-02  5.664491E-17  3.067303E-02  1.351400E-04  1.102605E-04  1.791674E-01  0.000000E+00
  1.344203E-01 -6.950295E-03  3.666667E-01  1.371477E-01 -1.691286E-02  0.000000E+00  3.029581E-02  4.556444E-04  1.137045E-04  1.695767E-01  0.000000E+00
  1.539027E-01 -6.562099E-03  3.666667E-01  1.570281E-01 -1.651674E-02  3.064490E-14  2.977247E-02  7.319267E-04  1.176789E-04  1.641692E-01  0.000000E+00
  1.746592E-01 -5.957658E-03  3.666667E-01  1.782084E-01 -1.589995E-02  3.109806E-14  2.918048E-02  9.509483E-04  1.223838E-04  1.617572E-01  0.000000E+00
  1.966815E-01 -5.165996E-03  3.666667E-01  2.006805E-01 -1.509212E-02 -1.132898E-16  2.865461E-02  1.096848E-03  1.281875E-04  1.623397E-01  0.000000E+00
  2.199461E-01 -4.225273E-03  3.666667E-01  2.244203E-01 -1.413218E-02 -1.699347E-16  2.832850E-02  1.181497E-03  1.355811E-04  1.634641E-01  0.000000E+00
  2.444131E-01 -3.178518E-03  3.666667E-01  2.493870E-01 -1.306405E-02  3.092812E-14  2.831174E-02  1.209872E-03  1.452456E-04  1.633505E-01  0.000000E+00
  7.047326E-01  3.199385E-02  3.666667E-01  7.191081E-01  2.282668E-02 -5.664491E-17  1.547524E-02  4.913340E-04  3.509914E-04  3.745180E-01  0.000000E+00