 Title= "ADflow Lift Distribution Data"
Variables = "eta" "CoordinateX" "CoordinateY" "CoordinateZ" "Lift" "Drag" "Moment" "Normalized Lift" "Normalized Drag" "Normalized Moment" "CL" "CD" "CM" "CLp" "CDp" "CMp" "CLv" "CDv" "CMv" "Elliptical" "thickness" "twist" "chord" "fx" "fy" "fz" 
Zone T= "LiftDist_01 allWalls: : z normal"
 I=          150
 DATAPACKING=BLOCK
  0.000000E+00
  6.711405E-03
  1.342281E-02
  2.013422E-02
  2.684563E-02
  3.355704E-02
  4.026845E-02
  4.697986E-02
  5.369127E-02
  6.040268E-02
  6.711409E-02
  7.382550E-02
  8.053691E-02
  8.724832E-02
  9.395973E-02
  1.006711E-01
  1.073825E-01
  1.140940E-01
  1.208054E-01
  1.275168E-01
  1.342282E-01
  1.409396E-01
  1.476510E-01
  1.543624E-01
  1.610738E-01
  1.677852E-01
  1.744966E-01
  1.812081E-01
  1.879195E-01
  1.946309E-01
  2.013423E-01
  2.080537E-01
  2.147651E-01
  2.214765E-01
  2.281879E-01
  2.348993E-01
  2.416107E-01
  2.483221E-01
  2.550336E-01
  2.617450E-01
  2.684564E-01
  2.751678E-01
  2.818792E-01
  2.885906E-01
  2.953020E-01
  3.020134E-01
  3.087248E-01
  3.154362E-01
  3.221476E-01
  3.288591E-01
  3.355705E-01
  3.422819E-01
  3.489933E-01
  3.557047E-01
  3.624161E-01
  3.691275E-01
  3.758389E-01
  3.825503E-01
  3.892617E-01
  3.959732E-01
  4.026846E-01
  4.093960E-01
  4.161074E-01
  4.228188E-01
  4.295302E-01
  4.362416E-01
  4.429530E-01
  4.496644E-01
  4.563758E-01
  4.630872E-01
  4.697987E-01
  4.765101E-01
  4.832215E-01
  4.899329E-01
  4.966443E-01
  5.033557E-01
  5.100671E-01
  5.167785E-01
  5.234899E-01
  5.302013E-01
  5.369128E-01
  5.436242E-01
  5.503356E-01
  5.570470E-01
  5.637584E-01
  5.704698E-01
  5.771812E-01
  5.838926E-01
  5.906040E-01
  5.973154E-01
  6.040268E-01
  6.107383E-01
  6.174497E-01
  6.241611E-01
  6.308725E-01
  6.375839E-01
  6.442953E-01
  6.510067E-01
  6.577181E-01
  6.644295E-01
  6.711409E-01
  6.778524E-01
  6.845638E-01
  6.912752E-01
  6.979866E-01
  7.046980E-01
  7.114094E-01
  7.181208E-01
  7.248322E-01
  7.315436E-01
  7.382550E-01
  7.449664E-01
  7.516779E-01
  7.583893E-01
  7.651007E-01
  7.718121E-01
  7.785235E-01
  7.852349E-01
  7.919463E-01
  7.986577E-01
  8.053691E-01
  8.120805E-01
  8.187919E-01
  8.255034E-01
  8.322148E-01
  8.389262E-01
  8.456376E-01
  8.523490E-01
  8.590604E-01
  8.657718E-01
  8.724832E-01
  8.791946E-01
  8.859060E-01
  8.926175E-01
  8.993289E-01
  9.060403E-01
  9.127517E-01
  9.194631E-01
  9.261745E-01
  9.328859E-01
  9.395973E-01
  9.463087E-01
  9.530201E-01
  9.597315E-01
  9.664430E-01
  9.731544E-01
  9.798658E-01
  9.865772E-01
  9.932886E-01
  1.000000E+00
  0.000000E+00
  0.000000E+00
  0.000000E+00
  0.000000E+00
  0.000000E+00
  0.000000E+00
  0.000000E+00
  0.000000E+00
  0.000000E+00
  0.000000E+00
  0.000000E+00
  0.000000E+00
  0.000000E+00
  0.000000E+00
  0.000000E+00
  0.000000E+00
  0.000000E+00
  0.000000E+00
  0.000000E+00
  0.000000E+00
  0.000000E+00
  0.000000E+00
  0.000000E+00
  0.000000E+00
  0.000000E+00
  0.000000E+00
  0.000000E+00
  0.000000E+00
  0.000000E+00
  0.000000E+00
  0.000000E+00
  0.000000E+00
  0.000000E+00
  0.000000E+00
  0.000000E+00
  0.000000E+00
  0.000000E+00
  0.000000E+00
  0.000000E+00
  0.000000E+00
  0.000000E+00
  0.000000E+00
  0.000000E+00
  0.000000E+00
  0.000000E+00
  0.000000E+00
  0.000000E+00
  0.000000E+00
  0.000000E+00
  0.000000E+00
  0.000000E+00
  0.000000E+00
  0.000000E+00
  0.000000E+00
  0.000000E+00
  0.000000E+00
  0.000000E+00
  0.000000E+00
  0.000000E+00
  0.000000E+00
  0.000000E+00
  0.000000E+00
  0.000000E+00
  0.000000E+00
  0.000000E+00
  0.000000E+00
  0.000000E+00
  0.000000E+00
  0.000000E+00
  0.000000E+00
  0.000000E+00
  0.000000E+00
  0.000000E+00
  0.000000E+00
  0.000000E+00
  0.000000E+00
  0.000000E+00
  0.000000E+00
  0.000000E+00
  0.000000E+00
  0.000000E+00
  0.000000E+00
  0.000000E+00
  0.000000E+00
  0.000000E+00
  0.000000E+00
  0.000000E+00
  0.000000E+00
  0.000000E+00
  0.000000E+00
  0.000000E+00
  0.000000E+00
  0.000000E+00
  0.000000E+00
  0.000000E+00
  0.000000E+00
  0.000000E+00
  0.000000E+00
  0.000000E+00
  0.000000E+00
  0.000000E+00
  0.000000E+00
  0.000000E+00
  0.000000E+00
  0.000000E+00
  0.000000E+00
  0.000000E+00
  0.000000E+00
  0.000000E+00
  0.000000E+00
  0.000000E+00
  0.000000E+00
  0.000000E+00
  0.000000E+00
  0.000000E+00
  0.000000E+00
  0.000000E+00
  0.000000E+00
  0.000000E+00
  0.000000E+00
  0.000000E+00
  0.000000E+00
  0.000000E+00
  0.000000E+00
  0.000000E+00
  0.000000E+00
  0.000000E+00
  0.000000E+00
  0.000000E+00
  0.000000E+00
  0.000000E+00
  0.000000E+00
  0.000000E+00
  0.000000E+00
  0.000000E+00
  0.000000E+00
  0.000000E+00
  0.000000E+00
  0.000000E+00
  0.000000E+00
  0.000000E+00
  0.000000E+00
  0.000000E+00
  0.000000E+00
  0.000000E+00
  0.000000E+00
  0.000000E+00
  0.000000E+00
  0.000000E+00
  0.000000E+00
  0.000000E+00
  0.000000E+00
  0.000000E+00
  0.000000E+00
  0.000000E+00
  0.000000E+00
  0.000000E+00
  0.000000E+00
  0.000000E+00
  0.000000E+00
  0.000000E+00
  0.000000E+00
  0.000000E+00
  0.000000E+00
  0.000000E+00
  0.000000E+00
  0.000000E+00
  0.000000E+00
  0.000000E+00
  0.000000E+00
  0.000000E+00
  0.000000E+00
  0.000000E+00
  0.000000E+00
  0.000000E+00
  0.000000E+00
  0.000000E+00
  0.000000E+00
  0.000000E+00
  0.000000E+00
  0.000000E+00
  0.000000E+00
  0.000000E+00
  0.000000E+00
  0.000000E+00
  0.000000E+00
  0.000000E+00
  0.000000E+00
  0.000000E+00
  0.000000E+00
  0.000000E+00
  0.000000E+00
  0.000000E+00
  0.000000E+00
  0.000000E+00
  0.000000E+00
  0.000000E+00
  0.000000E+00
  0.000000E+00
  0.000000E+00
  0.000000E+00
  0.000000E+00
  0.000000E+00
  0.000000E+00
  0.000000E+00
  0.000000E+00
  0.000000E+00
  0.000000E+00
  0.000000E+00
  0.000000E+00
  0.000000E+00
  0.000000E+00
  0.000000E+00
  0.000000E+00
  0.000000E+00
  0.000000E+00
  0.000000E+00
  0.000000E+00
  0.000000E+00
  0.000000E+00
  0.000000E+00
  0.000000E+00
  0.000000E+00
  0.000000E+00
  0.000000E+00
  0.000000E+00
  0.000000E+00
  0.000000E+00
  0.000000E+00
  0.000000E+00
  0.000000E+00
  0.000000E+00
  0.000000E+00
  0.000000E+00
  0.000000E+00
  0.000000E+00
  0.000000E+00
  0.000000E+00
  0.000000E+00
  0.000000E+00
  0.000000E+00
  0.000000E+00
  0.000000E+00
  0.000000E+00
  0.000000E+00
  0.000000E+00
  0.000000E+00
  0.000000E+00
  0.000000E+00
  0.000000E+00
  0.000000E+00
  0.000000E+00
  0.000000E+00
  0.000000E+00
  0.000000E+00
  0.000000E+00
  0.000000E+00
  0.000000E+00
  0.000000E+00
  0.000000E+00
  0.000000E+00
  0.000000E+00
  0.000000E+00
  0.000000E+00
  0.000000E+00
  0.000000E+00
  0.000000E+00
  0.000000E+00
  0.000000E+00
  0.000000E+00
  0.000000E+00
  0.000000E+00
  0.000000E+00
  0.000000E+00
  0.000000E+00
  0.000000E+00
  0.000000E+00
  0.000000E+00
  0.000000E+00
  0.000000E+00
  0.000000E+00
  0.000000E+00
  0.000000E+00
  0.000000E+00
  0.000000E+00
  0.000000E+00
  0.000000E+00
  0.000000E+00
  0.000000E+00
  0.000000E+00
  0.000000E+00
  0.000000E+00
  0.000000E+00
  0.000000E+00
  0.000000E+00
  0.000000E+00
  0.000000E+00
  0.000000E+00
  0.000000E+00
  0.000000E+00
  1.000000E-08
  1.695085E-02
  3.390169E-02
  5.085254E-02
  6.780338E-02
  8.475423E-02
  1.017051E-01
  1.186559E-01
  1.356068E-01
  1.525576E-01
  1.695085E-01
  1.864593E-01
  2.034101E-01
  2.203610E-01
  2.373118E-01
  2.542627E-01
  2.712135E-01
  2.881644E-01
  3.051152E-01
  3.220661E-01
  3.390169E-01
  3.559678E-01
  3.729186E-01
  3.898694E-01
  4.068203E-01
  4.237711E-01
  4.407220E-01
  4.576728E-01
  4.746237E-01
  4.915745E-01
  5.085254E-01
  5.254762E-01
  5.424271E-01
  5.593779E-01
  5.763287E-01
  5.932796E-01
  6.102304E-01
  6.271813E-01
  6.441321E-01
  6.610830E-01
  6.780338E-01
  6.949847E-01
  7.119355E-01
  7.288864E-01
  7.458372E-01
  7.627880E-01
  7.797389E-01
  7.966897E-01
  8.136406E-01
  8.305914E-01
  8.475423E-01
  8.644931E-01
  8.814440E-01
  8.983948E-01
  9.153457E-01
  9.322965E-01
  9.492473E-01
  9.661982E-01
  9.831490E-01
  1.000100E+00
  1.017051E+00
  1.034002E+00
  1.050952E+00
  1.067903E+00
  1.084854E+00
  1.101805E+00
  1.118756E+00
  1.135707E+00
  1.152657E+00
  1.169608E+00
  1.186559E+00
  1.203510E+00
  1.220461E+00
  1.237412E+00
  1.254363E+00
  1.271313E+00
  1.288264E+00
  1.305215E+00
  1.322166E+00
  1.339117E+00
  1.356068E+00
  1.373018E+00
  1.389969E+00
  1.406920E+00
  1.423871E+00
  1.440822E+00
  1.457773E+00
  1.474724E+00
  1.491674E+00
  1.508625E+00
  1.525576E+00
  1.542527E+00
  1.559478E+00
  1.576429E+00
  1.593379E+00
  1.610330E+00
  1.627281E+00
  1.644232E+00
  1.661183E+00
  1.678134E+00
  1.695085E+00
  1.712035E+00
  1.728986E+00
  1.745937E+00
  1.762888E+00
  1.779839E+00
  1.796790E+00
  1.813740E+00
  1.830691E+00
  1.847642E+00
  1.864593E+00
  1.881544E+00
  1.898495E+00
  1.915446E+00
  1.932396E+00
  1.949347E+00
  1.966298E+00
  1.983249E+00
  2.000200E+00
  2.017151E+00
  2.034101E+00
  2.051052E+00
  2.068003E+00
  2.084954E+00
  2.101905E+00
  2.118856E+00
  2.135807E+00
  2.152757E+00
  2.169708E+00
  2.186659E+00
  2.203610E+00
  2.220561E+00
  2.237512E+00
  2.254462E+00
  2.271413E+00
  2.288364E+00
  2.305315E+00
  2.322266E+00
  2.339217E+00
  2.356168E+00
  2.373118E+00
  2.390069E+00
  2.407020E+00
  2.423971E+00
  2.440922E+00
  2.457873E+00
  2.474823E+00
  2.491774E+00
  2.508725E+00
  2.525676E+00
  1.106044E+04
  1.105863E+04
  1.105681E+04
  1.105499E+04
  1.105317E+04
  1.105135E+04
  1.104953E+04
  1.104771E+04
  1.104590E+04
  1.104063E+04
  1.103527E+04
  1.102992E+04
  1.102457E+04
  1.101922E+04
  1.101386E+04
  1.100851E+04
  1.100204E+04
  1.099352E+04
  1.098501E+04
  1.097649E+04
  1.096797E+04
  1.095946E+04
  1.095094E+04
  1.094207E+04
  1.093038E+04
  1.091868E+04
  1.090699E+04
  1.089529E+04
  1.088360E+04
  1.087190E+04
  1.085942E+04
  1.084431E+04
  1.082921E+04
  1.081411E+04
  1.079901E+04
  1.078391E+04
  1.076881E+04
  1.075126E+04
  1.073265E+04
  1.071405E+04
  1.069544E+04
  1.067683E+04
  1.065822E+04
  1.063792E+04
  1.061582E+04
  1.059372E+04
  1.057163E+04
  1.054953E+04
  1.052744E+04
  1.050329E+04
  1.047769E+04
  1.045210E+04
  1.042650E+04
  1.040091E+04
  1.037532E+04
  1.034626E+04
  1.031714E+04
  1.028802E+04
  1.025891E+04
  1.022980E+04
  1.019839E+04
  1.016579E+04
  1.013320E+04
  1.010062E+04
  1.006803E+04
  1.003335E+04
  9.997298E+03
  9.961247E+03
  9.925199E+03
  9.889154E+03
  9.850253E+03
  9.810638E+03
  9.771026E+03
  9.731417E+03
  9.690948E+03
  9.647678E+03
  9.604411E+03
  9.561146E+03
  9.517884E+03
  9.471331E+03
  9.424411E+03
  9.377494E+03
  9.330578E+03
  9.280885E+03
  9.230411E+03
  9.179939E+03
  9.129469E+03
  9.076191E+03
  9.022485E+03
  8.968783E+03
  8.914666E+03
  8.858172E+03
  8.801684E+03
  8.745202E+03
  8.687130E+03
  8.628082E+03
  8.569047E+03
  8.509349E+03
  8.447777E+03
  8.386231E+03
  8.324524E+03
  8.260547E+03
  8.196609E+03
  8.132578E+03
  8.065931E+03
  7.999330E+03
  7.932181E+03
  7.862202E+03
  7.792269E+03
  7.720622E+03
  7.646763E+03
  7.572942E+03
  7.495567E+03
  7.417551E+03
  7.337947E+03
  7.255682E+03
  7.173302E+03
  7.086858E+03
  7.000432E+03
  6.910718E+03
  6.820229E+03
  6.726971E+03
  6.632492E+03
  6.535261E+03
  6.436765E+03
  6.335202E+03
  6.232759E+03
  6.126740E+03
  6.019774E+03
  5.910230E+03
  5.798817E+03
  5.686035E+03
  5.570493E+03
  5.453305E+03
  5.334378E+03
  5.212956E+03
  5.088870E+03
  4.962481E+03
  4.834002E+03
  4.704773E+03
  4.579149E+03
  4.467488E+03
  4.387416E+03
  4.374102E+03
  4.464830E+03
  4.428519E+03
  3.989935E+03
  4.490836E+03
  1.336097E+03
 -1.183928E-04
  6.296451E+02
  6.295583E+02
  6.294716E+02
  6.293848E+02
  6.292981E+02
  6.292114E+02
  6.291246E+02
  6.290379E+02
  6.289512E+02
  6.287735E+02
  6.285935E+02
  6.284135E+02
  6.282336E+02
  6.280536E+02
  6.278736E+02
  6.276937E+02
  6.275184E+02
  6.273517E+02
  6.271851E+02
  6.270184E+02
  6.268517E+02
  6.266851E+02
  6.265184E+02
  6.263487E+02
  6.261554E+02
  6.259621E+02
  6.257688E+02
  6.255755E+02
  6.253821E+02
  6.251887E+02
  6.249737E+02
  6.246868E+02
  6.243999E+02
  6.241130E+02
  6.238260E+02
  6.235390E+02
  6.232520E+02
  6.228954E+02
  6.225084E+02
  6.221214E+02
  6.217343E+02
  6.213472E+02
  6.209600E+02
  6.205254E+02
  6.200408E+02
  6.195562E+02
  6.190715E+02
  6.185867E+02
  6.181018E+02
  6.175367E+02
  6.169154E+02
  6.162940E+02
  6.156725E+02
  6.150509E+02
  6.144292E+02
  6.136142E+02
  6.127961E+02
  6.119779E+02
  6.111595E+02
  6.103410E+02
  6.093742E+02
  6.083313E+02
  6.072883E+02
  6.062451E+02
  6.052017E+02
  6.040116E+02
  6.027251E+02
  6.014383E+02
  6.001514E+02
  5.988642E+02
  5.973711E+02
  5.958262E+02
  5.942809E+02
  5.927354E+02
  5.911366E+02
  5.893652E+02
  5.875935E+02
  5.858214E+02
  5.840490E+02
  5.820629E+02
  5.800525E+02
  5.780419E+02
  5.760309E+02
  5.737644E+02
  5.714257E+02
  5.690868E+02
  5.667477E+02
  5.640899E+02
  5.613834E+02
  5.586769E+02
  5.559152E+02
  5.528402E+02
  5.497662E+02
  5.466931E+02
  5.433173E+02
  5.397563E+02
  5.361982E+02
  5.324872E+02
  5.283439E+02
  5.242068E+02
  5.200428E+02
  5.154833E+02
  5.109328E+02
  5.063812E+02
  5.016419E+02
  4.969122E+02
  4.921810E+02
  4.874064E+02
  4.826400E+02
  4.779178E+02
  4.732486E+02
  4.685854E+02
  4.641214E+02
  4.596974E+02
  4.554039E+02
  4.513235E+02
  4.472576E+02
  4.435914E+02
  4.399240E+02
  4.366570E+02
  4.334831E+02
  4.306816E+02
  4.280428E+02
  4.257613E+02
  4.236427E+02
  4.219286E+02
  4.203298E+02
  4.192647E+02
  4.183676E+02
  4.179388E+02
  4.179341E+02
  4.182532E+02
  4.193475E+02
  4.209946E+02
  4.232496E+02
  4.264403E+02
  4.307558E+02
  4.362584E+02
  4.433492E+02
  4.527622E+02
  4.659652E+02
  4.857797E+02
  5.168176E+02
  5.671951E+02
  6.448362E+02
  7.132347E+02
  7.265494E+02
  8.777189E+02
  2.091530E+02
  3.885073E-04
  1.800240E+03
  1.799790E+03
  1.799340E+03
  1.798890E+03
  1.798440E+03
  1.797990E+03
  1.797540E+03
  1.797090E+03
  1.796640E+03
  1.795491E+03
  1.794325E+03
  1.793159E+03
  1.791993E+03
  1.790827E+03
  1.789661E+03
  1.788495E+03
  1.787149E+03
  1.785471E+03
  1.783793E+03
  1.782115E+03
  1.780437E+03
  1.778760E+03
  1.777082E+03
  1.775332E+03
  1.773002E+03
  1.770672E+03
  1.768343E+03
  1.766013E+03
  1.763683E+03
  1.761354E+03
  1.758842E+03
  1.755725E+03
  1.752609E+03
  1.749492E+03
  1.746375E+03
  1.743258E+03
  1.740142E+03
  1.736443E+03
  1.732490E+03
  1.728537E+03
  1.724584E+03
  1.720631E+03
  1.716678E+03
  1.712314E+03
  1.707516E+03
  1.702718E+03
  1.697921E+03
  1.693123E+03
  1.688326E+03
  1.683055E+03
  1.677453E+03
  1.671850E+03
  1.666249E+03
  1.660647E+03
  1.655046E+03
  1.648774E+03
  1.642492E+03
  1.636210E+03
  1.629929E+03
  1.623649E+03
  1.617020E+03
  1.610212E+03
  1.603406E+03
  1.596600E+03
  1.589795E+03
  1.582720E+03
  1.575469E+03
  1.568219E+03
  1.560969E+03
  1.553721E+03
  1.546195E+03
  1.538601E+03
  1.531008E+03
  1.523415E+03
  1.515805E+03
  1.508137E+03
  1.500527E+03
  1.492859E+03
  1.485192E+03
  1.477612E+03
  1.470043E+03
  1.462474E+03
  1.454905E+03
  1.447330E+03
  1.439753E+03
  1.432178E+03
  1.424603E+03
  1.416997E+03
  1.409448E+03
  1.401900E+03
  1.394390E+03
  1.387092E+03
  1.379797E+03
  1.372504E+03
  1.365298E+03
  1.358149E+03
  1.351005E+03
  1.343797E+03
  1.336403E+03
  1.329019E+03
  1.321616E+03
  1.313870E+03
  1.306139E+03
  1.298401E+03
  1.290220E+03
  1.282059E+03
  1.273758E+03
  1.264712E+03
  1.255685E+03
  1.246084E+03
  1.235741E+03
  1.225415E+03
  1.213802E+03
  1.201957E+03
  1.189522E+03
  1.176092E+03
  1.162619E+03
  1.147596E+03
  1.132580E+03
  1.116375E+03
  1.099890E+03
  1.082587E+03
  1.064922E+03
  1.046671E+03
  1.028151E+03
  1.009220E+03
  9.901725E+02
  9.709747E+02
  9.518351E+02
  9.328901E+02
  9.143481E+02
  8.961244E+02
  8.788783E+02
  8.623905E+02
  8.467321E+02
  8.323554E+02
  8.194722E+02
  8.081655E+02
  7.990999E+02
  7.937232E+02
  7.953570E+02
  8.111183E+02
  8.529076E+02
  9.392180E+02
  1.084574E+03
  1.196455E+03
  1.131159E+03
  1.285208E+03
  2.063128E+02
 -8.708305E-11
  1.245070E+00
  1.244865E+00
  1.244660E+00
  1.244456E+00
  1.244251E+00
  1.244046E+00
  1.243842E+00
  1.243637E+00
  1.243432E+00
  1.242839E+00
  1.242236E+00
  1.241634E+00
  1.241031E+00
  1.240429E+00
  1.239826E+00
  1.239223E+00
  1.238495E+00
  1.237536E+00
  1.236578E+00
  1.235619E+00
  1.234660E+00
  1.233702E+00
  1.232743E+00
  1.231745E+00
  1.230428E+00
  1.229111E+00
  1.227795E+00
  1.226478E+00
  1.225162E+00
  1.223846E+00
  1.222440E+00
  1.220740E+00
  1.219040E+00
  1.217340E+00
  1.215640E+00
  1.213940E+00
  1.212240E+00
  1.210265E+00
  1.208171E+00
  1.206076E+00
  1.203981E+00
  1.201886E+00
  1.199792E+00
  1.197506E+00
  1.195019E+00
  1.192531E+00
  1.190044E+00
  1.187557E+00
  1.185070E+00
  1.182351E+00
  1.179469E+00
  1.176588E+00
  1.173707E+00
  1.170826E+00
  1.167946E+00
  1.164674E+00
  1.161396E+00
  1.158119E+00
  1.154842E+00
  1.151565E+00
  1.148028E+00
  1.144359E+00
  1.140691E+00
  1.137022E+00
  1.133354E+00
  1.129450E+00
  1.125392E+00
  1.121334E+00
  1.117276E+00
  1.113218E+00
  1.108839E+00
  1.104380E+00
  1.099920E+00
  1.095462E+00
  1.090906E+00
  1.086035E+00
  1.081165E+00
  1.076294E+00
  1.071424E+00
  1.066184E+00
  1.060902E+00
  1.055621E+00
  1.050339E+00
  1.044746E+00
  1.039064E+00
  1.033382E+00
  1.027701E+00
  1.021703E+00
  1.015658E+00
  1.009612E+00
  1.003520E+00
  9.971608E-01
  9.908020E-01
  9.844439E-01
  9.779068E-01
  9.712597E-01
  9.646142E-01
  9.578940E-01
  9.509629E-01
  9.440347E-01
  9.370884E-01
  9.298864E-01
  9.226890E-01
  9.154811E-01
  9.079786E-01
  9.004814E-01
  8.929225E-01
  8.850450E-01
  8.771726E-01
  8.691073E-01
  8.607930E-01
  8.524831E-01
  8.437730E-01
  8.349908E-01
  8.260298E-01
  8.167693E-01
  8.074958E-01
  7.977648E-01
  7.880358E-01
  7.779368E-01
  7.677505E-01
  7.572525E-01
  7.466170E-01
  7.356717E-01
  7.245841E-01
  7.131511E-01
  7.016192E-01
  6.896846E-01
  6.776435E-01
  6.653122E-01
  6.527705E-01
  6.400747E-01
  6.270681E-01
  6.138764E-01
  6.004889E-01
  5.868204E-01
  5.728521E-01
  5.586245E-01
  5.441617E-01
  5.296144E-01
  5.154730E-01
  5.029034E-01
  4.938896E-01
  4.923909E-01
  5.026042E-01
  4.985167E-01
  4.491454E-01
  5.055316E-01
  1.504039E-01
 -1.332743E-08
  1.124797E+00
  1.124642E+00
  1.124487E+00
  1.124332E+00
  1.124177E+00
  1.124022E+00
  1.123867E+00
  1.123712E+00
  1.123557E+00
  1.123240E+00
  1.122918E+00
  1.122597E+00
  1.122275E+00
  1.121954E+00
  1.121632E+00
  1.121311E+00
  1.120998E+00
  1.120700E+00
  1.120402E+00
  1.120104E+00
  1.119807E+00
  1.119509E+00
  1.119211E+00
  1.118908E+00
  1.118563E+00
  1.118217E+00
  1.117872E+00
  1.117527E+00
  1.117181E+00
  1.116836E+00
  1.116452E+00
  1.115939E+00
  1.115427E+00
  1.114914E+00
  1.114401E+00
  1.113889E+00
  1.113376E+00
  1.112739E+00
  1.112048E+00
  1.111356E+00
  1.110665E+00
  1.109973E+00
  1.109282E+00
  1.108505E+00
  1.107640E+00
  1.106774E+00
  1.105908E+00
  1.105042E+00
  1.104176E+00
  1.103166E+00
  1.102056E+00
  1.100946E+00
  1.099836E+00
  1.098726E+00
  1.097615E+00
  1.096159E+00
  1.094698E+00
  1.093236E+00
  1.091774E+00
  1.090312E+00
  1.088585E+00
  1.086722E+00
  1.084859E+00
  1.082995E+00
  1.081131E+00
  1.079005E+00
  1.076707E+00
  1.074408E+00
  1.072109E+00
  1.069810E+00
  1.067143E+00
  1.064383E+00
  1.061622E+00
  1.058861E+00
  1.056005E+00
  1.052841E+00
  1.049676E+00
  1.046510E+00
  1.043344E+00
  1.039796E+00
  1.036205E+00
  1.032613E+00
  1.029020E+00
  1.024972E+00
  1.020794E+00
  1.016616E+00
  1.012437E+00
  1.007689E+00
  1.002854E+00
  9.980192E-01
  9.930858E-01
  9.875926E-01
  9.821012E-01
  9.766114E-01
  9.705809E-01
  9.642195E-01
  9.578634E-01
  9.512340E-01
  9.438324E-01
  9.364419E-01
  9.290034E-01
  9.208583E-01
  9.127292E-01
  9.045983E-01
  8.961320E-01
  8.876829E-01
  8.792311E-01
  8.707017E-01
  8.621871E-01
  8.537514E-01
  8.454104E-01
  8.370800E-01
  8.291055E-01
  8.212024E-01
  8.135326E-01
  8.062433E-01
  7.989801E-01
  7.924308E-01
  7.858794E-01
  7.800432E-01
  7.743733E-01
  7.693688E-01
  7.646547E-01
  7.605791E-01
  7.567944E-01
  7.537323E-01
  7.508763E-01
  7.489737E-01
  7.473711E-01
  7.466049E-01
  7.465966E-01
  7.471667E-01
  7.491214E-01
  7.520639E-01
  7.560923E-01
  7.617920E-01
  7.695012E-01
  7.793310E-01
  7.919982E-01
  8.088134E-01
  8.323993E-01
  8.677959E-01
  9.232420E-01
  1.013236E+00
  1.151934E+00
  1.274121E+00
  1.297906E+00
  1.567955E+00
  3.736305E-01
  6.940287E-07
  1.252118E+00
  1.251805E+00
  1.251492E+00
  1.251179E+00
  1.250866E+00
  1.250553E+00
  1.250240E+00
  1.249927E+00
  1.249614E+00
  1.248815E+00
  1.248004E+00
  1.247193E+00
  1.246382E+00
  1.245571E+00
  1.244760E+00
  1.243949E+00
  1.243012E+00
  1.241845E+00
  1.240678E+00
  1.239511E+00
  1.238344E+00
  1.237178E+00
  1.236011E+00
  1.234793E+00
  1.233173E+00
  1.231553E+00
  1.229932E+00
  1.228312E+00
  1.226692E+00
  1.225071E+00
  1.223324E+00
  1.221156E+00
  1.218989E+00
  1.216821E+00
  1.214653E+00
  1.212485E+00
  1.210318E+00
  1.207745E+00
  1.204996E+00
  1.202246E+00
  1.199497E+00
  1.196747E+00
  1.193998E+00
  1.190963E+00
  1.187626E+00
  1.184289E+00
  1.180952E+00
  1.177615E+00
  1.174278E+00
  1.170612E+00
  1.166716E+00
  1.162819E+00
  1.158923E+00
  1.155027E+00
  1.151131E+00
  1.146769E+00
  1.142399E+00
  1.138030E+00
  1.133662E+00
  1.129293E+00
  1.124683E+00
  1.119948E+00
  1.115214E+00
  1.110480E+00
  1.105747E+00
  1.100827E+00
  1.095783E+00
  1.090740E+00
  1.085698E+00
  1.080657E+00
  1.075423E+00
  1.070141E+00
  1.064859E+00
  1.059578E+00
  1.054285E+00
  1.048952E+00
  1.043659E+00
  1.038326E+00
  1.032993E+00
  1.027721E+00
  1.022456E+00
  1.017192E+00
  1.011927E+00
  1.006659E+00
  1.001389E+00
  9.961199E-01
  9.908512E-01
  9.855614E-01
  9.803107E-01
  9.750609E-01
  9.698375E-01
  9.647617E-01
  9.596876E-01
  9.546150E-01
  9.496032E-01
  9.446310E-01
  9.396623E-01
  9.346489E-01
  9.295061E-01
  9.243704E-01
  9.192215E-01
  9.138334E-01
  9.084564E-01
  9.030744E-01
  8.973846E-01
  8.917080E-01
  8.859349E-01
  8.796428E-01
  8.733641E-01
  8.666865E-01
  8.594927E-01
  8.523105E-01
  8.442333E-01
  8.359953E-01
  8.273458E-01
  8.180053E-01
  8.086341E-01
  7.981856E-01
  7.877411E-01
  7.764706E-01
  7.650042E-01
  7.529695E-01
  7.406832E-01
  7.279894E-01
  7.151080E-01
  7.019410E-01
  6.886929E-01
  6.753403E-01
  6.620282E-01
  6.488514E-01
  6.359549E-01
  6.232798E-01
  6.112847E-01
  5.998169E-01
  5.889260E-01
  5.789267E-01
  5.699660E-01
  5.621019E-01
  5.557965E-01
  5.520569E-01
  5.531932E-01
  5.641557E-01
  5.932213E-01
  6.532526E-01
  7.543515E-01
  8.321679E-01
  7.867529E-01
  8.938985E-01
  1.434964E-01
 -6.056872E-14
  9.889750E-01
  9.888124E-01
  9.886498E-01
  9.884872E-01
  9.883245E-01
  9.881619E-01
  9.879993E-01
  9.878367E-01
  9.876741E-01
  9.872031E-01
  9.867244E-01
  9.862458E-01
  9.857671E-01
  9.852885E-01
  9.848099E-01
  9.843312E-01
  9.837528E-01
  9.829913E-01
  9.822298E-01
  9.814683E-01
  9.807068E-01
  9.799453E-01
  9.791839E-01
  9.783909E-01
  9.773451E-01
  9.762994E-01
  9.752537E-01
  9.742080E-01
  9.731624E-01
  9.721167E-01
  9.710006E-01
  9.696502E-01
  9.682998E-01
  9.669495E-01
  9.655992E-01
  9.642489E-01
  9.628987E-01
  9.613303E-01
  9.596663E-01
  9.580025E-01
  9.563387E-01
  9.546749E-01
  9.530112E-01
  9.511956E-01
  9.492198E-01
  9.472441E-01
  9.452684E-01
  9.432929E-01
  9.413175E-01
  9.391578E-01
  9.368691E-01
  9.345807E-01
  9.322923E-01
  9.300041E-01
  9.277161E-01
  9.251172E-01
  9.225137E-01
  9.199104E-01
  9.173073E-01
  9.147044E-01
  9.118955E-01
  9.089812E-01
  9.060671E-01
  9.031533E-01
  9.002398E-01
  8.971388E-01
  8.939150E-01
  8.906914E-01
  8.874682E-01
  8.842452E-01
  8.807669E-01
  8.772247E-01
  8.736827E-01
  8.701411E-01
  8.665226E-01
  8.626536E-01
  8.587848E-01
  8.549162E-01
  8.510479E-01
  8.468853E-01
  8.426900E-01
  8.384948E-01
  8.342998E-01
  8.298565E-01
  8.253433E-01
  8.208303E-01
  8.163175E-01
  8.115536E-01
  8.067515E-01
  8.019496E-01
  7.971106E-01
  7.920590E-01
  7.870079E-01
  7.819574E-01
  7.767645E-01
  7.714843E-01
  7.662052E-01
  7.608666E-01
  7.553602E-01
  7.498560E-01
  7.443372E-01
  7.386150E-01
  7.328962E-01
  7.271688E-01
  7.212071E-01
  7.152494E-01
  7.092426E-01
  7.029826E-01
  6.967265E-01
  6.903172E-01
  6.837103E-01
  6.771067E-01
  6.701858E-01
  6.632075E-01
  6.560876E-01
  6.487302E-01
  6.413625E-01
  6.336323E-01
  6.259038E-01
  6.178820E-01
  6.097912E-01
  6.014534E-01
  5.930067E-01
  5.843146E-01
  5.755095E-01
  5.664308E-01
  5.572735E-01
  5.477969E-01
  5.382357E-01
  5.284440E-01
  5.184854E-01
  5.084041E-01
  4.980760E-01
  4.876005E-01
  4.769692E-01
  4.661145E-01
  4.550212E-01
  4.437216E-01
  4.322347E-01
  4.206802E-01
  4.094474E-01
  3.994625E-01
  3.923014E-01
  3.911092E-01
  3.992191E-01
  3.959692E-01
  3.567504E-01
  4.015326E-01
  1.640916E-01
 -2.575171E-03
  5.630002E-02
  5.629226E-02
  5.628450E-02
  5.627675E-02
  5.626899E-02
  5.626124E-02
  5.625348E-02
  5.624573E-02
  5.623797E-02
  5.622208E-02
  5.620599E-02
  5.618990E-02
  5.617381E-02
  5.615772E-02
  5.614163E-02
  5.612554E-02
  5.610987E-02
  5.609497E-02
  5.608007E-02
  5.606516E-02
  5.605026E-02
  5.603536E-02
  5.602046E-02
  5.600529E-02
  5.598801E-02
  5.597073E-02
  5.595344E-02
  5.593615E-02
  5.591887E-02
  5.590158E-02
  5.588235E-02
  5.585671E-02
  5.583105E-02
  5.580540E-02
  5.577974E-02
  5.575408E-02
  5.572842E-02
  5.569654E-02
  5.566194E-02
  5.562734E-02
  5.559273E-02
  5.555812E-02
  5.552350E-02
  5.548464E-02
  5.544132E-02
  5.539799E-02
  5.535465E-02
  5.531130E-02
  5.526795E-02
  5.521743E-02
  5.516188E-02
  5.510632E-02
  5.505075E-02
  5.499517E-02
  5.493958E-02
  5.486671E-02
  5.479356E-02
  5.472040E-02
  5.464722E-02
  5.457404E-02
  5.448759E-02
  5.439434E-02
  5.430108E-02
  5.420780E-02
  5.411451E-02
  5.400809E-02
  5.389306E-02
  5.377801E-02
  5.366293E-02
  5.354784E-02
  5.341433E-02
  5.327619E-02
  5.313802E-02
  5.299983E-02
  5.285687E-02
  5.269848E-02
  5.254006E-02
  5.238161E-02
  5.222313E-02
  5.204554E-02
  5.186578E-02
  5.168600E-02
  5.150618E-02
  5.130352E-02
  5.109441E-02
  5.088528E-02
  5.067612E-02
  5.043847E-02
  5.019646E-02
  4.995445E-02
  4.970752E-02
  4.943255E-02
  4.915768E-02
  4.888288E-02
  4.858102E-02
  4.826258E-02
  4.794441E-02
  4.761254E-02
  4.724201E-02
  4.687202E-02
  4.649962E-02
  4.609183E-02
  4.568482E-02
  4.527772E-02
  4.485381E-02
  4.443074E-02
  4.400753E-02
  4.358043E-02
  4.315407E-02
  4.273165E-02
  4.231398E-02
  4.189683E-02
  4.149753E-02
  4.110181E-02
  4.071777E-02
  4.035281E-02
  3.998915E-02
  3.966128E-02
  3.933330E-02
  3.904117E-02
  3.875737E-02
  3.850692E-02
  3.827102E-02
  3.806711E-02
  3.787778E-02
  3.772466E-02
  3.758186E-02
  3.748681E-02
  3.740679E-02
  3.736864E-02
  3.736843E-02
  3.739718E-02
  3.749523E-02
  3.764271E-02
  3.784453E-02
  3.812999E-02
  3.851602E-02
  3.900816E-02
  3.964230E-02
  4.048402E-02
  4.166456E-02
  4.343621E-02
  4.621133E-02
  5.071560E-02
  5.765749E-02
  6.377278E-02
  6.496267E-02
  7.847821E-02
  2.568694E-02
  8.450449E-03
  1.609694E-01
  1.609291E-01
  1.608889E-01
  1.608486E-01
  1.608084E-01
  1.607682E-01
  1.607279E-01
  1.606877E-01
  1.606474E-01
  1.605447E-01
  1.604405E-01
  1.603362E-01
  1.602320E-01
  1.601277E-01
  1.600234E-01
  1.599192E-01
  1.597988E-01
  1.596488E-01
  1.594987E-01
  1.593487E-01
  1.591987E-01
  1.590487E-01
  1.588987E-01
  1.587422E-01
  1.585339E-01
  1.583256E-01
  1.581173E-01
  1.579090E-01
  1.577007E-01
  1.574924E-01
  1.572678E-01
  1.569891E-01
  1.567104E-01
  1.564318E-01
  1.561531E-01
  1.558744E-01
  1.555957E-01
  1.552650E-01
  1.549116E-01
  1.545581E-01
  1.542047E-01
  1.538512E-01
  1.534978E-01
  1.531076E-01
  1.526786E-01
  1.522496E-01
  1.518206E-01
  1.513917E-01
  1.509627E-01
  1.504914E-01
  1.499905E-01
  1.494896E-01
  1.489887E-01
  1.484878E-01
  1.479870E-01
  1.474262E-01
  1.468644E-01
  1.463028E-01
  1.457412E-01
  1.451796E-01
  1.445869E-01
  1.439782E-01
  1.433696E-01
  1.427610E-01
  1.421525E-01
  1.415200E-01
  1.408716E-01
  1.402233E-01
  1.395751E-01
  1.389270E-01
  1.382541E-01
  1.375751E-01
  1.368961E-01
  1.362172E-01
  1.355367E-01
  1.348511E-01
  1.341706E-01
  1.334850E-01
  1.327994E-01
  1.321217E-01
  1.314448E-01
  1.307680E-01
  1.300913E-01
  1.294139E-01
  1.287365E-01
  1.280591E-01
  1.273818E-01
  1.267017E-01
  1.260267E-01
  1.253518E-01
  1.246803E-01
  1.240277E-01
  1.233754E-01
  1.227232E-01
  1.220789E-01
  1.214396E-01
  1.208008E-01
  1.201561E-01
  1.194948E-01
  1.188344E-01
  1.181723E-01
  1.174794E-01
  1.167878E-01
  1.160956E-01
  1.153637E-01
  1.146336E-01
  1.138910E-01
  1.130816E-01
  1.122739E-01
  1.114150E-01
  1.104897E-01
  1.095659E-01
  1.085272E-01
  1.074677E-01
  1.063554E-01
  1.051543E-01
  1.039493E-01
  1.026060E-01
  1.012632E-01
  9.981427E-02
  9.834024E-02
  9.679325E-02
  9.521396E-02
  9.358238E-02
  9.192672E-02
  9.023443E-02
  8.853173E-02
  8.681567E-02
  8.510479E-02
  8.341135E-02
  8.175394E-02
  8.012496E-02
  7.858338E-02
  7.710957E-02
  7.570988E-02
  7.442475E-02
  7.327310E-02
  7.226234E-02
  7.145192E-02
  7.097126E-02
  7.111734E-02
  7.252651E-02
  7.626286E-02
  8.397993E-02
  9.697625E-02
  1.069791E-01
  1.011398E-01
  1.149125E-01
  2.533812E-02
 -1.894149E-09
  9.891053E-01
  9.889428E-01
  9.887802E-01
  9.886176E-01
  9.884551E-01
  9.882925E-01
  9.881299E-01
  9.879674E-01
  9.878048E-01
  9.873339E-01
  9.868554E-01
  9.863769E-01
  9.858984E-01
  9.854199E-01
  9.849414E-01
  9.844629E-01
  9.838846E-01
  9.831233E-01
  9.823621E-01
  9.816008E-01
  9.808396E-01
  9.800784E-01
  9.793172E-01
  9.785244E-01
  9.774791E-01