 Title = "ADflow Slice Data"
Variables =  "CoordinateX"  "CoordinateY"  "CoordinateZ"  "XoC"  "YoC"  "ZoC" "VelocityX" "VelocityY" "VelocityZ" "CoefPressure" "Mach" 
Zone T= "Slice_0001 None Relative Regular z = 0.10000000"
 Nodes =          114  Elements=          106  ZONETYPE=FELINESEG
 DATAPACKING=POINT
  7.301402E-01  6.738555E-02  1.000000E-01  7.450343E-01  5.888158E-02  1.416122E-17  2.552773E-02 -4.230919E-03 -1.916926E-04 -4.347042E-01  0.000000E+00
  7.043967E-01  7.150595E-02  1.000000E-01  7.187649E-01  6.308613E-02 -4.248366E-17  2.685454E-02 -4.143966E-03 -1.898226E-04 -4.692932E-01  0.000000E+00
  6.775455E-01  7.549869E-02  1.000000E-01  6.913653E-01  6.716041E-02  3.965142E-16  2.798998E-02 -4.015057E-03 -1.862166E-04 -5.017418E-01  0.000000E+00
  6.496792E-01  7.934961E-02  1.000000E-01  6.629299E-01  7.108998E-02  4.248366E-17  2.897104E-02 -3.875673E-03 -1.809178E-04 -5.352746E-01  0.000000E+00
  6.209097E-01  8.306843E-02  1.000000E-01  6.335729E-01  7.488476E-02 -2.832244E-17  2.990671E-02 -3.736858E-03 -1.740953E-04 -5.721559E-01  0.000000E+00
  5.913667E-01  8.662900E-02  1.000000E-01  6.034265E-01  7.851804E-02 -2.832244E-17  3.093030E-02 -3.588248E-03 -1.659715E-04 -6.127598E-01  0.000000E+00
  5.611982E-01  8.998882E-02  1.000000E-01  5.726419E-01  8.194648E-02  0.000000E+00  3.214165E-02 -3.421717E-03 -1.566904E-04 -6.579985E-01  0.000000E+00
  5.305654E-01  9.309503E-02  1.000000E-01  5.413834E-01  8.511614E-02 -5.664488E-17  3.361272E-02 -3.227980E-03 -1.463550E-04 -7.096470E-01  0.000000E+00
  4.996398E-01  9.589440E-02  1.000000E-01  5.098262E-01  8.797268E-02  0.000000E+00  3.540971E-02 -2.982231E-03 -1.351155E-04 -7.688035E-01  0.000000E+00
  4.685986E-01  9.831037E-02  1.000000E-01  4.781510E-01  9.043799E-02  1.416122E-17  3.758452E-02 -2.637664E-03 -1.232179E-04 -8.338696E-01  0.000000E+00
  4.376215E-01  1.002475E-01  1.000000E-01  4.465413E-01  9.241468E-02 -8.496733E-17  4.011894E-02 -2.144382E-03 -1.109594E-04 -9.010101E-01  0.000000E+00
  4.068895E-01  1.016142E-01  1.000000E-01  4.151816E-01  9.380931E-02  0.000000E+00  4.289295E-02 -1.464686E-03 -9.866805E-05 -9.654823E-01  0.000000E+00
  3.765814E-01  1.023398E-01  1.000000E-01  3.842545E-01  9.454975E-02 -5.664488E-17  4.570167E-02 -6.010880E-04 -8.669040E-05 -1.024589E+00  0.000000E+00
  3.468696E-01  1.024109E-01  1.000000E-01  3.539359E-01  9.462222E-02 -5.664488E-17  4.837315E-02  4.249162E-04 -7.542559E-05 -1.077099E+00  0.000000E+00
  3.179133E-01  1.018311E-01  1.000000E-01  3.243883E-01  9.403060E-02 -2.832244E-17  5.084535E-02  1.600632E-03 -6.525631E-05 -1.122686E+00  0.000000E+00
  2.898519E-01  1.006209E-01  1.000000E-01  2.957537E-01  9.279571E-02 -4.248366E-17  5.313003E-02  2.902311E-03 -5.635435E-05 -1.164564E+00  0.000000E+00
  2.628044E-01  9.882324E-02  1.000000E-01  2.681538E-01  9.096133E-02  0.000000E+00  5.530541E-02  4.317816E-03 -4.864386E-05 -1.206855E+00  0.000000E+00
  9.800000E-01  1.205810E-02  1.000000E-01  9.999971E-01  2.424148E-03 -2.832244E-17  1.060594E-02 -1.315959E-02 -1.994261E-04 -5.642088E-02  0.000000E+00
  9.720124E-01  1.418602E-02  1.000000E-01  9.918463E-01  4.595528E-03 -2.832244E-17  1.212720E-02 -3.301927E-03 -1.874960E-04  6.896567E-02  0.000000E+00
  9.632634E-01  1.653061E-02  1.000000E-01  9.829187E-01  6.988000E-03 -2.832244E-17  9.086053E-03 -2.372232E-03 -1.590791E-04  2.217263E-02  0.000000E+00
  9.536907E-01  1.908039E-02  1.000000E-01  9.731505E-01  9.589855E-03 -2.832244E-17  7.180765E-03 -1.902200E-03 -1.392821E-04  4.302935E-03  0.000000E+00
  9.432303E-01  2.181968E-02  1.000000E-01  9.624763E-01  1.238509E-02  1.416122E-17  6.746014E-03 -1.750967E-03 -1.323000E-04 -1.549223E-02  0.000000E+00
  9.318220E-01  2.475187E-02  1.000000E-01  9.508351E-01  1.537716E-02  1.416122E-17  7.456170E-03 -1.895169E-03 -1.345571E-04 -4.126747E-02  0.000000E+00
  9.194070E-01  2.788005E-02  1.000000E-01  9.381665E-01  1.856924E-02 -8.496733E-17  8.816137E-03 -2.194965E-03 -1.414090E-04 -6.900030E-02  0.000000E+00
  9.059278E-01  3.120232E-02  1.000000E-01  9.244120E-01  2.195936E-02 -5.664488E-17  1.041529E-02 -2.533768E-03 -1.496249E-04 -9.855134E-02  0.000000E+00
  8.913299E-01  3.471272E-02  1.000000E-01  9.095160E-01  2.554145E-02  0.000000E+00  1.204910E-02 -2.858126E-03 -1.576090E-04 -1.304552E-01  0.000000E+00
  8.755643E-01  3.840580E-02  1.000000E-01  8.934284E-01  2.930995E-02 -2.832244E-17  1.368474E-02 -3.158751E-03 -1.649264E-04 -1.648272E-01  0.000000E+00
  8.585885E-01  4.227065E-02  1.000000E-01  8.761059E-01  3.325374E-02  4.106754E-16  1.536542E-02 -3.439288E-03 -1.716951E-04 -2.012417E-01  0.000000E+00
  8.403666E-01  4.628473E-02  1.000000E-01  8.575119E-01  3.734981E-02  3.965142E-16  1.711163E-02 -3.696287E-03 -1.779093E-04 -2.390901E-01  0.000000E+00
  8.208730E-01  5.041812E-02  1.000000E-01  8.376202E-01  4.156761E-02 -8.496733E-17  1.889237E-02 -3.918362E-03 -1.832696E-04 -2.780408E-01  0.000000E+00
  8.000947E-01  5.463770E-02  1.000000E-01  8.164175E-01  4.587337E-02 -2.832244E-17  2.066319E-02 -4.092737E-03 -1.874887E-04 -3.178111E-01  0.000000E+00
  7.780326E-01  5.890358E-02  1.000000E-01  7.939048E-01  5.022637E-02 -2.832244E-17  2.238662E-02 -4.208131E-03 -1.903957E-04 -3.578842E-01  0.000000E+00
  7.547032E-01  6.316989E-02  1.000000E-01  7.700989E-01  5.457981E-02  4.389979E-16  2.402387E-02 -4.255164E-03 -1.918475E-04 -3.972739E-01  0.000000E+00
  7.301402E-01  6.738555E-02  1.000000E-01  7.450343E-01  5.888158E-02  2.832244E-17  2.552773E-02 -4.230919E-03 -1.916926E-04 -4.347042E-01  0.000000E+00
  2.444131E-01 -2.550536E-03  1.000000E-01  2.493869E-01 -1.248285E-02  3.681917E-16  2.786095E-02  1.278248E-03  4.570679E-05  1.677276E-01  0.000000E+00
  2.700250E-01 -1.379173E-03  1.000000E-01  2.755219E-01 -1.128756E-02 -4.248366E-17  2.810691E-02  1.265291E-03  4.795465E-05  1.660138E-01  0.000000E+00
  2.967058E-01 -1.984807E-04  1.000000E-01  3.027476E-01 -1.008276E-02 -2.832244E-17  2.847712E-02  1.296679E-03  5.096145E-05  1.581596E-01  0.000000E+00
  3.243554E-01  1.094371E-03  1.000000E-01  3.309618E-01 -8.763502E-03  4.248366E-16  2.861842E-02  1.449506E-03  5.481561E-05  1.453810E-01  0.000000E+00
  3.528511E-01  2.648978E-03  1.000000E-01  3.600396E-01 -7.177145E-03 -4.248366E-17  2.813551E-02  1.742691E-03  5.943032E-05  1.339591E-01  0.000000E+00
  3.820469E-01  4.680807E-03  1.000000E-01  3.898316E-01 -5.103818E-03  5.664488E-17  2.677159E-02  2.126390E-03  6.448431E-05  1.316062E-01  0.000000E+00
  4.117740E-01  7.357638E-03  1.000000E-01  4.201659E-01 -2.372318E-03 -5.664488E-17  2.460147E-02  2.483260E-03  6.952158E-05  1.453292E-01  0.000000E+00
  4.418498E-01  1.075476E-02  1.000000E-01  4.508559E-01  1.094185E-03 -2.832244E-17  2.206206E-02  2.676991E-03  7.418753E-05  1.754020E-01  0.000000E+00
  4.721105E-01  1.471995E-02  1.000000E-01  4.817347E-01  5.140363E-03 -5.664488E-17  1.992246E-02  2.511321E-03  7.862754E-05  2.273610E-01  0.000000E+00
  5.024968E-01  1.838864E-02  1.000000E-01  5.127416E-01  8.883977E-03  1.416122E-17  1.864039E-02  2.069826E-03  8.315844E-05  2.822402E-01  0.000000E+00
  5.328693E-01  2.143418E-02  1.000000E-01  5.437343E-01  1.199172E-02 -4.248366E-17  1.801050E-02  1.668014E-03  8.793072E-05  3.089602E-01  0.000000E+00
  5.630297E-01  2.398396E-02  1.000000E-01  5.745108E-01  1.459358E-02  1.416122E-17  1.767274E-02  1.396264E-03  9.299875E-05  3.160270E-01  0.000000E+00
  5.927917E-01  2.616931E-02  1.000000E-01  6.048806E-01  1.682356E-02  5.664488E-17  1.735472E-02  1.216923E-03  9.802755E-05  3.216085E-01  0.000000E+00
  6.219828E-01  2.811437E-02  1.000000E-01  6.346679E-01  1.880834E-02 -4.248366E-17  1.691527E-02  1.081426E-03  1.024782E-04  3.309779E-01  0.000000E+00
  6.504533E-01  2.984989E-02  1.000000E-01  6.637198E-01  2.057931E-02  5.664488E-17  1.637012E-02  9.310398E-04  1.060981E-04  3.446000E-01  0.000000E+00
  6.780742E-01  3.129719E-02  1.000000E-01  6.919049E-01  2.205616E-02  4.531591E-16  1.582775E-02  7.342198E-04  1.089859E-04  3.605159E-01  0.000000E+00
  7.047326E-01  3.235949E-02  1.000000E-01  7.191077E-01  2.314016E-02  0.000000E+00  1.540443E-02  4.965904E-04  1.114215E-04  3.750788E-01  0.000000E+00
  1.215943E-04  9.344718E-03  1.000000E-01  1.060953E-04 -3.446538E-04 -5.664488E-17 -4.527316E-02  8.075898E-02  6.990936E-05  7.525146E-01  0.000000E+00
  4.902502E-03  3.677479E-03  1.000000E-01  4.984645E-03 -6.127638E-03 -8.496733E-17 -1.672329E-02  1.949869E-02  5.566641E-05  9.380493E-01  0.000000E+00
  1.254908E-02  3.817941E-05  1.000000E-01  1.278739E-02 -9.841265E-03 -2.832244E-17  7.914207E-03 -2.067946E-03  4.186685E-05  5.427899E-01  0.000000E+00
  2.163699E-02 -2.348277E-03  1.000000E-01  2.206092E-02 -1.227646E-02  1.416122E-17  2.166623E-02 -4.463255E-03  3.584964E-05  3.414030E-01  0.000000E+00
  3.184423E-02 -4.022605E-03  1.000000E-01  3.247662E-02 -1.398499E-02 -2.832244E-17  2.740964E-02 -3.593939E-03  3.510193E-05  3.074873E-01  0.000000E+00
  4.311596E-02 -5.194984E-03  1.000000E-01  4.397856E-02 -1.518131E-02 -8.496733E-17  2.960222E-02 -2.377723E-03  3.567064E-05  2.722611E-01  0.000000E+00
  5.546913E-02 -5.908601E-03  1.000000E-01  5.658402E-02 -1.590950E-02  1.416122E-17  3.026702E-02 -1.403985E-03  3.645343E-05  2.397277E-01  0.000000E+00
  6.891473E-02 -6.377153E-03  1.000000E-01  7.030423E-02 -1.638762E-02 -8.496733E-17  3.050370E-02 -8.719633E-04  3.730487E-05  2.277418E-01  0.000000E+00
  8.348882E-02 -6.707272E-03  1.000000E-01  8.517597E-02 -1.672448E-02  5.664488E-17  3.062830E-02 -5.224835E-04  3.807887E-05  2.156893E-01  0.000000E+00
  9.923792E-02 -6.892853E-03  1.000000E-01  1.012467E-01 -1.691385E-02 -9.912855E-17  3.059824E-02 -1.641675E-04  3.878095E-05  1.967868E-01  0.000000E+00
  1.162051E-01 -6.876146E-03  1.000000E-01  1.185604E-01 -1.689681E-02 -8.496733E-17  3.037700E-02  2.033743E-04  3.949315E-05  1.799538E-01  0.000000E+00
  1.344203E-01 -6.649607E-03  1.000000E-01  1.371476E-01 -1.666564E-02 -8.496733E-17  2.998832E-02  5.251488E-04  4.024262E-05  1.706684E-01  0.000000E+00
  1.539027E-01 -6.210375E-03  1.000000E-01  1.570280E-01 -1.621744E-02  4.389979E-16  2.945200E-02  8.022815E-04  4.101192E-05  1.656587E-01  0.000000E+00
  1.746592E-01 -5.547600E-03  1.000000E-01  1.782083E-01 -1.554113E-02  3.257081E-16  2.884280E-02  1.021697E-03  4.184294E-05  1.637557E-01  0.000000E+00
  1.966815E-01 -4.690102E-03  1.000000E-01  2.006804E-01 -1.466611E-02 -2.832244E-17  2.829134E-02  1.167603E-03  4.282333E-05  1.649768E-01  0.000000E+00
  2.199461E-01 -3.676352E-03  1.000000E-01  2.244202E-01 -1.363166E-02 -4.248366E-17  2.792784E-02  1.251574E-03  4.405937E-05  1.668881E-01  0.000000E+00
  2.444131E-01 -2.550536E-03  1.000000E-01  2.493869E-01 -1.248285E-02  3.823530E-16  2.786095E-02  1.278248E-03  4.570679E-05  1.677276E-01  0.000000E+00
  7.047326E-01  3.235949E-02  1.000000E-01  7.191077E-01  2.314016E-02 -2.832244E-17  1.540443E-02  4.965904E-04  1.114215E-04  3.750788E-01  0.000000E+00
  7.303325E-01  3.297578E-02  1.000000E-01  7.452305E-01  2.376904E-02 -2.832244E-17  1.519187E-02  2.319295E-04  1.137323E-04  3.859118E-01  0.000000E+00
  7.547951E-01  3.312348E-02  1.000000E-01  7.701927E-01  2.391975E-02  4.389979E-16  1.526474E-02 -6.248021E-05  1.162282E-04  3.928369E-01  0.000000E+00
  7.780600E-01  3.278723E-02  1.000000E-01  7.939328E-01  2.357663E-02  1.416122E-17  1.567756E-02 -4.010679E-04  1.191438E-04  3.956204E-01  0.000000E+00
  8.000833E-01  3.197907E-02  1.000000E-01  8.164058E-01  2.275197E-02 -4.248366E-17  1.644184E-02 -7.978202E-04  1.225830E-04  3.935632E-01  0.000000E+00
  8.208376E-01  3.073152E-02  1.000000E-01  8.375840E-01  2.147894E-02 -2.832244E-17  1.749047E-02 -1.236650E-03  1.264289E-04  3.856105E-01  0.000000E+00
  8.403144E-01  2.915234E-02  1.000000E-01  8.574586E-01  1.986751E-02  4.389979E-16  1.866258E-02 -1.652478E-03  1.303127E-04  3.709449E-01  0.000000E+00
  8.585258E-01  2.740426E-02  1.000000E-01  8.760419E-01  1.808372E-02  3.965142E-16  1.976139E-02 -1.978803E-03  1.337473E-04  3.520763E-01  0.000000E+00
  8.754993E-01  2.563081E-02  1.000000E-01  8.933621E-01  1.627406E-02 -2.832244E-17  2.064259E-02 -2.197904E-03  1.362515E-04  3.332398E-01  0.000000E+00
  8.912718E-01  2.391511E-02  1.000000E-01  9.094567E-01  1.452332E-02 -2.832244E-17  2.129077E-02 -2.367737E-03  1.375330E-04  3.181289E-01  0.000000E+00
  9.058836E-01  2.225019E-02  1.000000E-01  9.243669E-01  1.282439E-02 -4.248366E-17  2.183093E-02 -2.574074E-03  1.376982E-04  3.073534E-01  0.000000E+00
  9.193796E-01  2.060020E-02  1.000000E-01  9.381386E-01  1.114071E-02 -5.664488E-17  2.245578E-02 -2.844950E-03  1.374418E-04  2.962438E-01  0.000000E+00
  9.318118E-01  1.896562E-02  1.000000E-01  9.508247E-01  9.472744E-03  4.248366E-17  2.336883E-02 -3.196676E-03  1.381899E-04  2.821233E-01  0.000000E+00
  9.432349E-01  1.734095E-02  1.000000E-01  9.624810E-01  7.814890E-03 -2.832244E-17  2.460979E-02 -3.645514E-03  1.409936E-04  2.655289E-01  0.000000E+00
  9.537058E-01  1.572584E-02  1.000000E-01  9.731659E-01  6.166788E-03  0.000000E+00  2.553902E-02 -4.090874E-03  1.434455E-04  2.408922E-01  0.000000E+00
  9.632829E-01  1.412453E-02  1.000000E-01  9.829385E-01  4.532777E-03 -2.832244E-17  2.455706E-02 -4.280121E-03  1.377544E-04  2.061503E-01  0.000000E+00
  9.720275E-01  1.256956E-02  1.000000E-01  9.918618E-01  2.946048E-03  0.000000E+00  2.087347E-02 -3.730910E-03  1.186780E-04  2.036533E-01  0.000000E+00
  9.800000E-01  1.108289E-02  1.000000E-01  9.999971E-01  1.429013E-03  1.416122E-17  1.389600E-02  4.372951E-03  7.579420E-05 -1.006201E-02  0.000000E+00
  1.215943E-04  1.002539E-02  1.000000E-01  1.060953E-04  3.499192E-04 -9.912855E-17  2.284698E-02  5.298546E-02  3.320537E-05  4.598890E-01  0.000000E+00
  7.278129E-05  9.910729E-03  1.000000E-01  5.628531E-05  2.329162E-04  1.416122E-17  1.553146E-02  7.596130E-02  4.602343E-05  3.002806E-01  0.000000E+00
  1.762252E-05  9.682474E-03  1.000000E-01  0.000000E+00  0.000000E+00  0.000000E+00 -1.209055E-02  1.217060E-01  6.661407E-05  3.403043E-01  0.000000E+00
  8.694958E-05  9.457310E-03  1.000000E-01  7.074296E-05 -2.297630E-04  0.000000E+00 -5.070603E-02  1.316666E-01  7.621228E-05  3.893687E-01  0.000000E+00
  1.215943E-04  9.344718E-03  1.000000E-01  1.060953E-04 -3.446538E-04 -4.248366E-17 -4.527316E-02  8.075898E-02  6.990936E-05  7.525146E-01  0.000000E+00
  9.800000E-01  1.108289E-02  1.000000E-01  9.999971E-01  1.429013E-03  0.000000E+00  1.389600E-02  4.372951E-03  7.579420E-05 -1.006201E-02  0.000000E+00
  9.800000E-01  1.124542E-02  1.000000E-01  9.999971E-01  1.594869E-03  0.000000E+00  4.508089E-03 -1.544516E-03 -1.273634E-05 -2.109169E-01  0.000000E+00
  9.800000E-01  1.157050E-02  1.000000E-01  9.999971E-01  1.926581E-03 -2.832244E-17 -4.417964E-04 -1.595938E-02 -1.121421E-04 -1.752721E-01  0.000000E+00
  9.800000E-01  1.189557E-02  1.000000E-01  9.999971E-01  2.258293E-03 -5.664488E-17  3.431606E-03 -1.964240E-02 -1.746542E-04 -1.936674E-01  0.000000E+00
  9.800000E-01  1.205810E-02  1.000000E-01  9.999971E-01  2.424148E-03  0.000000E+00  1.060594E-02 -1.315959E-02 -1.994261E-04 -5.642088E-02  0.000000E+00
  2.628044E-01  9.882324E-02  1.000000E-01  2.681538E-01  9.096133E-02 -2.832244E-17  5.530541E-02  4.317816E-03 -4.864386E-05 -1.206855E+00  0.000000E+00
  2.368706E-01  9.648771E-02  1.000000E-01  2.416903E-01  8.857811E-02  3.681917E-16  5.752921E-02  5.931630E-03 -4.195524E-05 -1.246593E+00  0.000000E+00
  2.121362E-01  9.360696E-02  1.000000E-01  2.164508E-01  8.563852E-02  1.416122E-17  5.983039E-02  7.819117E-03 -3.608305E-05 -1.276993E+00  0.000000E+00
  1.886687E-01  9.019865E-02  1.000000E-01  1.925040E-01  8.216060E-02 -4.248366E-17  6.203058E-02  9.958536E-03 -3.082708E-05 -1.293178E+00  0.000000E+00
  1.665185E-01  8.629494E-02  1.000000E-01  1.699014E-01  7.817717E-02  4.814815E-16  6.390201E-02  1.228345E-02 -2.607088E-05 -1.292684E+00  0.000000E+00
  1.457161E-01  8.195272E-02  1.000000E-01  1.486742E-01  7.374626E-02  4.531591E-16  6.529166E-02  1.472030E-02 -2.175338E-05 -1.277090E+00  0.000000E+00
  1.262764E-01  7.723167E-02  1.000000E-01  1.288374E-01  6.892879E-02  0.000000E+00  6.618236E-02  1.723270E-02 -1.780899E-05 -1.251597E+00  0.000000E+00
  1.081990E-01  7.219148E-02  1.000000E-01  1.103908E-01  6.378566E-02  0.000000E+00  6.661084E-02  1.979714E-02 -1.411605E-05 -1.223303E+00  0.000000E+00
  9.146971E-02  6.689446E-02  1.000000E-01  9.331986E-02  5.838046E-02  0.000000E+00  6.668636E-02  2.256837E-02 -1.057565E-05 -1.187405E+00  0.000000E+00
  7.608258E-02  6.133625E-02  1.000000E-01  7.761847E-02  5.270873E-02  0.000000E+00  6.636677E-02  2.571772E-02 -7.158388E-06 -1.125550E+00  0.000000E+00
  6.202881E-02  5.550615E-02  1.000000E-01  6.327767E-02  4.675955E-02 -5.664488E-17  6.531470E-02  2.910609E-02 -3.881963E-06 -1.020549E+00  0.000000E+00
  4.929579E-02  4.942100E-02  1.000000E-01  5.028460E-02  4.055013E-02 -8.496733E-17  6.317283E-02  3.218514E-02 -7.531758E-07 -8.774229E-01  0.000000E+00
  3.782553E-02  4.319150E-02  1.000000E-01  3.858008E-02  3.419340E-02  4.248366E-17  6.007617E-02  3.473668E-02  2.280686E-06 -7.229503E-01  0.000000E+00
  2.757469E-02  3.687142E-02  1.000000E-01  2.811988E-02  2.774424E-02 -2.832244E-17  5.652653E-02  3.699970E-02  5.505040E-06 -6.047811E-01  0.000000E+00
  1.848362E-02  3.053746E-02  1.000000E-01  1.884314E-02  2.128092E-02  5.664488E-17  5.319912E-02  4.042434E-02  9.715212E-06 -5.071279E-01  0.000000E+00
  1.064273E-02  2.406369E-02  1.000000E-01  1.084211E-02  1.467494E-02  1.416122E-17  4.944463E-02  4.663921E-02  1.630976E-05 -2.674602E-01  0.000000E+00
  4.262692E-03  1.730014E-02  1.000000E-01  4.331769E-03  7.773249E-03  1.416122E-17  4.008753E-02  5.387855E-02  2.549171E-05  2.437864E-01  0.000000E+00
  1.215943E-04  1.002539E-02  1.000000E-01  1.060953E-04  3.499192E-04 -8.496733E-17  2.284698E-02  5.298546E-02  3.320537E-05  4.598890E-01  0.000000E+00
    1    2
    2    3
    3    4
    4    5
    5    6
    6    7
    7    8
    8    9
    9   10
   10   11
   11   12
   12   13
   13   14
   14   15
   15   16
   16   17
   18   19
   19   20
   20   21
   21   22
   22   23
   23   24
   24   25
   25   26
   26   27
   27   28
   28   29
   29   30
   30   31
   31   32
   32   33
   33   34
   35   36
   36   37
   37   38
   38   39
   39   40
   40   41
   41   42
   42   43
   43   44
   44   45
   45   46
   46   47
   47   48
   48   49
   49   50
   50   51
   52   53
   53   54
   54   55
   55   56
   56   57
   57   58
   58   59
   59   60
   60   61
   61   62
   62   63
   63   64
   64   65
   65   66
   66   67
   67   68
   69   70
   70   71
   71   72
   72   73
   73   74
   74   75
   75   76
   76   77
   77   78
   78   79
   79   80
   80   81
   81   82
   82   83
   83   84
   84   85
   85   86
   87   88
   88   89
   89   90
   90   91
   92   93
   93   94
   94   95
   95   96
   97   98
   98   99
   99  100
  100  101
  101  102
  102  103
  103  104
  104  105
  105  106
  106  107
  107  108
  108  109
  109  110
  110  111
  111  112
  112  113
  113  114
Zone T= "Slice_0002 None Relative Regular z = 0.36666667"
 Nodes =          114  Elements=          106  ZONETYPE=FELINESEG
 DATAPACKING=POINT
  7.301402E-01  6.671752E-02  3.666667E-01  7.450347E-01  5.822341E-02 -5.664492E-17  2.567945E-02 -4.233161E-03 -6.069677E-04 -4.279872E-01  0.000000E+00
  7.043967E-01  7.081787E-02  3.666667E-01  7.187653E-01  6.240751E-02 -1.132898E-16  2.698936E-02 -4.146964E-03 -6.003202E-04 -4.619194E-01  0.000000E+00
  6.775455E-01  7.479658E-02  3.666667E-01  6.913657E-01  6.646748E-02  3.058825E-14  2.810828E-02 -4.020805E-03 -5.891085E-04 -4.938092E-01  0.000000E+00
  6.496792E-01  7.864099E-02  3.666667E-01  6.629303E-01  7.039041E-02 -1.699347E-16  2.907355E-02 -3.885921E-03 -5.739270E-04 -5.268837E-01  0.000000E+00
  6.209097E-01  8.236203E-02  3.666667E-01  6.335732E-01  7.418745E-02  0.000000E+00  2.999421E-02 -3.752947E-03 -5.555611E-04 -5.633975E-01  0.000000E+00
  5.913667E-01  8.593435E-02  3.666667E-01  6.034268E-01  7.783272E-02  1.132898E-16  3.100366E-02 -3.611262E-03 -5.346255E-04 -6.037368E-01  0.000000E+00
  5.611982E-01  8.931582E-02  3.666667E-01  5.726422E-01  8.128326E-02  2.265797E-16  3.220298E-02 -3.452647E-03 -5.111663E-04 -6.488274E-01  0.000000E+00
  5.305654E-01  9.245331E-02  3.666667E-01  5.413837E-01  8.448483E-02  1.132898E-16  3.366710E-02 -3.267720E-03 -4.848897E-04 -7.004424E-01  0.000000E+00
  4.996398E-01  9.529245E-02  3.666667E-01  5.098265E-01  8.738195E-02 -1.699347E-16  3.546623E-02 -3.031458E-03 -4.555396E-04 -7.596688E-01  0.000000E+00
  4.685986E-01  9.775488E-02  3.666667E-01  4.781513E-01  8.989468E-02  1.132898E-16  3.765512E-02 -2.696469E-03 -4.231239E-04 -8.249008E-01  0.000000E+00
  4.376215E-01  9.974287E-02  3.666667E-01  4.465416E-01  9.192328E-02 -5.664492E-17  4.021527E-02 -2.211769E-03 -3.877977E-04 -8.923047E-01  0.000000E+00
  4.068895E-01  1.011624E-01  3.666667E-01  4.151819E-01  9.337181E-02 -5.664492E-17  4.302389E-02 -1.538314E-03 -3.499341E-04 -9.571481E-01  0.000000E+00
  3.765814E-01  1.019406E-01  3.666667E-01  3.842547E-01  9.416586E-02  5.664492E-17  4.587379E-02 -6.774782E-04 -3.102974E-04 -1.016743E+00  0.000000E+00
  3.468696E-01  1.020620E-01  3.666667E-01  3.539361E-01  9.428978E-02 -5.664492E-17  4.859197E-02  3.501222E-04 -2.703932E-04 -1.069829E+00  0.000000E+00
  3.179133E-01  1.015291E-01  3.666667E-01  3.243884E-01  9.374596E-02  0.000000E+00  5.111493E-02  1.532349E-03 -2.322345E-04 -1.116003E+00  0.000000E+00
  2.898519E-01  1.003611E-01  3.666667E-01  2.957539E-01  9.255415E-02  5.664492E-17  5.345100E-02  2.845090E-03 -1.973407E-04 -1.158407E+00  0.000000E+00
  2.628044E-01  9.860070E-02  3.666667E-01  2.681540E-01  9.075778E-02  5.664492E-17  5.567415E-02  4.275091E-03 -1.662802E-04 -1.201137E+00  0.000000E+00
  9.800000E-01  1.179547E-02  3.666667E-01  9.999976E-01  2.179633E-03  5.664492E-17  1.059566E-02 -1.305582E-02 -6.341946E-04 -5.695646E-02  0.000000E+00
  9.720124E-01  1.390688E-02  3.666667E-01  9.918469E-01  4.334162E-03  0.000000E+00  1.215379E-02 -3.283828E-03 -5.993684E-04  6.952805E-02  0.000000E+00
  9.632634E-01  1.623354E-02  3.666667E-01  9.829192E-01  6.708343E-03  1.132898E-16  9.200957E-03 -2.383867E-03 -5.095957E-04  2.284848E-02  0.000000E+00
  9.536907E-01  1.876391E-02  3.666667E-01  9.731510E-01  9.290393E-03 -5.664492E-17  7.360157E-03 -1.934305E-03 -4.473794E-04  5.010047E-03  0.000000E+00
  9.432303E-01  2.148225E-02  3.666667E-01  9.624769E-01  1.206425E-02 -1.699347E-16  6.960028E-03 -1.792237E-03 -4.255212E-04 -1.470942E-02  0.000000E+00
  9.318220E-01  2.439191E-02  3.666667E-01  9.508356E-01  1.503334E-02 -5.664492E-17  7.684623E-03 -1.937887E-03 -4.326081E-04 -4.032648E-02  0.000000E+00
  9.194070E-01  2.749599E-02  3.666667E-01  9.381671E-01  1.820082E-02  0.000000E+00  9.046012E-03 -2.234527E-03 -4.539988E-04 -6.783026E-02  0.000000E+00
  9.059278E-01  3.079262E-02  3.666667E-01  9.244126E-01  2.156477E-02 -1.132898E-16  1.064008E-02 -2.568174E-03 -4.796452E-04 -9.709279E-02  0.000000E+00
  8.913299E-01  3.427590E-02  3.666667E-01  9.095165E-01  2.511920E-02  0.000000E+00  1.227018E-02 -2.887822E-03 -5.047029E-04 -1.286441E-01  0.000000E+00
  8.755643E-01  3.794055E-02  3.666667E-01  8.934290E-01  2.885869E-02 -1.132898E-16  1.390878E-02 -3.185523E-03 -5.278739E-04 -1.625926E-01  0.000000E+00
  8.585885E-01  4.177586E-02  3.666667E-01  8.761064E-01  3.277234E-02  3.098477E-14  1.559516E-02 -3.463869E-03 -5.493206E-04 -1.985167E-01  0.000000E+00
  8.403666E-01  4.575960E-02  3.666667E-01  8.575123E-01  3.683745E-02  3.098477E-14  1.734019E-02 -3.717323E-03 -5.686957E-04 -2.358109E-01  0.000000E+00
  8.208730E-01  4.986228E-02  3.666667E-01  8.376206E-01  4.102392E-02 -5.664492E-17  1.911037E-02 -3.934321E-03 -5.849625E-04 -2.741481E-01  0.000000E+00
  8.000947E-01  5.405136E-02  3.666667E-01  8.164180E-01  4.529856E-02 -5.664492E-17  2.086569E-02 -4.103450E-03 -5.973204E-04 -3.132520E-01  0.000000E+00
  7.780326E-01  5.828770E-02  3.666667E-01  7.939052E-01  4.962142E-02 -1.132898E-16  2.257230E-02 -4.214499E-03 -6.053282E-04 -3.526162E-01  0.000000E+00
  7.547032E-01  6.252639E-02  3.666667E-01  7.700994E-01  5.394668E-02  3.075819E-14  2.419259E-02 -4.258606E-03 -6.086383E-04 -3.912746E-01  0.000000E+00
  7.301402E-01  6.671752E-02  3.666667E-01  7.450347E-01  5.822341E-02 -5.664492E-17  2.567945E-02 -4.233161E-03 -6.069677E-04 -4.279872E-01  0.000000E+00
  2.444131E-01 -2.750910E-03  3.666667E-01  2.493870E-01 -1.266385E-02  3.092812E-14  2.811515E-02  1.256026E-03  1.512158E-04  1.656353E-01  0.000000E+00
  2.700250E-01 -1.612145E-03  3.666667E-01  2.755220E-01 -1.150183E-02  5.664492E-17  2.838001E-02  1.240142E-03  1.611587E-04  1.637908E-01  0.000000E+00
  2.967058E-01 -4.687385E-04  3.666667E-01  3.027478E-01 -1.033507E-02 -5.664492E-17  2.877344E-02  1.268970E-03  1.737542E-04  1.557424E-01  0.000000E+00
  3.243554E-01  7.820829E-04  3.666667E-01  3.309620E-01 -9.058698E-03  3.070154E-14  2.893607E-02  1.421218E-03  1.891074E-04  1.426943E-01  0.000000E+00
  3.528511E-01  2.290301E-03  3.666667E-01  3.600398E-01 -7.519676E-03 -5.664492E-17  2.846580E-02  1.717293E-03  2.065851E-04  1.309333E-01  0.000000E+00
  3.820469E-01  4.272387E-03  3.666667E-01  3.898318E-01 -5.497107E-03 -1.132898E-16  2.710323E-02  2.107946E-03  2.247009E-04  1.282130E-01  0.000000E+00
  4.117740E-01  6.897566E-03  3.666667E-01  4.201661E-01 -2.818312E-03  1.132898E-16  2.492454E-02  2.474685E-03  2.416117E-04  1.415933E-01  0.000000E+00
  4.418498E-01  1.024299E-02  3.666667E-01  4.508562E-01  5.954363E-04 -1.699347E-16  2.236934E-02  2.678421E-03  2.560846E-04  1.713836E-01  0.000000E+00
  4.721105E-01  1.415863E-02  3.666667E-01  4.817350E-01  4.591050E-03 -1.132898E-16  2.021388E-02  2.517744E-03  2.691079E-04  2.231855E-01  0.000000E+00
  5.024968E-01  1.778209E-02  3.666667E-01  5.127419E-01  8.288521E-03  5.664492E-17  1.892147E-02  2.075839E-03  2.820357E-04  2.780035E-01  0.000000E+00
  5.328693E-01  2.078894E-02  3.666667E-01  5.437346E-01  1.135678E-02 -2.265797E-16  1.828509E-02  1.673240E-03  2.952469E-04  3.046170E-01  0.000000E+00
  5.630297E-01  2.330837E-02  3.666667E-01  5.745111E-01  1.392767E-02  1.132898E-16  1.794122E-02  1.402373E-03  3.091601E-04  3.115094E-01  0.000000E+00
  5.927917E-01  2.547283E-02  3.666667E-01  6.048809E-01  1.613634E-02  0.000000E+00  1.761513E-02  1.225324E-03  3.230453E-04  3.169435E-01  0.000000E+00
  6.219828E-01  2.740677E-02  3.666667E-01  6.346683E-01  1.810977E-02  5.664492E-17  1.716477E-02  1.092721E-03  3.354087E-04  3.262647E-01  0.000000E+00
  6.504533E-01  2.914057E-02  3.666667E-01  6.637202E-01  1.987899E-02 -1.132898E-16  1.660656E-02  9.446958E-04  3.456348E-04  3.399388E-01  0.000000E+00
  6.780742E-01  3.059474E-02  3.666667E-01  6.919053E-01  2.136286E-02  3.092812E-14  1.605036E-02  7.491277E-04  3.540914E-04  3.559769E-01  0.000000E+00
  7.047326E-01  3.167130E-02  3.666667E-01  7.191082E-01  2.246140E-02 -5.664492E-17  1.561385E-02  5.117576E-04  3.615368E-04  3.707040E-01  0.000000E+00
  1.215943E-04  9.321678E-03  3.666667E-01  1.060954E-04 -3.446892E-04 -2.265797E-16 -4.430458E-02  7.907366E-02  2.177253E-04  7.569386E-01  0.000000E+00
  4.902502E-03  3.652797E-03  3.666667E-01  4.984648E-03 -6.129352E-03  5.664492E-17 -1.602810E-02  1.886559E-02  1.698468E-04  9.356971E-01  0.000000E+00
  1.254908E-02  1.073211E-05  3.666667E-01  1.278740E-02 -9.845803E-03  2.265797E-16  8.319673E-03 -2.234781E-03  1.257138E-04  5.383616E-01  0.000000E+00
  2.163699E-02 -2.379211E-03  3.666667E-01  2.206093E-02 -1.228456E-02  5.664492E-17  2.191495E-02 -4.526813E-03  1.068324E-04  3.374532E-01  0.000000E+00
  3.184423E-02 -4.057717E-03  3.666667E-01  3.247663E-02 -1.399735E-02  0.000000E+00  2.763161E-02 -3.635727E-03  1.044811E-04  3.042715E-01  0.000000E+00
  4.311596E-02 -5.235034E-03  3.666667E-01  4.397858E-02 -1.519871E-02 -1.132898E-16  2.983413E-02 -2.410571E-03  1.062810E-04  2.694461E-01  0.000000E+00
  5.546913E-02 -5.954465E-03  3.666667E-01  5.658405E-02 -1.593283E-02 -5.664492E-17  3.050685E-02 -1.430704E-03  1.087908E-04  2.371059E-01  0.000000E+00
  6.891473E-02 -6.429841E-03  3.666667E-01  7.030427E-02 -1.641792E-02  1.699347E-16  3.074782E-02 -8.958477E-04  1.116288E-04  2.253016E-01  0.000000E+00
  8.348882E-02 -6.767965E-03  3.666667E-01  8.517602E-02 -1.676295E-02  2.832246E-16  3.087592E-02 -5.449954E-04  1.144374E-04  2.134217E-01  0.000000E+00
  9.923792E-02 -6.962941E-03  3.666667E-01  1.012468E-01 -1.696191E-02 -1.132898E-16  3.084815E-02 -1.852673E-04  1.172828E-04  1.946413E-01  0.000000E+00
  1.162051E-01 -6.957261E-03  3.666667E-01  1.185605E-01 -1.695611E-02  5.664492E-17  3.062682E-02  1.837386E-04  1.204341E-04  1.778833E-01  0.000000E+00
  1.344203E-01 -6.743665E-03  3.666667E-01  1.371477E-01 -1.673815E-02  0.000000E+00  3.023553E-02  5.065467E-04  1.239792E-04  1.686517E-01  0.000000E+00
  1.539027E-01 -6.319617E-03  3.666667E-01  1.570281E-01 -1.630544E-02  3.064490E-14  2.969479E-02  7.842803E-04  1.278659E-04  1.636823E-01  0.000000E+00
  1.746592E-01 -5.674636E-03  3.666667E-01  1.782084E-01 -1.564729E-02  3.109806E-14  2.908143E-02  1.003731E-03  1.322194E-04  1.617975E-01  0.000000E+00
  1.966815E-01 -4.837955E-03  3.666667E-01  2.006805E-01 -1.479352E-02 -1.132898E-16  2.852905E-02  1.148947E-03  1.373080E-04  1.630086E-01  0.000000E+00
  2.199461E-01 -3.848497E-03  3.666667E-01  2.244203E-01 -1.378385E-02 -1.699347E-16  2.817026E-02  1.231535E-03  1.434702E-04  1.648775E-01  0.000000E+00
  2.444131E-01 -2.750910E-03  3.666667E-01  2.493870E-01 -1.266385E-02  3.092812E-14  2.811515E-02  1.256026E-03  1.512158E-04  1.656353E-01  0.000000E+00
  7.047326E-01  3.167130E-02  3.666667E-01  7.191082E-01  2.246140E-02 -5.664492E-17  1.561385E-02  5.117576E-04  3.615368E-04  3.707040E-01  0.000000E+00