 Title = "ADflow Slice Data"
Variables =  "CoordinateX"  "CoordinateY"  "CoordinateZ"  "XoC"  "YoC"  "ZoC" "VelocityX" "VelocityY" "VelocityZ" "CoefPressure" "Mach" 
Zone T= "Slice_0001 None Relative Regular z = 0.10000000"
 Nodes =          114  Elements=          106  ZONETYPE=FELINESEG
 DATAPACKING=POINT
  7.301402E-01  6.695906E-02  1.000000E-01  7.450346E-01  5.844660E-02  1.416123E-17  2.545745E-02 -4.210192E-03 -1.714800E-04 -4.316088E-01  0.000000E+00
  7.043967E-01  7.107103E-02  1.000000E-01  7.187652E-01  6.264256E-02 -4.248368E-17  2.676391E-02 -4.125719E-03 -1.701571E-04 -4.658945E-01  0.000000E+00
  6.775455E-01  7.506109E-02  1.000000E-01  6.913656E-01  6.671411E-02  3.965144E-16  2.787896E-02 -4.001169E-03 -1.680431E-04 -4.981287E-01  0.000000E+00
  6.496792E-01  7.891669E-02  1.000000E-01  6.629302E-01  7.064846E-02  4.248368E-17  2.884126E-02 -3.867997E-03 -1.653507E-04 -5.315930E-01  0.000000E+00
  6.209097E-01  8.264894E-02  1.000000E-01  6.335731E-01  7.445694E-02 -2.832245E-17  2.976175E-02 -3.736961E-03 -1.623077E-04 -5.685927E-01  0.000000E+00
  5.913667E-01  8.623219E-02  1.000000E-01  6.034267E-01  7.811337E-02 -2.832245E-17  3.077559E-02 -3.597251E-03 -1.590344E-04 -6.095202E-01  0.000000E+00
  5.611982E-01  8.962345E-02  1.000000E-01  5.726421E-01  8.157389E-02  0.000000E+00  3.198408E-02 -3.440224E-03 -1.554048E-04 -6.552924E-01  0.000000E+00
  5.305654E-01  9.276849E-02  1.000000E-01  5.413836E-01  8.478317E-02 -5.664491E-17  3.345998E-02 -3.255934E-03 -1.511284E-04 -7.076713E-01  0.000000E+00
  4.996398E-01  9.561184E-02  1.000000E-01  5.098264E-01  8.768459E-02  0.000000E+00  3.526979E-02 -3.018799E-03 -1.458926E-04 -7.677212E-01  0.000000E+00
  4.685986E-01  9.807410E-02  1.000000E-01  4.781512E-01  9.019714E-02  1.416123E-17  3.746557E-02 -2.681233E-03 -1.394594E-04 -8.337903E-01  0.000000E+00
  4.376215E-01  1.000568E-01  1.000000E-01  4.465415E-01  9.222031E-02 -8.496736E-17  4.002898E-02 -2.192430E-03 -1.316350E-04 -9.019578E-01  0.000000E+00
  4.068895E-01  1.014655E-01  1.000000E-01  4.151818E-01  9.365780E-02  0.000000E+00  4.283811E-02 -1.513687E-03 -1.223130E-04 -9.673530E-01  0.000000E+00
  3.765814E-01  1.022274E-01  1.000000E-01  3.842547E-01  9.443526E-02 -5.664491E-17  4.568350E-02 -6.468090E-04 -1.115706E-04 -1.027133E+00  0.000000E+00
  3.468696E-01  1.023276E-01  1.000000E-01  3.539361E-01  9.453751E-02 -5.664491E-17  4.838683E-02  3.860238E-04 -9.987019E-05 -1.079996E+00  0.000000E+00
  3.179133E-01  1.017701E-01  1.000000E-01  3.243884E-01  9.396858E-02 -2.832245E-17  5.088084E-02  1.569961E-03 -8.800892E-05 -1.125674E+00  0.000000E+00
  2.898519E-01  1.005764E-01  1.000000E-01  2.957538E-01  9.275056E-02 -4.248368E-17  5.317634E-02  2.879422E-03 -7.669368E-05 -1.167477E+00  0.000000E+00
  2.628044E-01  9.879092E-02  1.000000E-01  2.681539E-01  9.092860E-02  0.000000E+00  5.535413E-02  4.301490E-03 -6.630510E-05 -1.209598E+00  0.000000E+00
  9.800000E-01  1.188571E-02  1.000000E-01  9.999975E-01  2.248446E-03 -2.832245E-17  1.060371E-02 -1.313775E-02 -1.818705E-04 -5.610590E-02  0.000000E+00
  9.720124E-01  1.400280E-02  1.000000E-01  9.918467E-01  4.408769E-03 -2.832245E-17  1.213535E-02 -3.288733E-03 -1.749466E-04  6.936639E-02  0.000000E+00
  9.632634E-01  1.633563E-02  1.000000E-01  9.829191E-01  6.789249E-03 -2.832245E-17  9.112581E-03 -2.367956E-03 -1.485012E-04  2.261429E-02  0.000000E+00
  9.536907E-01  1.887270E-02  1.000000E-01  9.731509E-01  9.378134E-03 -2.832245E-17  7.218858E-03 -1.903344E-03 -1.300597E-04  4.731852E-03  0.000000E+00
  9.432303E-01  2.159828E-02  1.000000E-01  9.624767E-01  1.215939E-02  1.416123E-17  6.790070E-03 -1.754182E-03 -1.234684E-04 -1.503790E-02  0.000000E+00
  9.318220E-01  2.451577E-02  1.000000E-01  9.508355E-01  1.513646E-02  1.416123E-17  7.501737E-03 -1.897875E-03 -1.253279E-04 -4.075420E-02  0.000000E+00
  9.194070E-01  2.762825E-02  1.000000E-01  9.381669E-01  1.831251E-02 -8.496736E-17  8.859560E-03 -2.195516E-03 -1.313385E-04 -6.840369E-02  0.000000E+00
  9.059278E-01  3.093386E-02  1.000000E-01  9.244124E-01  2.168563E-02 -5.664491E-17  1.045405E-02 -2.531405E-03 -1.385212E-04 -9.784150E-02  0.000000E+00
  8.913299E-01  3.442671E-02  1.000000E-01  9.095164E-01  2.524981E-02  0.000000E+00  1.208187E-02 -2.852703E-03 -1.453975E-04 -1.296000E-01  0.000000E+00
  8.755643E-01  3.810147E-02  1.000000E-01  8.934288E-01  2.899963E-02 -2.832245E-17  1.371073E-02 -3.150368E-03 -1.515539E-04 -1.637942E-01  0.000000E+00
  8.585885E-01  4.194740E-02  1.000000E-01  8.761062E-01  3.292411E-02  4.106756E-16  1.538346E-02 -3.427987E-03 -1.570927E-04 -1.999980E-01  0.000000E+00
  8.403666E-01  4.594224E-02  1.000000E-01  8.575122E-01  3.700054E-02  3.965144E-16  1.711978E-02 -3.682047E-03 -1.620214E-04 -2.376026E-01  0.000000E+00
  8.208730E-01  5.005638E-02  1.000000E-01  8.376205E-01  4.119871E-02 -8.496736E-17  1.888851E-02 -3.901332E-03 -1.661013E-04 -2.762773E-01  0.000000E+00
  8.000947E-01  5.425722E-02  1.000000E-01  8.164178E-01  4.548534E-02 -2.832245E-17  2.064543E-02 -4.073368E-03 -1.691287E-04 -3.157407E-01  0.000000E+00
  7.780326E-01  5.850547E-02  1.000000E-01  7.939051E-01  4.982036E-02 -2.832245E-17  2.235315E-02 -4.187163E-03 -1.710333E-04 -3.554805E-01  0.000000E+00
  7.547032E-01  6.275609E-02  1.000000E-01  7.700992E-01  5.415780E-02  4.389980E-16  2.397284E-02 -4.233634E-03 -1.718077E-04 -3.945215E-01  0.000000E+00
  7.301402E-01  6.695906E-02  1.000000E-01  7.450346E-01  5.844660E-02  2.832245E-17  2.545745E-02 -4.210192E-03 -1.714800E-04 -4.316088E-01  0.000000E+00
  2.444131E-01 -2.576309E-03  1.000000E-01  2.493870E-01 -1.250895E-02  3.681919E-16  2.784158E-02  1.269026E-03  5.268276E-05  1.687255E-01  0.000000E+00
  2.700250E-01 -1.414415E-03  1.000000E-01  2.755220E-01 -1.132332E-02 -4.248368E-17  2.808597E-02  1.253330E-03  5.588892E-05  1.670929E-01  0.000000E+00
  2.967058E-01 -2.465993E-04  1.000000E-01  3.027477E-01 -1.013166E-02 -2.832245E-17  2.845682E-02  1.281161E-03  5.986012E-05  1.593094E-01  0.000000E+00
  3.243554E-01  1.028885E-03  1.000000E-01  3.309620E-01 -8.830122E-03  4.248368E-16  2.860275E-02  1.429687E-03  6.450759E-05  1.465662E-01  0.000000E+00
  3.528511E-01  2.560390E-03  1.000000E-01  3.600398E-01 -7.267337E-03 -4.248368E-17  2.812974E-02  1.718471E-03  6.949653E-05  1.351090E-01  0.000000E+00
  3.820469E-01  4.562269E-03  1.000000E-01  3.898318E-01 -5.224572E-03  5.664491E-17  2.678043E-02  2.099210E-03  7.426222E-05  1.325974E-01  0.000000E+00
  4.117740E-01  7.202542E-03  1.000000E-01  4.201661E-01 -2.530374E-03 -5.664491E-17  2.462728E-02  2.456093E-03  7.824038E-05  1.460127E-01  0.000000E+00
  4.418498E-01  1.055796E-02  1.000000E-01  4.508561E-01  8.935706E-04 -2.832245E-17  2.210443E-02  2.652781E-03  8.118533E-05  1.756740E-01  0.000000E+00
  4.721105E-01  1.447843E-02  1.000000E-01  4.817349E-01  4.894118E-03 -5.664491E-17  1.997933E-02  2.490799E-03  8.364681E-05  2.272042E-01  0.000000E+00
  5.024968E-01  1.810189E-02  1.000000E-01  5.127418E-01  8.591582E-03  1.416123E-17  1.870906E-02  2.051998E-03  8.610682E-05  2.816829E-01  0.000000E+00
  5.328693E-01  2.110453E-02  1.000000E-01  5.437346E-01  1.165555E-02 -4.248368E-17  1.808782E-02  1.652547E-03  8.855075E-05  3.080160E-01  0.000000E+00
  5.630297E-01  2.361648E-02  1.000000E-01  5.745110E-01  1.421880E-02  1.416123E-17  1.775515E-02  1.383731E-03  9.110205E-05  3.147171E-01  0.000000E+00
  5.927917E-01  2.577122E-02  1.000000E-01  6.048808E-01  1.641755E-02  5.664491E-17  1.743838E-02  1.208097E-03  9.365075E-05  3.199929E-01  0.000000E+00
  6.219828E-01  2.769423E-02  1.000000E-01  6.346682E-01  1.837983E-02 -4.248368E-17  1.699631E-02  1.076771E-03  9.588560E-05  3.291495E-01  0.000000E+00
  6.504533E-01  2.941674E-02  1.000000E-01  6.637201E-01  2.013752E-02  5.664491E-17  1.644539E-02  9.303392E-04  9.774666E-05  3.426660E-01  0.000000E+00
  6.780742E-01  3.085958E-02  1.000000E-01  6.919052E-01  2.160984E-02  4.531593E-16  1.589534E-02  7.367162E-04  9.939985E-05  3.585753E-01  0.000000E+00
  7.047326E-01  3.192464E-02  1.000000E-01  7.191080E-01  2.269664E-02  0.000000E+00  1.546370E-02  5.014728E-04  1.010468E-04  3.731975E-01  0.000000E+00
  1.215943E-04  9.344514E-03  1.000000E-01  1.060953E-04 -3.446548E-04 -5.664491E-17 -4.541966E-02  8.102030E-02  7.137995E-05  7.515760E-01  0.000000E+00
  4.902502E-03  3.677233E-03  1.000000E-01  4.984647E-03 -6.127685E-03 -8.496736E-17 -1.682961E-02  1.959629E-02  5.723657E-05  9.384586E-01  0.000000E+00
  1.254908E-02  3.785259E-05  1.000000E-01  1.278740E-02 -9.841395E-03 -2.832245E-17  7.858172E-03 -2.044526E-03  4.336349E-05  5.435615E-01  0.000000E+00
  2.163699E-02 -2.348719E-03  1.000000E-01  2.206092E-02 -1.227671E-02  1.416123E-17  2.164671E-02 -4.458867E-03  3.738284E-05  3.420916E-01  0.000000E+00
  3.184423E-02 -4.023209E-03  1.000000E-01  3.247663E-02 -1.398540E-02 -2.832245E-17  2.740464E-02 -3.593582E-03  3.680080E-05  3.081044E-01  0.000000E+00
  4.311596E-02 -5.195809E-03  1.000000E-01  4.397857E-02 -1.518195E-02 -8.496736E-17  2.960104E-02 -2.378156E-03  3.756709E-05  2.728529E-01  0.000000E+00
  5.546913E-02 -5.909729E-03  1.000000E-01  5.658404E-02 -1.591045E-02  1.416123E-17  3.026597E-02 -1.404639E-03  3.856896E-05  2.403128E-01  0.000000E+00
  6.891473E-02 -6.378696E-03  1.000000E-01  7.030426E-02 -1.638899E-02 -8.496736E-17  3.050150E-02 -8.728104E-04  3.967184E-05  2.283220E-01  0.000000E+00
  8.348882E-02 -6.709381E-03  1.000000E-01  8.517601E-02 -1.672643E-02  5.664491E-17  3.062447E-02 -5.235870E-04  4.072561E-05  2.162741E-01  0.000000E+00
  9.923792E-02 -6.895735E-03  1.000000E-01  1.012468E-01 -1.691659E-02 -9.912859E-17  3.059267E-02 -1.656315E-04  4.174083E-05  1.973914E-01  0.000000E+00
  1.162051E-01 -6.880084E-03  1.000000E-01  1.185605E-01 -1.690062E-02 -8.496736E-17  3.036968E-02  2.014241E-04  4.281257E-05  1.805898E-01  0.000000E+00
  1.344203E-01 -6.654990E-03  1.000000E-01  1.371477E-01 -1.667093E-02 -8.496736E-17  2.997926E-02  5.225757E-04  4.397631E-05  1.713436E-01  0.000000E+00
  1.539027E-01 -6.217735E-03  1.000000E-01  1.570280E-01 -1.622475E-02  4.389980E-16  2.944119E-02  7.989261E-04  4.521789E-05  1.663812E-01  0.000000E+00
  1.746592E-01 -5.557665E-03  1.000000E-01  1.782084E-01 -1.555120E-02  3.257082E-16  2.883013E-02  1.017366E-03  4.659167E-05  1.645345E-01  0.000000E+00
  1.966815E-01 -4.703870E-03  1.000000E-01  2.006805E-01 -1.467996E-02 -2.832245E-17  2.827660E-02  1.162043E-03  4.820401E-05  1.658209E-01  0.000000E+00
  2.199461E-01 -3.695190E-03  1.000000E-01  2.244203E-01 -1.365068E-02 -4.248368E-17  2.791078E-02  1.244429E-03  5.017829E-05  1.678059E-01  0.000000E+00
  2.444131E-01 -2.576309E-03  1.000000E-01  2.493870E-01 -1.250895E-02  3.823531E-16  2.784158E-02  1.269026E-03  5.268276E-05  1.687255E-01  0.000000E+00
  7.047326E-01  3.192464E-02  1.000000E-01  7.191080E-01  2.269664E-02 -2.832245E-17  1.546370E-02  5.014728E-04  1.010468E-04  3.731975E-01  0.000000E+00
  7.303325E-01  3.254937E-02  1.000000E-01  7.452308E-01  2.333414E-02 -2.832245E-17  1.524313E-02  2.386503E-04  1.028723E-04  3.841181E-01  0.000000E+00
  7.547951E-01  3.270974E-02  1.000000E-01  7.701930E-01  2.349778E-02  4.389980E-16  1.530896E-02 -5.418672E-05  1.050610E-04  3.911392E-01  0.000000E+00
  7.780600E-01  3.238913E-02  1.000000E-01  7.939331E-01  2.317063E-02  1.416123E-17  1.571590E-02 -3.912333E-04  1.077608E-04  3.940184E-01  0.000000E+00
  8.000833E-01  3.159858E-02  1.000000E-01  8.164061E-01  2.236392E-02 -4.248368E-17  1.647536E-02 -7.862980E-04  1.110287E-04  3.920507E-01  0.000000E+00
  8.208376E-01  3.036975E-02  1.000000E-01  8.375844E-01  2.111000E-02 -2.832245E-17  1.751992E-02 -1.223182E-03  1.147250E-04  3.841780E-01  0.000000E+00
  8.403144E-01  2.880979E-02  1.000000E-01  8.574590E-01  1.951818E-02  4.389980E-16  1.868821E-02 -1.636791E-03  1.184625E-04  3.695837E-01  0.000000E+00
  8.585258E-01  2.708095E-02  1.000000E-01  8.760423E-01  1.775402E-02  3.965144E-16  1.978305E-02 -1.960766E-03  1.217570E-04  3.507853E-01  0.000000E+00
  8.754993E-01  2.532641E-02  1.000000E-01  8.933625E-01  1.596365E-02 -2.832245E-17  2.065990E-02 -2.177601E-03  1.241608E-04  3.320264E-01  0.000000E+00
  8.912718E-01  2.362904E-02  1.000000E-01  9.094571E-01  1.423161E-02 -2.832245E-17  2.130340E-02 -2.345395E-03  1.254389E-04  3.170046E-01  0.000000E+00
  9.058836E-01  2.198168E-02  1.000000E-01  9.243673E-01  1.255061E-02 -4.248368E-17  2.183866E-02 -2.549849E-03  1.257336E-04  3.063270E-01  0.000000E+00
  9.193796E-01  2.034837E-02  1.000000E-01  9.381390E-01  1.088394E-02 -5.664491E-17  2.245830E-02 -2.818730E-03  1.256932E-04  2.953183E-01  0.000000E+00
  9.318118E-01  1.872951E-02  1.000000E-01  9.508251E-01  9.232022E-03  4.248368E-17  2.336572E-02 -3.168031E-03  1.266401E-04  2.812994E-01  0.000000E+00
  9.432349E-01  1.711957E-02  1.000000E-01  9.624814E-01  7.589193E-03 -2.832245E-17  2.460159E-02 -3.614052E-03  1.295641E-04  2.648137E-01  0.000000E+00
  9.537058E-01  1.551817E-02  1.000000E-01  9.731663E-01  5.955087E-03  0.000000E+00  2.553004E-02 -4.057574E-03  1.322264E-04  2.403116E-01  0.000000E+00
  9.632829E-01  1.392958E-02  1.000000E-01  9.829389E-01  4.334052E-03 -2.832245E-17  2.455777E-02 -4.249202E-03  1.273273E-04  2.057059E-01  0.000000E+00
  9.720275E-01  1.238635E-02  1.000000E-01  9.918622E-01  2.759309E-03  0.000000E+00  2.089183E-02 -3.707440E-03  1.095538E-04  2.033291E-01  0.000000E+00
  9.800000E-01  1.091050E-02  1.000000E-01  9.999975E-01  1.253311E-03  1.416123E-17  1.390580E-02  4.363167E-03  6.599936E-05 -1.005344E-02  0.000000E+00
  1.215943E-04  1.002519E-02  1.000000E-01  1.060953E-04  3.499185E-04 -9.912859E-17  2.284543E-02  5.296247E-02  3.256131E-05  4.584576E-01  0.000000E+00
  7.278129E-05  9.910525E-03  1.000000E-01  5.628533E-05  2.329158E-04  1.416123E-17  1.552674E-02  7.595422E-02  4.602154E-05  2.985477E-01  0.000000E+00
  1.762252E-05  9.682271E-03  1.000000E-01  0.000000E+00  0.000000E+00  0.000000E+00 -1.214006E-02  1.218721E-01  6.730666E-05  3.384197E-01  0.000000E+00
  8.694958E-05  9.457106E-03  1.000000E-01  7.074299E-05 -2.297637E-04  0.000000E+00 -5.083657E-02  1.319943E-01  7.739194E-05  3.875219E-01  0.000000E+00
  1.215943E-04  9.344514E-03  1.000000E-01  1.060953E-04 -3.446548E-04 -4.248368E-17 -4.541966E-02  8.102030E-02  7.137995E-05  7.515760E-01  0.000000E+00
  9.800000E-01  1.091050E-02  1.000000E-01  9.999975E-01  1.253311E-03  0.000000E+00  1.390580E-02  4.363167E-03  6.599936E-05 -1.005344E-02  0.000000E+00
  9.800000E-01  1.107303E-02  1.000000E-01  9.999975E-01  1.419167E-03  0.000000E+00  4.503895E-03 -1.582422E-03 -1.360467E-05 -2.106252E-01  0.000000E+00
  9.800000E-01  1.139811E-02  1.000000E-01  9.999975E-01  1.750879E-03 -2.832245E-17 -4.427938E-04 -1.597670E-02 -9.968143E-05 -1.749258E-01  0.000000E+00
  9.800000E-01  1.172318E-02  1.000000E-01  9.999975E-01  2.082590E-03 -5.664491E-17  3.429929E-03 -1.962839E-02 -1.561450E-04 -1.933305E-01  0.000000E+00
  9.800000E-01  1.188571E-02  1.000000E-01  9.999975E-01  2.248446E-03  0.000000E+00  1.060371E-02 -1.313775E-02 -1.818705E-04 -5.610590E-02  0.000000E+00
  2.628044E-01  9.879092E-02  1.000000E-01  2.681539E-01  9.092860E-02 -2.832245E-17  5.535413E-02  4.301490E-03 -6.630510E-05 -1.209598E+00  0.000000E+00
  2.368706E-01  9.646427E-02  1.000000E-01  2.416904E-01  8.855443E-02  3.681919E-16  5.757561E-02  5.920512E-03 -5.700971E-05 -1.249121E+00  0.000000E+00
  2.121362E-01  9.358997E-02  1.000000E-01  2.164509E-01  8.562143E-02  1.416123E-17  5.987263E-02  7.812058E-03 -4.878540E-05 -1.279283E+00  0.000000E+00
  1.886687E-01  9.018634E-02  1.000000E-01  1.925041E-01  8.214828E-02 -4.248368E-17  6.206816E-02  9.954617E-03 -4.148208E-05 -1.295225E+00  0.000000E+00
  1.665185E-01  8.628602E-02  1.000000E-01  1.699014E-01  7.816830E-02  4.814817E-16  6.393489E-02  1.228192E-02 -3.498338E-05 -1.294500E+00  0.000000E+00
  1.457161E-01  8.194625E-02  1.000000E-01  1.486742E-01  7.373989E-02  4.531593E-16  6.531997E-02  1.472051E-02 -2.920629E-05 -1.278701E+00  0.000000E+00
  1.262764E-01  7.722698E-02  1.000000E-01  1.288375E-01  6.892423E-02  0.000000E+00  6.620645E-02  1.723414E-02 -2.405034E-05 -1.253042E+00  0.000000E+00
  1.081990E-01  7.218806E-02  1.000000E-01  1.103909E-01  6.378241E-02  0.000000E+00  6.663128E-02  1.979945E-02 -1.934169E-05 -1.224617E+00  0.000000E+00
  9.146971E-02  6.689198E-02  1.000000E-01  9.331990E-02  5.837816E-02  0.000000E+00  6.670392E-02  2.257138E-02 -1.494247E-05 -1.188610E+00  0.000000E+00
  7.608258E-02  6.133444E-02  1.000000E-01  7.761850E-02  5.270711E-02  0.000000E+00  6.638216E-02  2.572141E-02 -1.080633E-05 -1.126656E+00  0.000000E+00
  6.202881E-02  5.550483E-02  1.000000E-01  6.327770E-02  4.675843E-02 -5.664491E-17  6.532831E-02  2.911040E-02 -6.941679E-06 -1.021562E+00  0.000000E+00
  4.929579E-02  4.942003E-02  1.000000E-01  5.028462E-02  4.054936E-02 -8.496736E-17  6.318481E-02  3.218989E-02 -3.339013E-06 -8.783622E-01  0.000000E+00
  3.782553E-02  4.319078E-02  1.000000E-01  3.858010E-02  3.419289E-02  4.248368E-17  6.008696E-02  3.474191E-02  7.529330E-08 -7.238556E-01  0.000000E+00
  2.757469E-02  3.687089E-02  1.000000E-01  2.811989E-02  2.774392E-02 -2.832245E-17  5.653728E-02  3.700604E-02  3.632062E-06 -6.056827E-01  0.000000E+00
  1.848362E-02  3.053706E-02  1.000000E-01  1.884315E-02  2.128073E-02  5.664491E-17  5.321167E-02  4.043349E-02  8.166175E-06 -5.080124E-01  0.000000E+00
  1.064273E-02  2.406339E-02  1.000000E-01  1.084212E-02  1.467484E-02  1.416123E-17  4.945948E-02  4.665282E-02  1.505427E-05 -2.683425E-01  0.000000E+00
  4.262692E-03  1.729990E-02  1.000000E-01  4.331771E-03  7.773214E-03  1.416123E-17  4.009872E-02  5.389236E-02  2.446633E-05  2.426551E-01  0.000000E+00
  1.215943E-04  1.002519E-02  1.000000E-01  1.060953E-04  3.499185E-04 -8.496736E-17  2.284543E-02  5.296247E-02  3.256131E-05  4.584576E-01  0.000000E+00
    1    2
    2    3
    3    4
    4    5
    5    6
    6    7
    7    8
    8    9
    9   10
   10   11
   11   12
   12   13
   13   14
   14   15
   15   16
   16   17
   18   19
   19   20
   20   21
   21   22
   22   23
   23   24
   24   25
   25   26
   26   27
   27   28
   28   29
   29   30
   30   31
   31   32
   32   33
   33   34
   35   36
   36   37
   37   38
   38   39
   39   40
   40   41
   41   42
   42   43
   43   44
   44   45
   45   46
   46   47
   47   48
   48   49
   49   50
   50   51
   52   53
   53   54
   54   55
   55   56
   56   57
   57   58
   58   59
   59   60
   60   61
   61   62
   62   63
   63   64
   64   65
   65   66
   66   67
   67   68
   69   70
   70   71
   71   72
   72   73
   73   74
   74   75
   75   76
   76   77
   77   78
   78   79
   79   80
   80   81
   81   82
   82   83
   83   84
   84   85
   85   86
   87   88
   88   89
   89   90
   90   91
   92   93
   93   94
   94   95
   95   96
   97   98
   98   99
   99  100
  100  101
  101  102
  102  103
  103  104
  104  105
  105  106
  106  107
  107  108
  108  109
  109  110
  110  111
  111  112
  112  113
  113  114
Zone T= "Slice_0002 None Relative Regular z = 0.36666667"
 Nodes =          114  Elements=          106  ZONETYPE=FELINESEG
 DATAPACKING=POINT
  7.301402E-01  6.670307E-02  3.666667E-01  7.450347E-01  5.820678E-02 -5.664492E-17  2.561321E-02 -4.230830E-03 -5.747763E-04 -4.272070E-01  0.000000E+00
  7.043967E-01  7.081279E-02  3.666667E-01  7.187654E-01  6.240043E-02 -1.132898E-16  2.692113E-02 -4.146302E-03 -5.709648E-04 -4.612477E-01  0.000000E+00
  6.775455E-01  7.480177E-02  3.666667E-01  6.913658E-01  6.647089E-02  3.058826E-14  2.804140E-02 -4.021718E-03 -5.639122E-04 -4.932943E-01  0.000000E+00
  6.496792E-01  7.865655E-02  3.666667E-01  6.629304E-01  7.040441E-02 -1.699348E-16  2.901152E-02 -3.887839E-03 -5.542567E-04 -5.265260E-01  0.000000E+00
  6.209097E-01  8.238682E-02  3.666667E-01  6.335733E-01  7.421086E-02  0.000000E+00  2.993974E-02 -3.755188E-03 -5.427220E-04 -5.631625E-01  0.000000E+00
  5.913667E-01  8.596643E-02  3.666667E-01  6.034269E-01  7.786358E-02  1.132898E-16  3.095819E-02 -3.613440E-03 -5.297223E-04 -6.035946E-01  0.000000E+00
  5.611982E-01  8.935309E-02  3.666667E-01  5.726423E-01  8.131941E-02  2.265797E-16  3.216720E-02 -3.454544E-03 -5.149487E-04 -6.487573E-01  0.000000E+00
  5.305654E-01  9.249357E-02  3.666667E-01  5.413837E-01  8.452403E-02  1.132898E-16  3.364143E-02 -3.269138E-03 -4.976183E-04 -7.004289E-01  0.000000E+00
  4.996398E-01  9.533363E-02  3.666667E-01  5.098265E-01  8.742210E-02 -1.699348E-16  3.545098E-02 -3.032233E-03 -4.769039E-04 -7.597041E-01  0.000000E+00
  4.685986E-01  9.779520E-02  3.666667E-01  4.781513E-01  8.993394E-02  1.132898E-16  3.765046E-02 -2.696466E-03 -4.522073E-04 -8.249844E-01  0.000000E+00
  4.376215E-01  9.978093E-02  3.666667E-01  4.465416E-01  9.196023E-02 -5.664492E-17  4.022087E-02 -2.210829E-03 -4.230614E-04 -8.924415E-01  0.000000E+00
  4.068895E-01  1.011973E-01  3.666667E-01  4.151819E-01  9.340552E-02 -5.664492E-17  4.303848E-02 -1.536253E-03 -3.892842E-04 -9.573427E-01  0.000000E+00
  3.765814E-01  1.019718E-01  3.666667E-01  3.842547E-01  9.419585E-02  5.664492E-17  4.589498E-02 -6.741779E-04 -3.512972E-04 -1.016996E+00  0.000000E+00
  3.468696E-01  1.020895E-01  3.666667E-01  3.539362E-01  9.431599E-02 -5.664492E-17  4.861680E-02  3.546266E-04 -3.106954E-04 -1.070134E+00  0.000000E+00
  3.179133E-01  1.015531E-01  3.666667E-01  3.243885E-01  9.376856E-02  0.000000E+00  5.114053E-02  1.537861E-03 -2.700399E-04 -1.116351E+00  0.000000E+00
  2.898519E-01  1.003818E-01  3.666667E-01  2.957539E-01  9.257342E-02  5.664492E-17  5.347519E-02  2.851303E-03 -2.315699E-04 -1.158788E+00  0.000000E+00
  2.628044E-01  9.861852E-02  3.666667E-01  2.681540E-01  9.077408E-02  5.664492E-17  5.569563E-02  4.281675E-03 -1.964905E-04 -1.201541E+00  0.000000E+00
  9.800000E-01  1.176083E-02  3.666667E-01  9.999977E-01  2.142388E-03  5.664492E-17  1.059920E-02 -1.305234E-02 -5.993565E-04 -5.685497E-02  0.000000E+00
  9.720124E-01  1.387080E-02  3.666667E-01  9.918470E-01  4.295459E-03  0.000000E+00  1.216165E-02 -3.283940E-03 -5.702214E-04  6.968719E-02  0.000000E+00
  9.632634E-01  1.619604E-02  3.666667E-01  9.829193E-01  6.668185E-03  1.132898E-16  9.211227E-03 -2.385300E-03 -4.847908E-04  2.303856E-02  0.000000E+00
  9.536907E-01  1.872502E-02  3.666667E-01  9.731511E-01  9.248817E-03 -5.664492E-17  7.370500E-03 -1.936170E-03 -4.255301E-04  5.224916E-03  0.000000E+00
  9.432303E-01  2.144204E-02  3.666667E-01  9.624770E-01  1.202134E-02 -1.699348E-16  6.968791E-03 -1.793869E-03 -4.045443E-04 -1.446087E-02  0.000000E+00
  9.318220E-01  2.435053E-02  3.666667E-01  9.508357E-01  1.498923E-02 -5.664492E-17  7.690444E-03 -1.938836E-03 -4.109068E-04 -4.003496E-02  0.000000E+00
  9.194070E-01  2.745364E-02  3.666667E-01  9.381671E-01  1.815571E-02  0.000000E+00  9.047748E-03 -2.234539E-03 -4.307356E-04 -6.748743E-02  0.000000E+00
  9.059278E-01  3.074958E-02  3.666667E-01  9.244126E-01  2.151897E-02 -1.132898E-16  1.063681E-02 -2.567155E-03 -4.545248E-04 -9.669036E-02  0.000000E+00
  8.913299E-01  3.423256E-02  3.666667E-01  9.095166E-01  2.507309E-02  0.000000E+00  1.226100E-02 -2.885745E-03 -4.776912E-04 -1.281751E-01  0.000000E+00
  8.755643E-01  3.789742E-02  3.666667E-01  8.934290E-01  2.881280E-02 -1.132898E-16  1.389265E-02 -3.182369E-03 -4.990140E-04 -1.620521E-01  0.000000E+00
  8.585885E-01  4.173359E-02  3.666667E-01  8.761064E-01  3.272732E-02  3.098477E-14  1.557118E-02 -3.459710E-03 -5.186897E-04 -1.979027E-01  0.000000E+00
  8.403666E-01  4.571900E-02  3.666667E-01  8.575124E-01  3.679413E-02  3.098477E-14  1.730807E-02 -3.712415E-03 -5.364700E-04 -2.351258E-01  0.000000E+00
  8.208730E-01  4.982432E-02  3.666667E-01  8.376207E-01  4.098329E-02 -5.664492E-17  1.907023E-02 -3.929048E-03 -5.514663E-04 -2.733993E-01  0.000000E+00
  8.000947E-01  5.401720E-02  3.666667E-01  8.164180E-01  4.526181E-02 -5.664492E-17  2.081776E-02 -4.098233E-03 -5.630245E-04 -3.124524E-01  0.000000E+00
  7.780326E-01  5.825866E-02  3.666667E-01  7.939053E-01  4.958990E-02 -1.132898E-16  2.251704E-02 -4.209784E-03 -5.708585E-04 -3.517863E-01  0.000000E+00
  7.547032E-01  6.250390E-02  3.666667E-01  7.700994E-01  5.392185E-02  3.075819E-14  2.413097E-02 -4.254866E-03 -5.748034E-04 -3.904458E-01  0.000000E+00
  7.301402E-01  6.670307E-02  3.666667E-01  7.450347E-01  5.820678E-02 -5.664492E-17  2.561321E-02 -4.230830E-03 -5.747763E-04 -4.272070E-01  0.000000E+00
  2.444131E-01 -2.734785E-03  3.666667E-01  2.493870E-01 -1.264928E-02  3.092813E-14  2.810857E-02  1.258115E-03  1.633100E-04  1.657323E-01  0.000000E+00
  2.700250E-01 -1.593468E-03  3.666667E-01  2.755221E-01 -1.148466E-02  5.664492E-17  2.837183E-02  1.242322E-03  1.747112E-04  1.638825E-01  0.000000E+00
  2.967058E-01 -4.471750E-04  3.666667E-01  3.027478E-01 -1.031495E-02 -5.664492E-17  2.876380E-02  1.271208E-03  1.887575E-04  1.558298E-01  0.000000E+00
  3.243554E-01  8.068545E-04  3.666667E-01  3.309621E-01 -9.035310E-03  3.070155E-14  2.892556E-02  1.423401E-03  2.052713E-04  1.427787E-01  0.000000E+00
  3.528511E-01  2.318550E-03  3.666667E-01  3.600399E-01 -7.492739E-03 -5.664492E-17  2.845548E-02  1.719243E-03  2.232446E-04  1.310153E-01  0.000000E+00
  3.820469E-01  4.304267E-03  3.666667E-01  3.898319E-01 -5.466465E-03 -1.132898E-16  2.709449E-02  2.109491E-03  2.408494E-04  1.282932E-01  0.000000E+00
  4.117740E-01  6.932969E-03  3.666667E-01  4.201662E-01 -2.784075E-03  1.132898E-16  2.491876E-02  2.475769E-03  2.561240E-04  1.416722E-01  0.000000E+00
  4.418498E-01  1.028142E-02  3.666667E-01  4.508562E-01  6.327666E-04 -1.699348E-16  2.236766E-02  2.679156E-03  2.680334E-04  1.714608E-01  0.000000E+00
  4.721105E-01  1.419916E-02  3.666667E-01  4.817350E-01  4.630525E-03 -1.132898E-16  2.021701E-02  2.518246E-03  2.781024E-04  2.232585E-01  0.000000E+00
  5.024968E-01  1.782336E-02  3.666667E-01  5.127419E-01  8.328741E-03  5.664492E-17  1.892977E-02  2.076001E-03  2.879202E-04  2.780713E-01  0.000000E+00
  5.328693E-01  2.082917E-02  3.666667E-01  5.437347E-01  1.139594E-02 -2.265797E-16  1.829873E-02  1.672832E-03  2.976739E-04  3.046794E-01  0.000000E+00
  5.630297E-01  2.334552E-02  3.666667E-01  5.745112E-01  1.396369E-02  1.132898E-16  1.796028E-02  1.401247E-03  3.078037E-04  3.115612E-01  0.000000E+00
  5.927917E-01  2.550475E-02  3.666667E-01  6.048810E-01  1.616702E-02  0.000000E+00  1.763953E-02  1.223454E-03  3.178272E-04  3.169737E-01  0.000000E+00
  6.219828E-01  2.743137E-02  3.666667E-01  6.346683E-01  1.813299E-02  5.664492E-17  1.719407E-02  1.090164E-03  3.265637E-04  3.262615E-01  0.000000E+00
  6.504533E-01  2.915596E-02  3.666667E-01  6.637203E-01  1.989280E-02 -1.132898E-16  1.663985E-02  9.415799E-04  3.336722E-04  3.398878E-01  0.000000E+00
  6.780742E-01  3.059980E-02  3.666667E-01  6.919053E-01  2.136613E-02  3.092813E-14  1.608619E-02  7.456858E-04  3.396399E-04  3.558605E-01  0.000000E+00
  7.047326E-01  3.166612E-02  3.666667E-01  7.191082E-01  2.245423E-02 -5.664492E-17  1.565057E-02  5.081925E-04  3.451706E-04  3.705209E-01  0.000000E+00
  1.215943E-04  9.323532E-03  3.666667E-01  1.060954E-04 -3.446864E-04 -2.265797E-16 -4.437863E-02  7.920403E-02  2.204018E-04  7.564647E-01  0.000000E+00
  4.902502E-03  3.654783E-03  3.666667E-01  4.984649E-03 -6.129214E-03  5.664492E-17 -1.608183E-02  1.891457E-02  1.731295E-04  9.358830E-01  0.000000E+00
  1.254908E-02  1.294411E-05  3.666667E-01  1.278740E-02 -9.845435E-03  2.265797E-16  8.292191E-03 -2.222898E-03  1.289866E-04  5.386955E-01  0.000000E+00
  2.163699E-02 -2.376714E-03  3.666667E-01  2.206093E-02 -1.228390E-02  5.664492E-17  2.190659E-02 -4.524021E-03  1.102047E-04  3.377233E-01  0.000000E+00
  3.184423E-02 -4.054879E-03  3.666667E-01  3.247664E-02 -1.399634E-02  0.000000E+00  2.763110E-02 -3.634598E-03  1.081929E-04  3.044937E-01  0.000000E+00
  4.311596E-02 -5.231792E-03  3.666667E-01  4.397858E-02 -1.519729E-02 -1.132898E-16  2.983590E-02 -2.409544E-03  1.103750E-04  2.696439E-01  0.000000E+00
  5.546913E-02 -5.950748E-03  3.666667E-01  5.658406E-02 -1.593093E-02 -5.664492E-17  3.050894E-02 -1.429535E-03  1.132885E-04  2.372871E-01  0.000000E+00
  6.891473E-02 -6.425567E-03  3.666667E-01  7.030427E-02 -1.641545E-02  1.699348E-16  3.074958E-02 -8.945354E-04  1.165748E-04  2.254662E-01  0.000000E+00
  8.348882E-02 -6.763037E-03  3.666667E-01  8.517603E-02 -1.675981E-02  2.832246E-16  3.087709E-02 -5.435488E-04  1.198619E-04  2.135722E-01  0.000000E+00
  9.923792E-02 -6.957247E-03  3.666667E-01  1.012468E-01 -1.695799E-02 -1.132898E-16  3.084863E-02 -1.836957E-04  1.232209E-04  1.947819E-01  0.000000E+00
  1.162051E-01 -6.950671E-03  3.666667E-01  1.185605E-01 -1.695128E-02  5.664492E-17  3.062656E-02  1.854188E-04  1.269437E-04  1.780164E-01  0.000000E+00
  1.344203E-01 -6.736026E-03  3.666667E-01  1.371477E-01 -1.673225E-02  0.000000E+00  3.023449E-02  5.083177E-04  1.311338E-04  1.687782E-01  0.000000E+00
  1.539027E-01 -6.310752E-03  3.666667E-01  1.570281E-01 -1.629829E-02  3.064490E-14  2.969292E-02  7.861241E-04  1.357440E-04  1.638024E-01  0.000000E+00
  1.746592E-01 -5.664339E-03  3.666667E-01  1.782085E-01 -1.563867E-02  3.109806E-14  2.907864E-02  1.005634E-03  1.409220E-04  1.619118E-01  0.000000E+00
  1.966815E-01 -4.825993E-03  3.666667E-01  2.006806E-01 -1.478320E-02 -1.132898E-16  2.852520E-02  1.150904E-03  1.469700E-04  1.631171E-01  0.000000E+00
  2.199461E-01 -3.834602E-03  3.666667E-01  2.244204E-01 -1.377156E-02 -1.699348E-16  2.816515E-02  1.233550E-03  1.542564E-04  1.649803E-01  0.000000E+00
  2.444131E-01 -2.734785E-03  3.666667E-01  2.493870E-01 -1.264928E-02  3.092813E-14  2.810857E-02  1.258115E-03  1.633100E-04  1.657323E-01  0.000000E+00
  7.047326E-01  3.166612E-02  3.666667E-01  7.191082E-01  2.245423E-02 -5.664492E-17  1.565057E-02  5.081925E-04  3.451706E-04  3.705209E-01  0.000000E+00