 Title = "ADflow Slice Data"
Variables =  "CoordinateX"  "CoordinateY"  "CoordinateZ"  "XoC"  "YoC"  "ZoC" "VelocityX" "VelocityY" "VelocityZ" "CoefPressure" "Mach" 
Zone T= "Slice_0001 None Relative Regular z = 0.10000000"
 Nodes =          114  Elements=          106  ZONETYPE=FELINESEG
 DATAPACKING=POINT
  7.301402E-01  6.774385E-02  1.000000E-01  7.450351E-01  5.924514E-02  1.416124E-17  2.440841E-02 -4.241763E-03 -3.228597E-04 -4.215556E-01  0.000000E+00
  7.043967E-01  7.208735E-02  1.000000E-01  7.187658E-01  6.367734E-02 -4.248371E-17  2.590428E-02 -4.218975E-03 -3.043737E-04 -4.614131E-01  0.000000E+00
  6.775455E-01  7.631723E-02  1.000000E-01  6.913662E-01  6.799361E-02  3.965147E-16  2.732315E-02 -4.147597E-03 -2.780494E-04 -5.010439E-01  0.000000E+00
  6.496792E-01  8.039340E-02  1.000000E-01  6.629307E-01  7.215305E-02  4.248371E-17  2.868132E-02 -4.039577E-03 -2.437559E-04 -5.417607E-01  0.000000E+00
  6.209097E-01  8.428616E-02  1.000000E-01  6.335736E-01  7.612531E-02 -2.832248E-17  3.002760E-02 -3.897642E-03 -2.020553E-04 -5.841335E-01  0.000000E+00
  5.913667E-01  8.794674E-02  1.000000E-01  6.034272E-01  7.986066E-02 -2.832248E-17  3.141972E-02 -3.719122E-03 -1.543603E-04 -6.282533E-01  0.000000E+00
  5.611982E-01  9.133040E-02  1.000000E-01  5.726426E-01  8.331342E-02  0.000000E+00  3.290978E-02 -3.503570E-03 -1.029063E-04 -6.749942E-01  0.000000E+00
  5.305654E-01  9.438872E-02  1.000000E-01  5.413840E-01  8.643421E-02 -5.664495E-17  3.455487E-02 -3.247762E-03 -5.056663E-05 -7.260816E-01  0.000000E+00
  4.996398E-01  9.707979E-02  1.000000E-01  5.098268E-01  8.918024E-02  0.000000E+00  3.642352E-02 -2.935126E-03 -5.391071E-07 -7.827981E-01  0.000000E+00
  4.685986E-01  9.934428E-02  1.000000E-01  4.781516E-01  9.149099E-02  1.416124E-17  3.857486E-02 -2.527279E-03  4.396697E-05 -8.438655E-01  0.000000E+00
  4.376215E-01  1.011073E-01  1.000000E-01  4.465418E-01  9.329002E-02 -8.496743E-17  4.099888E-02 -1.982691E-03  7.991820E-05 -9.060000E-01  0.000000E+00
  4.068895E-01  1.022978E-01  1.000000E-01  4.151821E-01  9.450486E-02  0.000000E+00  4.359416E-02 -1.272084E-03  1.048921E-04 -9.653376E-01  0.000000E+00
  3.765814E-01  1.028628E-01  1.000000E-01  3.842549E-01  9.508138E-02 -5.664495E-17  4.619163E-02 -4.042380E-04  1.176766E-04 -1.020243E+00  0.000000E+00
  3.468696E-01  1.028015E-01  1.000000E-01  3.539363E-01  9.501877E-02 -5.664495E-17  4.866682E-02  6.026587E-04  1.190719E-04 -1.070063E+00  0.000000E+00
  3.179133E-01  1.021202E-01  1.000000E-01  3.243886E-01  9.432364E-02 -2.832248E-17  5.099719E-02  1.749223E-03  1.118648E-04 -1.114211E+00  0.000000E+00
  2.898519E-01  1.008340E-01  1.000000E-01  2.957540E-01  9.301118E-02 -4.248371E-17  5.320408E-02  3.022524E-03  9.949796E-05 -1.155392E+00  0.000000E+00
  2.628044E-01  9.898011E-02  1.000000E-01  2.681541E-01  9.111938E-02  0.000000E+00  5.534955E-02  4.414431E-03  8.494622E-05 -1.197352E+00  0.000000E+00
  9.800000E-01  1.152907E-02  1.000000E-01  9.999982E-01  1.882184E-03 -2.832248E-17  1.060131E-02 -1.308279E-02 -3.881154E-04 -5.435956E-02  0.000000E+00
  9.720124E-01  1.365757E-02  1.000000E-01  9.918475E-01  4.054157E-03 -2.832248E-17  1.224322E-02 -3.326568E-03 -3.392039E-04  7.147397E-02  0.000000E+00
  9.632634E-01  1.600406E-02  1.000000E-01  9.829198E-01  6.448575E-03 -2.832248E-17  9.227565E-03 -2.406145E-03 -2.885657E-04  2.518229E-02  0.000000E+00
  9.536907E-01  1.855720E-02  1.000000E-01  9.731516E-01  9.053858E-03 -2.832248E-17  7.297047E-03 -1.930735E-03 -2.534376E-04  8.074898E-03  0.000000E+00
  9.432303E-01  2.130162E-02  1.000000E-01  9.624775E-01  1.185433E-02  1.416124E-17  6.807488E-03 -1.765931E-03 -2.413736E-04 -1.085928E-02  0.000000E+00
  9.318220E-01  2.424153E-02  1.000000E-01  9.508362E-01  1.485428E-02  1.416124E-17  7.441115E-03 -1.892021E-03 -2.462173E-04 -3.558584E-02  0.000000E+00
  9.194070E-01  2.738113E-02  1.000000E-01  9.381676E-01  1.805801E-02 -8.496743E-17  8.707824E-03 -2.171422E-03 -2.594449E-04 -6.205269E-02  0.000000E+00
  9.059278E-01  3.071995E-02  1.000000E-01  9.244131E-01  2.146502E-02 -5.664495E-17  1.020075E-02 -2.489380E-03 -2.750953E-04 -9.014410E-02  0.000000E+00
  8.913299E-01  3.425388E-02  1.000000E-01  9.095170E-01  2.507114E-02  0.000000E+00  1.171384E-02 -2.792878E-03 -2.901612E-04 -1.204335E-01  0.000000E+00
  8.755643E-01  3.797987E-02  1.000000E-01  8.934295E-01  2.887323E-02 -2.832248E-17  1.320745E-02 -3.071978E-03 -3.036519E-04 -1.530876E-01  0.000000E+00
  8.585885E-01  4.188992E-02  1.000000E-01  8.761069E-01  3.286314E-02  4.106759E-16  1.472462E-02 -3.331675E-03 -3.156089E-04 -1.877678E-01  0.000000E+00
  8.403666E-01  4.596494E-02  1.000000E-01  8.575129E-01  3.702139E-02  3.965147E-16  1.630347E-02 -3.573969E-03 -3.259856E-04 -2.239975E-01  0.000000E+00
  8.208730E-01  5.017897E-02  1.000000E-01  8.376211E-01  4.132149E-02 -8.496743E-17  1.793431E-02 -3.792985E-03 -3.340500E-04 -2.616209E-01  0.000000E+00
  8.000947E-01  5.450321E-02  1.000000E-01  8.164185E-01  4.573406E-02 -2.832248E-17  1.958426E-02 -3.978384E-03 -3.387522E-04 -3.005749E-01  0.000000E+00
  7.780326E-01  5.890192E-02  1.000000E-01  7.939057E-01  5.022260E-02 -2.832248E-17  2.122688E-02 -4.120046E-03 -3.391020E-04 -3.406186E-01  0.000000E+00
  7.547032E-01  6.333232E-02  1.000000E-01  7.700998E-01  5.474349E-02  4.389984E-16  2.284227E-02 -4.209343E-03 -3.341340E-04 -3.811711E-01  0.000000E+00
  7.301402E-01  6.774385E-02  1.000000E-01  7.450351E-01  5.924514E-02  2.832248E-17  2.440841E-02 -4.241763E-03 -3.228597E-04 -4.215556E-01  0.000000E+00
  2.444131E-01 -2.424665E-03  1.000000E-01  2.493871E-01 -1.235656E-02  3.681922E-16  2.780832E-02  1.314751E-03 -1.170073E-05  1.623705E-01  0.000000E+00
  2.700250E-01 -1.209496E-03  1.000000E-01  2.755222E-01 -1.111657E-02 -4.248371E-17  2.805490E-02  1.313694E-03 -1.775182E-05  1.607438E-01  0.000000E+00
  2.967058E-01  3.030628E-05  1.000000E-01  3.027480E-01 -9.851443E-03 -2.832248E-17  2.840947E-02  1.359927E-03 -2.364650E-05  1.530601E-01  0.000000E+00
  3.243554E-01  1.402351E-03  1.000000E-01  3.309622E-01 -8.451375E-03  4.248371E-16  2.850902E-02  1.529343E-03 -2.819218E-05  1.406760E-01  0.000000E+00
  3.528511E-01  3.061682E-03  1.000000E-01  3.600400E-01 -6.758152E-03 -4.248371E-17  2.795294E-02  1.836924E-03 -2.977605E-05  1.300373E-01  0.000000E+00
  3.820469E-01  5.228281E-03  1.000000E-01  3.898321E-01 -4.547301E-03  5.664495E-17  2.649064E-02  2.224031E-03 -2.687570E-05  1.291075E-01  0.000000E+00
  4.117740E-01  8.065141E-03  1.000000E-01  4.201664E-01 -1.652499E-03 -5.664495E-17  2.421487E-02  2.565580E-03 -1.882229E-05  1.449553E-01  0.000000E+00
  4.418498E-01  1.163471E-02  1.000000E-01  4.508564E-01  1.989977E-03 -2.832248E-17  2.158285E-02  2.728096E-03 -6.198088E-06  1.774622E-01  0.000000E+00
  4.721105E-01  1.576793E-02  1.000000E-01  4.817353E-01  6.207615E-03 -5.664495E-17  1.937489E-02  2.531525E-03  8.976886E-06  2.315389E-01  0.000000E+00
  5.024968E-01  1.958146E-02  1.000000E-01  5.127422E-01  1.009903E-02  1.416124E-17  1.805735E-02  2.068627E-03  2.600270E-05  2.879992E-01  0.000000E+00
  5.328693E-01  2.272938E-02  1.000000E-01  5.437350E-01  1.331126E-02 -4.248371E-17  1.743805E-02  1.647370E-03  4.590622E-05  3.159605E-01  0.000000E+00
  5.630297E-01  2.532256E-02  1.000000E-01  5.745115E-01  1.595740E-02  1.416124E-17  1.716633E-02  1.352274E-03  6.847050E-05  3.238181E-01  0.000000E+00
  5.927917E-01  2.748137E-02  1.000000E-01  6.048813E-01  1.816030E-02  5.664495E-17  1.697253E-02  1.146016E-03  9.227516E-05  3.293932E-01  0.000000E+00
  6.219828E-01  2.932556E-02  1.000000E-01  6.346687E-01  2.004216E-02 -4.248371E-17  1.670798E-02  9.829721E-04  1.155220E-04  3.378080E-01  0.000000E+00
  6.504533E-01  3.088790E-02  1.000000E-01  6.637206E-01  2.163641E-02  5.664495E-17  1.636520E-02  8.104319E-04  1.366308E-04  3.494495E-01  0.000000E+00
  6.780742E-01  3.211034E-02  1.000000E-01  6.919057E-01  2.288382E-02  4.531596E-16  1.601833E-02  6.028534E-04  1.548163E-04  3.624085E-01  0.000000E+00
  7.047326E-01  3.293200E-02  1.000000E-01  7.191086E-01  2.372226E-02  0.000000E+00  1.575570E-02  3.642665E-04  1.701150E-04  3.738126E-01  0.000000E+00
  1.215943E-04  9.346814E-03  1.000000E-01  1.060954E-04 -3.446482E-04 -5.664495E-17 -4.175750E-02  7.449957E-02  4.749109E-05  7.749633E-01  0.000000E+00
  4.902502E-03  3.679858E-03  1.000000E-01  4.984651E-03 -6.127350E-03 -8.496743E-17 -1.417353E-02  1.715281E-02  3.670189E-05  9.286391E-01  0.000000E+00
  1.254908E-02  4.107094E-05  1.000000E-01  1.278741E-02 -9.840458E-03 -2.832248E-17  9.217461E-03 -2.617915E-03  2.635426E-05  5.256358E-01  0.000000E+00
  2.163699E-02 -2.344670E-03  1.000000E-01  2.206094E-02 -1.227493E-02  1.416124E-17  2.204860E-02 -4.554971E-03  2.125622E-05  3.272095E-01  0.000000E+00
  3.184423E-02 -4.018042E-03  1.000000E-01  3.247665E-02 -1.398248E-02 -2.832248E-17  2.740592E-02 -3.592995E-03  1.958426E-05  2.957875E-01  0.000000E+00
  4.311596E-02 -5.189151E-03  1.000000E-01  4.397861E-02 -1.517751E-02 -8.496743E-17  2.947743E-02 -2.364552E-03  1.871211E-05  2.619125E-01  0.000000E+00
  5.546913E-02 -5.901080E-03  1.000000E-01  5.658409E-02 -1.590398E-02  1.416124E-17  3.011370E-02 -1.392526E-03  1.783152E-05  2.303104E-01  0.000000E+00
  6.891473E-02 -6.367390E-03  1.000000E-01  7.030431E-02 -1.637981E-02 -8.496743E-17  3.035182E-02 -8.620963E-04  1.677230E-05  2.192371E-01  0.000000E+00
  8.348882E-02 -6.694523E-03  1.000000E-01  8.517607E-02 -1.671362E-02  5.664495E-17  3.048777E-02 -5.133015E-04  1.542129E-05  2.079703E-01  0.000000E+00
  9.923792E-02 -6.876115E-03  1.000000E-01  1.012468E-01 -1.689893E-02 -9.912866E-17  3.047123E-02 -1.552026E-04  1.373078E-05  1.896512E-01  0.000000E+00
  1.162051E-01 -6.854063E-03  1.000000E-01  1.185605E-01 -1.687642E-02 -8.496743E-17  3.026275E-02  2.127697E-04  1.167223E-05  1.732664E-01  0.000000E+00
  1.344203E-01 -6.620344E-03  1.000000E-01  1.371478E-01 -1.663793E-02 -8.496743E-17  2.988563E-02  5.358741E-04  9.200219E-06  1.643605E-01  0.000000E+00
  1.539027E-01 -6.171444E-03  1.000000E-01  1.570282E-01 -1.617986E-02  4.389984E-16  2.936014E-02  8.152342E-04  6.256071E-06  1.596693E-01  0.000000E+00
  1.746592E-01 -5.495620E-03  1.000000E-01  1.782086E-01 -1.549023E-02  3.257085E-16  2.876145E-02  1.037960E-03  2.767869E-06  1.580135E-01  0.000000E+00
  1.966815E-01 -4.620479E-03  1.000000E-01  2.006807E-01 -1.459722E-02 -2.832248E-17  2.822047E-02  1.188600E-03 -1.347938E-06  1.594129E-01  0.000000E+00
  2.199461E-01 -3.582843E-03  1.000000E-01  2.244205E-01 -1.353839E-02 -4.248371E-17  2.786718E-02  1.279129E-03 -6.165835E-06  1.614458E-01  0.000000E+00
  2.444131E-01 -2.424665E-03  1.000000E-01  2.493871E-01 -1.235656E-02  3.823534E-16  2.780832E-02  1.314751E-03 -1.170073E-05  1.623705E-01  0.000000E+00
  7.047326E-01  3.293200E-02  1.000000E-01  7.191086E-01  2.372226E-02 -2.832248E-17  1.575570E-02  3.642665E-04  1.701150E-04  3.738126E-01  0.000000E+00
  7.303325E-01  3.331740E-02  1.000000E-01  7.452313E-01  2.411553E-02 -2.832248E-17  1.565774E-02  1.022773E-04  1.830376E-04  3.821161E-01  0.000000E+00
  7.547951E-01  3.325859E-02  1.000000E-01  7.701936E-01  2.405552E-02  4.389984E-16  1.580087E-02 -1.896839E-04  1.942450E-04  3.872488E-01  0.000000E+00
  7.780600E-01  3.274672E-02  1.000000E-01  7.939337E-01  2.353319E-02  1.416124E-17  1.624757E-02 -5.273201E-04  2.043714E-04  3.887934E-01  0.000000E+00
  8.000833E-01  3.179487E-02  1.000000E-01  8.164068E-01  2.256191E-02 -4.248371E-17  1.701875E-02 -9.241070E-04  2.138743E-04  3.858989E-01  0.000000E+00
  8.208376E-01  3.043333E-02  1.000000E-01  8.375850E-01  2.117256E-02 -2.832248E-17  1.805508E-02 -1.361766E-03  2.229276E-04  3.773930E-01  0.000000E+00
  8.403144E-01  2.876621E-02  1.000000E-01  8.574596E-01  1.947138E-02  4.389984E-16  1.920048E-02 -1.771975E-03  2.314108E-04  3.623625E-01  0.000000E+00
  8.585258E-01  2.695234E-02  1.000000E-01  8.760429E-01  1.762047E-02  3.965147E-16  2.026056E-02 -2.086507E-03  2.388663E-04  3.433084E-01  0.000000E+00
  8.754993E-01  2.513173E-02  1.000000E-01  8.933631E-01  1.576267E-02 -2.832248E-17  2.109220E-02 -2.288528E-03  2.445410E-04  3.245231E-01  0.000000E+00
  8.912718E-01  2.338429E-02  1.000000E-01  9.094578E-01  1.397954E-02 -2.832248E-17  2.168226E-02 -2.439078E-03  2.476876E-04  3.097546E-01  0.000000E+00
  9.058836E-01  2.169982E-02  1.000000E-01  9.243680E-01  1.226067E-02 -4.248371E-17  2.215950E-02 -2.626929E-03  2.482022E-04  2.995912E-01  0.000000E+00
  9.193796E-01  2.003943E-02  1.000000E-01  9.381397E-01  1.056636E-02 -5.664495E-17  2.271931E-02 -2.880528E-03  2.473253E-04  2.892450E-01  0.000000E+00
  9.318118E-01  1.840112E-02  1.000000E-01  9.508258E-01  8.894586E-03  4.248371E-17  2.356531E-02 -3.215380E-03  2.476559E-04  2.759579E-01  0.000000E+00
  9.432349E-01  1.677729E-02  1.000000E-01  9.624822E-01  7.237589E-03 -2.832248E-17  2.473456E-02 -3.646941E-03  2.510498E-04  2.602710E-01  0.000000E+00
  9.537058E-01  1.516589E-02  1.000000E-01  9.731670E-01  5.593281E-03  0.000000E+00  2.558529E-02 -4.074269E-03  2.534885E-04  2.366822E-01  0.000000E+00
  9.632829E-01  1.356987E-02  1.000000E-01  9.829397E-01  3.964667E-03 -2.832248E-17  2.452557E-02 -4.246895E-03  2.420066E-04  2.031042E-01  0.000000E+00
  9.720275E-01  1.202112E-02  1.000000E-01  9.918629E-01  2.384281E-03  0.000000E+00  2.078032E-02 -3.687176E-03  2.099955E-04  2.016546E-01  0.000000E+00
  9.800000E-01  1.054114E-02  1.000000E-01  9.999982E-01  8.740755E-04  1.416124E-17  1.373106E-02  4.333213E-03  1.592542E-04 -9.587909E-03  0.000000E+00
  1.215943E-04  1.002749E-02  1.000000E-01  1.060954E-04  3.499256E-04 -9.912866E-17  2.291198E-02  5.359751E-02  2.928488E-05  4.939016E-01  0.000000E+00
  7.278129E-05  9.912821E-03  1.000000E-01  5.628537E-05  2.329197E-04  1.416124E-17  1.565622E-02  7.616501E-02  3.665497E-05  3.415283E-01  0.000000E+00
  1.762252E-05  9.684564E-03  1.000000E-01  0.000000E+00  0.000000E+00  0.000000E+00 -1.090264E-02  1.177314E-01  4.913617E-05  3.852348E-01  0.000000E+00
  8.694958E-05  9.459403E-03  1.000000E-01  7.074304E-05 -2.297593E-04  0.000000E+00 -4.758608E-02  1.238258E-01  5.357363E-05  4.333968E-01  0.000000E+00
  1.215943E-04  9.346814E-03  1.000000E-01  1.060954E-04 -3.446482E-04 -4.248371E-17 -4.175750E-02  7.449957E-02  4.749109E-05  7.749633E-01  0.000000E+00
  9.800000E-01  1.054114E-02  1.000000E-01  9.999982E-01  8.740755E-04  0.000000E+00  1.373106E-02  4.333213E-03  1.592542E-04 -9.587909E-03  0.000000E+00
  9.800000E-01  1.070580E-02  1.000000E-01  9.999982E-01  1.042094E-03  0.000000E+00  4.397031E-03 -1.444132E-03 -1.661776E-05 -2.085393E-01  0.000000E+00
  9.800000E-01  1.103511E-02  1.000000E-01  9.999982E-01  1.378130E-03 -2.832248E-17 -4.491842E-04 -1.561234E-02 -2.369701E-04 -1.731086E-01  0.000000E+00
  9.800000E-01  1.136442E-02  1.000000E-01  9.999982E-01  1.714166E-03 -5.664495E-17  3.381386E-03 -1.937439E-02 -3.608259E-04 -1.917637E-01  0.000000E+00
  9.800000E-01  1.152907E-02  1.000000E-01  9.999982E-01  1.882184E-03  0.000000E+00  1.060131E-02 -1.308279E-02 -3.881154E-04 -5.435956E-02  0.000000E+00
  2.628044E-01  9.898011E-02  1.000000E-01  2.681541E-01  9.111938E-02 -2.832248E-17  5.534955E-02  4.414431E-03  8.494622E-05 -1.197352E+00  0.000000E+00
  2.368706E-01  9.660319E-02  1.000000E-01  2.416906E-01  8.869391E-02  3.681922E-16  5.756843E-02  6.010338E-03  7.043805E-05 -1.236857E+00  0.000000E+00
  2.121362E-01  9.369209E-02  1.000000E-01  2.164510E-01  8.572335E-02  1.416124E-17  5.987200E-02  7.884565E-03  5.728048E-05 -1.266985E+00  0.000000E+00
  1.886687E-01  9.026155E-02  1.000000E-01  1.925042E-01  8.222274E-02 -4.248371E-17  6.207306E-02  1.001368E-02  4.597075E-05 -1.282811E+00  0.000000E+00
  1.665185E-01  8.634155E-02  1.000000E-01  1.699016E-01  7.822268E-02  4.814821E-16  6.394138E-02  1.232995E-02  3.663340E-05 -1.281844E+00  0.000000E+00
  1.457161E-01  8.198738E-02  1.000000E-01  1.486744E-01  7.377958E-02  4.531596E-16  6.532452E-02  1.475905E-02  2.919474E-05 -1.265613E+00  0.000000E+00
  1.262764E-01  7.725756E-02  1.000000E-01  1.288376E-01  6.895315E-02  0.000000E+00  6.620571E-02  1.726400E-02  2.346797E-05 -1.239272E+00  0.000000E+00
  1.081990E-01  7.221090E-02  1.000000E-01  1.103909E-01  6.380342E-02  0.000000E+00  6.662084E-02  1.982037E-02  1.917839E-05 -1.209947E+00  0.000000E+00
  9.146971E-02  6.690913E-02  1.000000E-01  9.331997E-02  5.839336E-02  0.000000E+00  6.667787E-02  2.258173E-02  1.608216E-05 -1.172994E+00  0.000000E+00
  7.608258E-02  6.134740E-02  1.000000E-01  7.761856E-02  5.271803E-02  0.000000E+00  6.633549E-02  2.571861E-02  1.400802E-05 -1.110284E+00  0.000000E+00
  6.202881E-02  5.551470E-02  1.000000E-01  6.327774E-02  4.676620E-02 -5.664495E-17  6.526056E-02  2.909249E-02  1.281999E-05 -1.004692E+00  0.000000E+00
  4.929579E-02  4.942763E-02  1.000000E-01  5.028466E-02  4.055481E-02 -8.496743E-17  6.309940E-02  3.215635E-02  1.238132E-05 -8.609751E-01  0.000000E+00
  3.782553E-02  4.319670E-02  1.000000E-01  3.858013E-02  3.419661E-02  4.248371E-17  5.998181E-02  3.468892E-02  1.255872E-05 -7.054910E-01  0.000000E+00
  2.757469E-02  3.687556E-02  1.000000E-01  2.811991E-02  2.774637E-02 -2.832248E-17  5.639301E-02  3.691643E-02  1.325775E-05 -5.860134E-01  0.000000E+00
  1.848362E-02  3.054081E-02  1.000000E-01  1.884316E-02  2.128223E-02  5.664495E-17  5.299060E-02  4.026561E-02  1.480212E-05 -4.876822E-01  0.000000E+00
  1.064273E-02  2.406645E-02  1.000000E-01  1.084212E-02  1.467563E-02  1.416124E-17  4.915844E-02  4.637151E-02  1.839977E-05 -2.472362E-01  0.000000E+00
  4.262692E-03  1.730248E-02  1.000000E-01  4.331774E-03  7.773513E-03  1.416124E-17  3.987067E-02  5.361281E-02  2.456185E-05  2.705463E-01  0.000000E+00
  1.215943E-04  1.002749E-02  1.000000E-01  1.060954E-04  3.499256E-04 -8.496743E-17  2.291198E-02  5.359751E-02  2.928488E-05  4.939016E-01  0.000000E+00
    1    2
    2    3
    3    4
    4    5
    5    6
    6    7
    7    8
    8    9
    9   10
   10   11
   11   12
   12   13
   13   14
   14   15
   15   16
   16   17
   18   19
   19   20
   20   21
   21   22
   22   23
   23   24
   24   25
   25   26
   26   27
   27   28
   28   29
   29   30
   30   31
   31   32
   32   33
   33   34
   35   36
   36   37
   37   38
   38   39
   39   40
   40   41
   41   42
   42   43
   43   44
   44   45
   45   46
   46   47
   47   48
   48   49
   49   50
   50   51
   52   53
   53   54
   54   55
   55   56
   56   57
   57   58
   58   59
   59   60
   60   61
   61   62
   62   63
   63   64
   64   65
   65   66
   66   67
   67   68
   69   70
   70   71
   71   72
   72   73
   73   74
   74   75
   75   76
   76   77
   77   78
   78   79
   79   80
   80   81
   81   82
   82   83
   83   84
   84   85
   85   86
   87   88
   88   89
   89   90
   90   91
   92   93
   93   94
   94   95
   95   96
   97   98
   98   99
   99  100
  100  101
  101  102
  102  103
  103  104
  104  105
  105  106
  106  107
  107  108
  108  109
  109  110
  110  111
  111  112
  112  113
  113  114
Zone T= "Slice_0002 None Relative Regular z = 0.36666667"
 Nodes =          114  Elements=          106  ZONETYPE=FELINESEG
 DATAPACKING=POINT
  7.301402E-01  6.444524E-02  3.666667E-01  7.450364E-01  5.589064E-02 -5.664504E-17  2.412027E-02 -4.117063E-03 -9.102648E-04 -3.962424E-01  0.000000E+00
  7.043967E-01  6.872957E-02  3.666667E-01  7.187669E-01  6.026249E-02 -1.132901E-16  2.546567E-02 -4.107324E-03 -8.556007E-04 -4.336889E-01  0.000000E+00
  6.775455E-01  7.294322E-02  3.666667E-01  6.913673E-01  6.456220E-02  3.058832E-14  2.673322E-02 -4.062364E-03 -7.826885E-04 -4.714730E-01  0.000000E+00
  6.496792E-01  7.705640E-02  3.666667E-01  6.629318E-01  6.875941E-02 -1.699351E-16  2.795061E-02 -3.994852E-03 -6.922612E-04 -5.112643E-01  0.000000E+00
  6.209097E-01  8.104771E-02  3.666667E-01  6.335746E-01  7.283224E-02  0.000000E+00  2.918047E-02 -3.906405E-03 -5.863888E-04 -5.539193E-01  0.000000E+00
  5.913667E-01  8.487125E-02  3.666667E-01  6.034282E-01  7.673388E-02  1.132901E-16  3.049427E-02 -3.791529E-03 -4.685207E-04 -5.997048E-01  0.000000E+00
  5.611982E-01  8.847915E-02  3.666667E-01  5.726435E-01  8.041548E-02  2.265802E-16  3.195529E-02 -3.645736E-03 -3.434155E-04 -6.495657E-01  0.000000E+00
  5.305654E-01  9.181394E-02  3.666667E-01  5.413849E-01  8.381839E-02  1.132901E-16  3.362874E-02 -3.460507E-03 -2.169766E-04 -7.051478E-01  0.000000E+00
  4.996398E-01  9.481884E-02  3.666667E-01  5.098276E-01  8.688466E-02 -1.699351E-16  3.558938E-02 -3.213360E-03 -9.576448E-05 -7.675030E-01  0.000000E+00
  4.685986E-01  9.741537E-02  3.666667E-01  4.781523E-01  8.953424E-02  1.132901E-16  3.790054E-02 -2.859863E-03  1.351033E-05 -8.349912E-01  0.000000E+00
  4.376215E-01  9.950797E-02  3.666667E-01  4.465426E-01  9.166958E-02 -5.664504E-17  4.054878E-02 -2.351349E-03  1.044268E-04 -9.037773E-01  0.000000E+00
  4.068895E-01  1.010065E-01  3.666667E-01  4.151828E-01  9.319875E-02 -5.664504E-17  4.341373E-02 -1.650945E-03  1.716643E-04 -9.692115E-01  0.000000E+00
  3.765814E-01  1.018430E-01  3.666667E-01  3.842556E-01  9.405226E-02  5.664504E-17  4.629224E-02 -7.626262E-04  2.122576E-04 -1.028774E+00  0.000000E+00
  3.468696E-01  1.020068E-01  3.666667E-01  3.539369E-01  9.421949E-02 -5.664504E-17  4.901923E-02  2.911435E-04  2.272348E-04 -1.081357E+00  0.000000E+00
  3.179133E-01  1.015042E-01  3.666667E-01  3.243892E-01  9.370662E-02  0.000000E+00  5.154006E-02  1.497761E-03  2.217342E-04 -1.126644E+00  0.000000E+00
  2.898519E-01  1.003572E-01  3.666667E-01  2.957545E-01  9.253613E-02  5.664504E-17  5.386747E-02  2.832560E-03  2.026965E-04 -1.167852E+00  0.000000E+00
  2.628044E-01  9.861063E-02  3.666667E-01  2.681546E-01  9.075391E-02  5.664504E-17  5.607587E-02  4.281546E-03  1.766028E-04 -1.209132E+00  0.000000E+00
  9.800000E-01  1.017459E-02  3.666667E-01  9.999999E-01  5.114353E-04  5.664504E-17  1.059703E-02 -1.283509E-02 -1.098266E-03 -5.314263E-02  0.000000E+00
  9.720124E-01  1.221787E-02  3.666667E-01  9.918491E-01  2.596453E-03  0.000000E+00  1.234914E-02 -3.225747E-03 -1.012200E-03  7.441059E-02  0.000000E+00
  9.632634E-01  1.447207E-02  3.666667E-01  9.829214E-01  4.896697E-03  1.132901E-16  9.537167E-03 -2.389494E-03 -8.663096E-04  2.854854E-02  0.000000E+00
  9.536907E-01  1.692556E-02  3.666667E-01  9.731532E-01  7.400306E-03 -5.664504E-17  7.740694E-03 -1.967262E-03 -7.651633E-04  1.148756E-02  0.000000E+00
  9.432303E-01  1.956279E-02  3.666667E-01  9.624790E-01  1.009141E-02 -1.699351E-16  7.317206E-03 -1.823163E-03 -7.299787E-04 -7.113656E-03  0.000000E+00
  9.318220E-01  2.238794E-02  3.666667E-01  9.508377E-01  1.297426E-02 -5.664504E-17  7.968047E-03 -1.946379E-03 -7.422247E-04 -3.122982E-02  0.000000E+00
  9.194070E-01  2.540534E-02  3.666667E-01  9.381692E-01  1.605330E-02  0.000000E+00  9.217930E-03 -2.208916E-03 -7.776071E-04 -5.688113E-02  0.000000E+00
  9.059278E-01  2.861490E-02  3.666667E-01  9.244146E-01  1.932842E-02 -1.132901E-16  1.067415E-02 -2.504170E-03 -8.194516E-04 -8.393533E-02  0.000000E+00
  8.913299E-01  3.201315E-02  3.666667E-01  9.095185E-01  2.279609E-02  0.000000E+00  1.214408E-02 -2.784857E-03 -8.594181E-04 -1.129524E-01  0.000000E+00
  8.755643E-01  3.559808E-02  3.666667E-01  8.934310E-01  2.645424E-02 -1.132901E-16  1.359629E-02 -3.043757E-03 -8.946985E-04 -1.440936E-01  0.000000E+00
  8.585885E-01  3.936317E-02  3.666667E-01  8.761083E-01  3.029623E-02  3.098484E-14  1.507016E-02 -3.285060E-03 -9.250551E-04 -1.770229E-01  0.000000E+00
  8.403666E-01  4.329143E-02  3.666667E-01  8.575143E-01  3.430474E-02  3.098484E-14  1.658997E-02 -3.508193E-03 -9.497810E-04 -2.112675E-01  0.000000E+00
  8.208730E-01  4.735975E-02  3.666667E-01  8.376225E-01  3.845615E-02 -5.664504E-17  1.813831E-02 -3.707010E-03 -9.666983E-04 -2.466803E-01  0.000000E+00
  8.000947E-01  5.154307E-02  3.666667E-01  8.164198E-01  4.272493E-02 -5.664504E-17  1.968596E-02 -3.873751E-03 -9.733237E-04 -2.832138E-01  0.000000E+00
  7.780326E-01  5.581052E-02  3.666667E-01  7.939070E-01  4.707955E-02 -1.132901E-16  2.121131E-02 -4.001170E-03 -9.674743E-04 -3.206625E-01  0.000000E+00
  7.547032E-01  6.012554E-02  3.666667E-01  7.701011E-01  5.148271E-02  3.075826E-14  2.269634E-02 -4.083015E-03 -9.470933E-04 -3.585198E-01  0.000000E+00
  7.301402E-01  6.444524E-02  3.666667E-01  7.450364E-01  5.589064E-02 -5.664504E-17  2.412027E-02 -4.117063E-03 -9.102648E-04 -3.962424E-01  0.000000E+00
  2.444131E-01 -2.734371E-03  3.666667E-01  2.493876E-01 -1.266120E-02  3.092819E-14  2.789863E-02  1.237267E-03  6.575655E-07  1.666626E-01  0.000000E+00
  2.700250E-01 -1.606323E-03  3.666667E-01  2.755227E-01 -1.151011E-02  5.664504E-17  2.815381E-02  1.216296E-03 -1.152093E-05  1.654530E-01  0.000000E+00
  2.967058E-01 -4.792623E-04  3.666667E-01  3.027485E-01 -1.036003E-02 -5.664504E-17  2.853551E-02  1.237931E-03 -2.250440E-05  1.580494E-01  0.000000E+00
  3.243554E-01  7.475907E-04  3.666667E-01  3.309628E-01 -9.108118E-03  3.070161E-14  2.868652E-02  1.380062E-03 -2.950568E-05  1.456436E-01  0.000000E+00
  3.528511E-01  2.221895E-03  3.666667E-01  3.600406E-01 -7.603699E-03 -5.664504E-17  2.820778E-02  1.663208E-03 -2.905160E-05  1.344667E-01  0.000000E+00
  3.820469E-01  4.157625E-03  3.666667E-01  3.898327E-01 -5.628430E-03 -1.132901E-16  2.684263E-02  2.038919E-03 -1.817460E-05  1.322007E-01  0.000000E+00
  4.117740E-01  6.720507E-03  3.666667E-01  4.201671E-01 -3.013198E-03  1.132901E-16  2.466986E-02  2.390377E-03  4.074624E-06  1.458157E-01  0.000000E+00
  4.418498E-01  9.983526E-03  3.666667E-01  4.508572E-01  3.164736E-04 -1.699351E-16  2.213196E-02  2.581081E-03  3.612321E-05  1.755130E-01  0.000000E+00
  4.721105E-01  1.379265E-02  3.666667E-01  4.817361E-01  4.203406E-03 -1.132901E-16  2.000556E-02  2.411994E-03  7.443741E-05  2.268013E-01  0.000000E+00
  5.024968E-01  1.728169E-02  3.666667E-01  5.127430E-01  7.763710E-03  5.664504E-17  1.875832E-02  1.964274E-03  1.178595E-04  2.807498E-01  0.000000E+00
  5.328693E-01  2.012400E-02  3.666667E-01  5.437359E-01  1.066408E-02 -2.265802E-16  1.819317E-02  1.554520E-03  1.682106E-04  3.062443E-01  0.000000E+00
  5.630297E-01  2.244895E-02  3.666667E-01  5.745124E-01  1.303652E-02  1.132901E-16  1.795346E-02  1.275120E-03  2.255645E-04  3.116879E-01  0.000000E+00
  5.927917E-01  2.439121E-02  3.666667E-01  6.048823E-01  1.501845E-02  0.000000E+00  1.776500E-02  1.090380E-03  2.869966E-04  3.152154E-01  0.000000E+00
  6.219828E-01  2.607917E-02  3.666667E-01  6.346697E-01  1.674090E-02  5.664504E-17  1.747792E-02  9.527124E-04  3.480028E-04  3.222094E-01  0.000000E+00
  6.504533E-01  2.754848E-02  3.666667E-01  6.637217E-01  1.824021E-02 -1.132901E-16  1.708954E-02  8.048736E-04  4.046353E-04  3.331378E-01  0.000000E+00
  6.780742E-01  2.873802E-02  3.666667E-01  6.919068E-01  1.945405E-02  3.092819E-14  1.668266E-02  6.179555E-04  4.547615E-04  3.460083E-01  0.000000E+00
  7.047326E-01  2.957864E-02  3.666667E-01  7.191098E-01  2.031185E-02 -5.664504E-17  1.635450E-02  3.954844E-04  4.980507E-04  3.577512E-01  0.000000E+00
  1.215943E-04  9.335611E-03  3.666667E-01  1.060956E-04 -3.446758E-04 -2.265802E-16 -4.128842E-02  7.369407E-02  1.543436E-04  7.763238E-01  0.000000E+00
  4.902502E-03  3.667395E-03  3.666667E-01  4.984659E-03 -6.128673E-03  5.664504E-17 -1.383430E-02  1.684449E-02  1.215413E-04  9.276935E-01  0.000000E+00
  1.254908E-02  2.640968E-05  3.666667E-01  1.278743E-02 -9.844031E-03  2.265802E-16  9.432563E-03 -2.705037E-03  8.860914E-05  5.239585E-01  0.000000E+00
  2.163699E-02 -2.362255E-03  3.666667E-01  2.206098E-02 -1.228149E-02  5.664504E-17  2.221956E-02 -4.598958E-03  7.265443E-05  3.259116E-01  0.000000E+00
  3.184423E-02 -4.039343E-03  3.666667E-01  3.247671E-02 -1.399283E-02  0.000000E+00  2.758868E-02 -3.627672E-03  6.826515E-05  2.951449E-01  0.000000E+00
  4.311596E-02 -5.215132E-03  3.666667E-01  4.397868E-02 -1.519264E-02 -1.132901E-16  2.967504E-02 -2.393478E-03  6.655189E-05  2.617393E-01  0.000000E+00
  5.546913E-02 -5.932951E-03  3.666667E-01  5.658418E-02 -1.592512E-02 -5.664504E-17  3.031335E-02 -1.417140E-03  6.485520E-05  2.304587E-01  0.000000E+00
  6.891473E-02 -6.406669E-03  3.666667E-01  7.030443E-02 -1.640851E-02  1.699351E-16  3.054601E-02 -8.855311E-04  6.274753E-05  2.197006E-01  0.000000E+00
  8.348882E-02 -6.743139E-03  3.666667E-01  8.517621E-02 -1.675186E-02  2.832252E-16  3.067415E-02 -5.373451E-04  5.988902E-05  2.087854E-01  0.000000E+00
  9.923792E-02 -6.936541E-03  3.666667E-01  1.012470E-01 -1.694921E-02 -1.132901E-16  3.064814E-02 -1.805403E-04  5.617517E-05  1.908412E-01  0.000000E+00
  1.162051E-01 -6.929478E-03  3.666667E-01  1.185607E-01 -1.694200E-02  5.664504E-17  3.042774E-02  1.853413E-04  5.160673E-05  1.748434E-01  0.000000E+00
  1.344203E-01 -6.714850E-03  3.666667E-01  1.371480E-01 -1.672299E-02  0.000000E+00  3.003616E-02  5.050778E-04  4.611300E-05  1.663428E-01  0.000000E+00
  1.539027E-01 -6.290351E-03  3.666667E-01  1.570284E-01 -1.628982E-02  3.064497E-14  2.949447E-02  7.796491E-04  3.955346E-05  1.620843E-01  0.000000E+00
  1.746592E-01 -5.645822E-03  3.666667E-01  1.782088E-01 -1.563213E-02  3.109813E-14  2.887945E-02  9.958638E-04  3.180141E-05  1.608846E-01  0.000000E+00
  1.966815E-01 -4.810952E-03  3.666667E-01  2.006810E-01 -1.478020E-02 -1.132901E-16  2.832416E-02  1.137799E-03  2.274279E-05  1.627559E-01  0.000000E+00
  2.199461E-01 -3.825294E-03  3.666667E-01  2.244208E-01 -1.377441E-02 -1.699351E-16  2.796070E-02  1.216844E-03  1.231242E-05  1.652690E-01  0.000000E+00
  2.444131E-01 -2.734371E-03  3.666667E-01  2.493876E-01 -1.266120E-02  3.092819E-14  2.789863E-02  1.237267E-03  6.575655E-07  1.666626E-01  0.000000E+00
  7.047326E-01  2.957864E-02  3.666667E-01  7.191098E-01  2.031185E-02 -5.664504E-17  1.635450E-02  3.954844E-04  4.980507E-04  3.577512E-01  0.000000E+00