 Title= "ADflow Lift Distribution Data"
Variables = "eta" "CoordinateX" "CoordinateY" "CoordinateZ" "Lift" "Drag" "Moment" "Normalized Lift" "Normalized Drag" "Normalized Moment" "CL" "CD" "CM" "CLp" "CDp" "CMp" "CLv" "CDv" "CMv" "Elliptical" "thickness" "twist" "chord" "fx" "fy" "fz" 
Zone T= "LiftDist_01 allWalls: : z normal"
 I=          150
 DATAPACKING=BLOCK
  0.000000E+00
  6.711405E-03
  1.342281E-02
  2.013422E-02
  2.684563E-02
  3.355704E-02
  4.026845E-02
  4.697986E-02
  5.369127E-02
  6.040268E-02
  6.711409E-02
  7.382550E-02
  8.053691E-02
  8.724832E-02
  9.395973E-02
  1.006711E-01
  1.073825E-01
  1.140940E-01
  1.208054E-01
  1.275168E-01
  1.342282E-01
  1.409396E-01
  1.476510E-01
  1.543624E-01
  1.610738E-01
  1.677852E-01
  1.744966E-01
  1.812081E-01
  1.879195E-01
  1.946309E-01
  2.013423E-01
  2.080537E-01
  2.147651E-01
  2.214765E-01
  2.281879E-01
  2.348993E-01
  2.416107E-01
  2.483221E-01
  2.550336E-01
  2.617450E-01
  2.684564E-01
  2.751678E-01
  2.818792E-01
  2.885906E-01
  2.953020E-01
  3.020134E-01
  3.087248E-01
  3.154362E-01
  3.221476E-01
  3.288591E-01
  3.355705E-01
  3.422819E-01
  3.489933E-01
  3.557047E-01
  3.624161E-01
  3.691275E-01
  3.758389E-01
  3.825503E-01
  3.892617E-01
  3.959732E-01
  4.026846E-01
  4.093960E-01
  4.161074E-01
  4.228188E-01
  4.295302E-01
  4.362416E-01
  4.429530E-01
  4.496644E-01
  4.563758E-01
  4.630872E-01
  4.697987E-01
  4.765101E-01
  4.832215E-01
  4.899329E-01
  4.966443E-01
  5.033557E-01
  5.100671E-01
  5.167785E-01
  5.234899E-01
  5.302013E-01
  5.369128E-01
  5.436242E-01
  5.503356E-01
  5.570470E-01
  5.637584E-01
  5.704698E-01
  5.771812E-01
  5.838926E-01
  5.906040E-01
  5.973154E-01
  6.040268E-01
  6.107383E-01
  6.174497E-01
  6.241611E-01
  6.308725E-01
  6.375839E-01
  6.442953E-01
  6.510067E-01
  6.577181E-01
  6.644295E-01
  6.711409E-01
  6.778524E-01
  6.845638E-01
  6.912752E-01
  6.979866E-01
  7.046980E-01
  7.114094E-01
  7.181208E-01
  7.248322E-01
  7.315436E-01
  7.382550E-01
  7.449664E-01
  7.516779E-01
  7.583893E-01
  7.651007E-01
  7.718121E-01
  7.785235E-01
  7.852349E-01
  7.919463E-01
  7.986577E-01
  8.053691E-01
  8.120805E-01
  8.187919E-01
  8.255034E-01
  8.322148E-01
  8.389262E-01
  8.456376E-01
  8.523490E-01
  8.590604E-01
  8.657718E-01
  8.724832E-01
  8.791946E-01
  8.859060E-01
  8.926175E-01
  8.993289E-01
  9.060403E-01
  9.127517E-01
  9.194631E-01
  9.261745E-01
  9.328859E-01
  9.395973E-01
  9.463087E-01
  9.530201E-01
  9.597315E-01
  9.664430E-01
  9.731544E-01
  9.798658E-01
  9.865772E-01
  9.932886E-01
  1.000000E+00
  0.000000E+00
  0.000000E+00
  0.000000E+00
  0.000000E+00
  0.000000E+00
  0.000000E+00
  0.000000E+00
  0.000000E+00
  0.000000E+00
  0.000000E+00
  0.000000E+00
  0.000000E+00
  0.000000E+00
  0.000000E+00
  0.000000E+00
  0.000000E+00
  0.000000E+00
  0.000000E+00
  0.000000E+00
  0.000000E+00
  0.000000E+00
  0.000000E+00
  0.000000E+00
  0.000000E+00
  0.000000E+00
  0.000000E+00
  0.000000E+00
  0.000000E+00
  0.000000E+00
  0.000000E+00
  0.000000E+00
  0.000000E+00
  0.000000E+00
  0.000000E+00
  0.000000E+00
  0.000000E+00
  0.000000E+00
  0.000000E+00
  0.000000E+00
  0.000000E+00
  0.000000E+00
  0.000000E+00
  0.000000E+00
  0.000000E+00
  0.000000E+00
  0.000000E+00
  0.000000E+00
  0.000000E+00
  0.000000E+00
  0.000000E+00
  0.000000E+00
  0.000000E+00
  0.000000E+00
  0.000000E+00
  0.000000E+00
  0.000000E+00
  0.000000E+00
  0.000000E+00
  0.000000E+00
  0.000000E+00
  0.000000E+00
  0.000000E+00
  0.000000E+00
  0.000000E+00
  0.000000E+00
  0.000000E+00
  0.000000E+00
  0.000000E+00
  0.000000E+00
  0.000000E+00
  0.000000E+00
  0.000000E+00
  0.000000E+00
  0.000000E+00
  0.000000E+00
  0.000000E+00
  0.000000E+00
  0.000000E+00
  0.000000E+00
  0.000000E+00
  0.000000E+00
  0.000000E+00
  0.000000E+00
  0.000000E+00
  0.000000E+00
  0.000000E+00
  0.000000E+00
  0.000000E+00
  0.000000E+00
  0.000000E+00
  0.000000E+00
  0.000000E+00
  0.000000E+00
  0.000000E+00
  0.000000E+00
  0.000000E+00
  0.000000E+00
  0.000000E+00
  0.000000E+00
  0.000000E+00
  0.000000E+00
  0.000000E+00
  0.000000E+00
  0.000000E+00
  0.000000E+00
  0.000000E+00
  0.000000E+00
  0.000000E+00
  0.000000E+00
  0.000000E+00
  0.000000E+00
  0.000000E+00
  0.000000E+00
  0.000000E+00
  0.000000E+00
  0.000000E+00
  0.000000E+00
  0.000000E+00
  0.000000E+00
  0.000000E+00
  0.000000E+00
  0.000000E+00
  0.000000E+00
  0.000000E+00
  0.000000E+00
  0.000000E+00
  0.000000E+00
  0.000000E+00
  0.000000E+00
  0.000000E+00
  0.000000E+00
  0.000000E+00
  0.000000E+00
  0.000000E+00
  0.000000E+00
  0.000000E+00
  0.000000E+00
  0.000000E+00
  0.000000E+00
  0.000000E+00
  0.000000E+00
  0.000000E+00
  0.000000E+00
  0.000000E+00
  0.000000E+00
  0.000000E+00
  0.000000E+00
  0.000000E+00
  0.000000E+00
  0.000000E+00
  0.000000E+00
  0.000000E+00
  0.000000E+00
  0.000000E+00
  0.000000E+00
  0.000000E+00
  0.000000E+00
  0.000000E+00
  0.000000E+00
  0.000000E+00
  0.000000E+00
  0.000000E+00
  0.000000E+00
  0.000000E+00
  0.000000E+00
  0.000000E+00
  0.000000E+00
  0.000000E+00
  0.000000E+00
  0.000000E+00
  0.000000E+00
  0.000000E+00
  0.000000E+00
  0.000000E+00
  0.000000E+00
  0.000000E+00
  0.000000E+00
  0.000000E+00
  0.000000E+00
  0.000000E+00
  0.000000E+00
  0.000000E+00
  0.000000E+00
  0.000000E+00
  0.000000E+00
  0.000000E+00
  0.000000E+00
  0.000000E+00
  0.000000E+00
  0.000000E+00
  0.000000E+00
  0.000000E+00
  0.000000E+00
  0.000000E+00
  0.000000E+00
  0.000000E+00
  0.000000E+00
  0.000000E+00
  0.000000E+00
  0.000000E+00
  0.000000E+00
  0.000000E+00
  0.000000E+00
  0.000000E+00
  0.000000E+00
  0.000000E+00
  0.000000E+00
  0.000000E+00
  0.000000E+00
  0.000000E+00
  0.000000E+00
  0.000000E+00
  0.000000E+00
  0.000000E+00
  0.000000E+00
  0.000000E+00
  0.000000E+00
  0.000000E+00
  0.000000E+00
  0.000000E+00
  0.000000E+00
  0.000000E+00
  0.000000E+00
  0.000000E+00
  0.000000E+00
  0.000000E+00
  0.000000E+00
  0.000000E+00
  0.000000E+00
  0.000000E+00
  0.000000E+00
  0.000000E+00
  0.000000E+00
  0.000000E+00
  0.000000E+00
  0.000000E+00
  0.000000E+00
  0.000000E+00
  0.000000E+00
  0.000000E+00
  0.000000E+00
  0.000000E+00
  0.000000E+00
  0.000000E+00
  0.000000E+00
  0.000000E+00
  0.000000E+00
  0.000000E+00
  0.000000E+00
  0.000000E+00
  0.000000E+00
  0.000000E+00
  0.000000E+00
  0.000000E+00
  0.000000E+00
  0.000000E+00
  0.000000E+00
  0.000000E+00
  0.000000E+00
  0.000000E+00
  0.000000E+00
  0.000000E+00
  0.000000E+00
  0.000000E+00
  0.000000E+00
  0.000000E+00
  0.000000E+00
  0.000000E+00
  0.000000E+00
  0.000000E+00
  0.000000E+00
  0.000000E+00
  0.000000E+00
  0.000000E+00
  0.000000E+00
  0.000000E+00
  0.000000E+00
  0.000000E+00
  0.000000E+00
  0.000000E+00
  0.000000E+00
  0.000000E+00
  0.000000E+00
  0.000000E+00
  0.000000E+00
  0.000000E+00
  0.000000E+00
  0.000000E+00
  0.000000E+00
  0.000000E+00
  0.000000E+00
  0.000000E+00
  0.000000E+00
  0.000000E+00
  0.000000E+00
  0.000000E+00
  0.000000E+00
  0.000000E+00
  0.000000E+00
  0.000000E+00
  1.000000E-08
  1.695085E-02
  3.390169E-02
  5.085254E-02
  6.780338E-02
  8.475423E-02
  1.017051E-01
  1.186559E-01
  1.356068E-01
  1.525576E-01
  1.695085E-01
  1.864593E-01
  2.034101E-01
  2.203610E-01
  2.373118E-01
  2.542627E-01
  2.712135E-01
  2.881644E-01
  3.051152E-01
  3.220661E-01
  3.390169E-01
  3.559678E-01
  3.729186E-01
  3.898694E-01
  4.068203E-01
  4.237711E-01
  4.407220E-01
  4.576728E-01
  4.746237E-01
  4.915745E-01
  5.085254E-01
  5.254762E-01
  5.424271E-01
  5.593779E-01
  5.763287E-01
  5.932796E-01
  6.102304E-01
  6.271813E-01
  6.441321E-01
  6.610830E-01
  6.780338E-01
  6.949847E-01
  7.119355E-01
  7.288864E-01
  7.458372E-01
  7.627880E-01
  7.797389E-01
  7.966897E-01
  8.136406E-01
  8.305914E-01
  8.475423E-01
  8.644931E-01
  8.814440E-01
  8.983948E-01
  9.153457E-01
  9.322965E-01
  9.492473E-01
  9.661982E-01
  9.831490E-01
  1.000100E+00
  1.017051E+00
  1.034002E+00
  1.050952E+00
  1.067903E+00
  1.084854E+00
  1.101805E+00
  1.118756E+00
  1.135707E+00
  1.152657E+00
  1.169608E+00
  1.186559E+00
  1.203510E+00
  1.220461E+00
  1.237412E+00
  1.254363E+00
  1.271313E+00
  1.288264E+00
  1.305215E+00
  1.322166E+00
  1.339117E+00
  1.356068E+00
  1.373018E+00
  1.389969E+00
  1.406920E+00
  1.423871E+00
  1.440822E+00
  1.457773E+00
  1.474724E+00
  1.491674E+00
  1.508625E+00
  1.525576E+00
  1.542527E+00
  1.559478E+00
  1.576429E+00
  1.593379E+00
  1.610330E+00
  1.627281E+00
  1.644232E+00
  1.661183E+00
  1.678134E+00
  1.695085E+00
  1.712035E+00
  1.728986E+00
  1.745937E+00
  1.762888E+00
  1.779839E+00
  1.796790E+00
  1.813740E+00
  1.830691E+00
  1.847642E+00
  1.864593E+00
  1.881544E+00
  1.898495E+00
  1.915446E+00
  1.932396E+00
  1.949347E+00
  1.966298E+00
  1.983249E+00
  2.000200E+00
  2.017151E+00
  2.034101E+00
  2.051052E+00
  2.068003E+00
  2.084954E+00
  2.101905E+00
  2.118856E+00
  2.135807E+00
  2.152757E+00
  2.169708E+00
  2.186659E+00
  2.203610E+00
  2.220561E+00
  2.237512E+00
  2.254462E+00
  2.271413E+00
  2.288364E+00
  2.305315E+00
  2.322266E+00
  2.339217E+00
  2.356168E+00
  2.373118E+00
  2.390069E+00
  2.407020E+00
  2.423971E+00
  2.440922E+00
  2.457873E+00
  2.474823E+00
  2.491774E+00
  2.508725E+00
  2.525676E+00
  1.106225E+04
  1.106037E+04
  1.105849E+04
  1.105660E+04
  1.105472E+04
  1.105284E+04
  1.105096E+04
  1.104908E+04
  1.104720E+04
  1.104171E+04
  1.103613E+04
  1.103055E+04
  1.102497E+04
  1.101939E+04
  1.101381E+04
  1.100824E+04
  1.100149E+04
  1.099261E+04
  1.098373E+04
  1.097484E+04
  1.096596E+04
  1.095708E+04
  1.094820E+04
  1.093896E+04
  1.092684E+04
  1.091472E+04
  1.090260E+04
  1.089048E+04
  1.087836E+04
  1.086624E+04
  1.085333E+04
  1.083779E+04
  1.082225E+04
  1.080671E+04
  1.079118E+04
  1.077564E+04
  1.076010E+04
  1.074217E+04
  1.072319E+04
  1.070421E+04
  1.068523E+04
  1.066625E+04
  1.064728E+04
  1.062668E+04
  1.060438E+04
  1.058208E+04
  1.055978E+04
  1.053748E+04
  1.051518E+04
  1.049095E+04
  1.046536E+04
  1.043977E+04
  1.041418E+04
  1.038859E+04
  1.036301E+04
  1.033418E+04
  1.030530E+04
  1.027642E+04
  1.024754E+04
  1.021867E+04
  1.018768E+04
  1.015561E+04
  1.012354E+04
  1.009147E+04
  1.005940E+04
  1.002539E+04
  9.990096E+03
  9.954807E+03
  9.919520E+03
  9.884237E+03
  9.846172E+03
  9.807410E+03
  9.768651E+03
  9.729895E+03
  9.690277E+03
  9.647850E+03
  9.605425E+03
  9.563002E+03
  9.520581E+03
  9.474785E+03
  9.428614E+03
  9.382443E+03
  9.336274E+03
  9.287153E+03
  9.237203E+03
  9.187254E+03
  9.137306E+03
  9.084354E+03
  9.030945E+03
  8.977538E+03
  8.923698E+03
  8.867387E+03
  8.811082E+03
  8.754783E+03
  8.696845E+03
  8.637903E+03
  8.578973E+03
  8.519369E+03
  8.457861E+03
  8.396378E+03
  8.334743E+03
  8.270965E+03
  8.207225E+03
  8.143401E+03
  8.077180E+03
  8.011004E+03
  7.944302E+03
  7.874882E+03
  7.805507E+03
  7.734427E+03
  7.661144E+03
  7.587901E+03
  7.511053E+03
  7.433554E+03
  7.354424E+03
  7.272557E+03
  7.190571E+03
  7.104365E+03
  7.018177E+03
  6.928547E+03
  6.838106E+03
  6.744757E+03
  6.650125E+03
  6.552659E+03
  6.453889E+03
  6.352040E+03
  6.249306E+03
  6.143040E+03
  6.035843E+03
  5.926116E+03
  5.814561E+03
  5.701667E+03
  5.586081E+03
  5.468893E+03
  5.350009E+03
  5.228690E+03
  5.104753E+03
  4.978533E+03
  4.850222E+03
  4.721128E+03
  4.595588E+03
  4.483995E+03
  4.404135E+03
  4.391356E+03
  4.482814E+03
  4.446904E+03
  4.006271E+03
  4.500512E+03
  1.347732E+03
 -1.139318E-04
  6.311324E+02
  6.310536E+02
  6.309747E+02
  6.308959E+02
  6.308170E+02
  6.307382E+02
  6.306593E+02
  6.305805E+02
  6.305017E+02
  6.303356E+02
  6.301673E+02
  6.299990E+02
  6.298307E+02
  6.296625E+02
  6.294942E+02
  6.293260E+02
  6.291602E+02
  6.289992E+02
  6.288382E+02
  6.286771E+02
  6.285160E+02
  6.283550E+02
  6.281939E+02
  6.280303E+02
  6.278460E+02
  6.276618E+02
  6.274775E+02
  6.272932E+02
  6.271089E+02
  6.269246E+02
  6.267198E+02
  6.264471E+02
  6.261744E+02
  6.259016E+02
  6.256288E+02
  6.253560E+02
  6.250832E+02
  6.247374E+02
  6.243597E+02
  6.239819E+02
  6.236041E+02
  6.232262E+02
  6.228482E+02
  6.224019E+02
  6.218833E+02
  6.213647E+02
  6.208460E+02
  6.203272E+02
  6.198083E+02
  6.191427E+02
  6.183743E+02
  6.176058E+02
  6.168373E+02
  6.160686E+02
  6.152998E+02
  6.141819E+02
  6.130584E+02
  6.119348E+02
  6.108111E+02
  6.096874E+02
  6.083373E+02
  6.068711E+02
  6.054048E+02
  6.039384E+02
  6.024720E+02
  6.008538E+02
  5.991358E+02
  5.974177E+02
  5.956995E+02
  5.939811E+02
  5.921696E+02
  5.903345E+02
  5.884992E+02
  5.866636E+02
  5.848446E+02
  5.830801E+02
  5.813152E+02
  5.795500E+02
  5.777845E+02
  5.761063E+02
  5.744377E+02
  5.727689E+02
  5.710997E+02
  5.693298E+02
  5.675312E+02
  5.657324E+02
  5.639334E+02
  5.618255E+02
  5.596700E+02
  5.575144E+02
  5.552833E+02
  5.526247E+02
  5.499666E+02
  5.473090E+02
  5.441798E+02
  5.407608E+02
  5.373444E+02
  5.336883E+02
  5.293572E+02
  5.250327E+02
  5.206654E+02
  5.157029E+02
  5.107506E+02
  5.057967E+02
  5.006195E+02
  4.954535E+02
  4.903023E+02
  4.851803E+02
  4.800680E+02
  4.750701E+02
  4.702142E+02
  4.653651E+02
  4.608748E+02
  4.564543E+02
  4.522360E+02
  4.483493E+02
  4.444825E+02
  4.411842E+02
  4.378842E+02
  4.350860E+02
  4.324051E+02
  4.301353E+02
  4.280459E+02
  4.263141E+02
  4.247469E+02
  4.235579E+02
  4.224792E+02
  4.218800E+02
  4.214330E+02
  4.214026E+02
  4.217531E+02
  4.223973E+02
  4.237469E+02
  4.256141E+02
  4.280537E+02
  4.313831E+02
  4.357987E+02
  4.413730E+02
  4.485085E+02
  4.579433E+02
  4.711566E+02
  4.909974E+02
  5.221280E+02
  5.727551E+02
  6.508928E+02
  7.197640E+02
  7.326560E+02
  8.844946E+02
  2.142818E+02
  3.893754E-04
  1.803003E+03
  1.802491E+03
  1.801978E+03
  1.801465E+03
  1.800952E+03
  1.800440E+03
  1.799927E+03
  1.799414E+03
  1.798902E+03
  1.797586E+03
  1.796250E+03
  1.794914E+03
  1.793578E+03
  1.792242E+03
  1.790906E+03
  1.789570E+03
  1.788036E+03
  1.786140E+03
  1.784245E+03
  1.782349E+03
  1.780453E+03
  1.778557E+03
  1.776662E+03
  1.774694E+03
  1.772150E+03
  1.769606E+03
  1.767062E+03
  1.764518E+03
  1.761975E+03
  1.759431E+03
  1.756717E+03
  1.753437E+03
  1.750158E+03
  1.746879E+03
  1.743600E+03
  1.740321E+03
  1.737042E+03
  1.733267E+03
  1.729276E+03
  1.725285E+03
  1.721294E+03
  1.717303E+03
  1.713312E+03
  1.709020E+03
  1.704410E+03
  1.699799E+03
  1.695189E+03
  1.690580E+03
  1.685970E+03
  1.681080E+03
  1.675992E+03
  1.670905E+03
  1.665819E+03
  1.660732E+03
  1.655647E+03
  1.650266E+03
  1.644881E+03
  1.639497E+03
  1.634113E+03
  1.628730E+03
  1.623219E+03
  1.617643E+03
  1.612067E+03
  1.606492E+03
  1.600918E+03
  1.595174E+03
  1.589320E+03
  1.583466E+03
  1.577613E+03
  1.571761E+03
  1.565594E+03
  1.559349E+03
  1.553106E+03
  1.546862E+03
  1.540555E+03
  1.534039E+03
  1.527523E+03
  1.521008E+03
  1.514493E+03
  1.507808E+03
  1.501104E+03
  1.494400E+03
  1.487696E+03
  1.480724E+03
  1.473677E+03
  1.466630E+03
  1.459584E+03
  1.452325E+03
  1.445033E+03
  1.437743E+03
  1.430470E+03
  1.423296E+03
  1.416123E+03
  1.408953E+03
  1.401820E+03
  1.394712E+03
  1.387610E+03
  1.380415E+03
  1.372957E+03
  1.365510E+03
  1.358037E+03
  1.350144E+03
  1.342268E+03
  1.334383E+03
  1.325997E+03
  1.317632E+03
  1.309111E+03
  1.299757E+03
  1.290424E+03
  1.280450E+03
  1.269649E+03
  1.258866E+03
  1.246653E+03
  1.234182E+03
  1.221060E+03
  1.206842E+03
  1.192576E+03
  1.176638E+03
  1.160705E+03
  1.143516E+03
  1.126029E+03
  1.107676E+03
  1.088941E+03
  1.069588E+03
  1.049950E+03
  1.029895E+03
  1.009723E+03
  9.894260E+02
  9.692015E+02
  9.492120E+02
  9.296710E+02
  9.104833E+02
  8.923628E+02
  8.750645E+02
  8.586637E+02
  8.436435E+02
  8.302123E+02
  8.184297E+02
  8.089502E+02
  8.032025E+02
  8.044855E+02
  8.199132E+02
  8.614218E+02
  9.474876E+02
  1.092376E+03
  1.203119E+03
  1.135031E+03
  1.285293E+03
  2.077005E+02
 -8.328320E-11
  1.244810E+00
  1.244599E+00
  1.244387E+00
  1.244175E+00
  1.243964E+00
  1.243752E+00
  1.243541E+00
  1.243329E+00
  1.243118E+00
  1.242500E+00
  1.241872E+00
  1.241244E+00
  1.240616E+00
  1.239988E+00
  1.239360E+00
  1.238733E+00
  1.237974E+00
  1.236974E+00
  1.235975E+00
  1.234975E+00
  1.233976E+00
  1.232976E+00
  1.231977E+00
  1.230937E+00
  1.229573E+00
  1.228209E+00
  1.226845E+00
  1.225482E+00
  1.224118E+00
  1.222754E+00
  1.221301E+00
  1.219553E+00
  1.217804E+00
  1.216056E+00
  1.214307E+00
  1.212559E+00
  1.210811E+00
  1.208793E+00
  1.206657E+00
  1.204521E+00
  1.202386E+00
  1.200250E+00
  1.198115E+00
  1.195797E+00
  1.193287E+00
  1.190778E+00
  1.188269E+00
  1.185760E+00
  1.183250E+00
  1.180523E+00
  1.177644E+00
  1.174764E+00
  1.171885E+00
  1.169006E+00
  1.166127E+00
  1.162882E+00
  1.159632E+00
  1.156383E+00
  1.153133E+00
  1.149884E+00
  1.146397E+00
  1.142788E+00
  1.139179E+00
  1.135571E+00
  1.131963E+00
  1.128135E+00
  1.124164E+00
  1.120193E+00
  1.116222E+00
  1.112252E+00
  1.107968E+00
  1.103606E+00
  1.099245E+00
  1.094884E+00
  1.090426E+00
  1.085651E+00
  1.080877E+00
  1.076104E+00
  1.071330E+00
  1.066177E+00
  1.060981E+00
  1.055786E+00
  1.050590E+00
  1.045063E+00
  1.039442E+00
  1.033821E+00
  1.028201E+00
  1.022242E+00
  1.016232E+00
  1.010223E+00
  1.004164E+00
  9.978276E-01
  9.914917E-01
  9.851565E-01
  9.786369E-01
  9.720042E-01
  9.653729E-01
  9.586658E-01
  9.517445E-01
  9.448260E-01
  9.378903E-01
  9.307135E-01
  9.235410E-01
  9.163590E-01
  9.089073E-01
  9.014607E-01
  8.939548E-01
  8.861432E-01
  8.783366E-01
  8.703380E-01
  8.620917E-01
  8.538498E-01
  8.452022E-01
  8.364815E-01
  8.275772E-01
  8.183649E-01
  8.091392E-01
  7.994385E-01
  7.897401E-01
  7.796542E-01
  7.694770E-01
  7.589727E-01
  7.483239E-01
  7.373563E-01
  7.262419E-01
  7.147811E-01
  7.032207E-01
  6.912628E-01
  6.792001E-01
  6.668528E-01
  6.542998E-01
  6.415961E-01
  6.285895E-01
  6.154025E-01
  6.020248E-01
  5.883730E-01
  5.744266E-01
  5.602233E-01
  5.457848E-01
  5.312582E-01
  5.171314E-01
  5.045741E-01
  4.955876E-01
  4.941497E-01
  5.044412E-01
  5.004004E-01
  4.508168E-01
  5.064327E-01
  1.516573E-01
 -1.282050E-08
  1.126873E+00
  1.126732E+00
  1.126592E+00
  1.126451E+00
  1.126310E+00
  1.126169E+00
  1.126029E+00
  1.125888E+00
  1.125747E+00
  1.125451E+00
  1.125150E+00
  1.124850E+00
  1.124549E+00
  1.124249E+00
  1.123948E+00
  1.123648E+00
  1.123352E+00
  1.123064E+00
  1.122777E+00
  1.122489E+00
  1.122202E+00
  1.121914E+00
  1.121627E+00
  1.121334E+00
  1.121006E+00
  1.120677E+00
  1.120348E+00
  1.120018E+00
  1.119689E+00
  1.119360E+00
  1.118995E+00
  1.118508E+00
  1.118021E+00
  1.117534E+00
  1.117047E+00
  1.116560E+00
  1.116072E+00
  1.115455E+00
  1.114781E+00
  1.114106E+00
  1.113432E+00
  1.112757E+00
  1.112082E+00
  1.111285E+00
  1.110359E+00
  1.109433E+00
  1.108507E+00
  1.107581E+00
  1.106654E+00
  1.105466E+00
  1.104094E+00
  1.102722E+00
  1.101350E+00
  1.099977E+00
  1.098604E+00
  1.096608E+00
  1.094602E+00
  1.092596E+00
  1.090590E+00
  1.088584E+00
  1.086173E+00
  1.083555E+00
  1.080937E+00
  1.078319E+00
  1.075701E+00
  1.072811E+00
  1.069744E+00
  1.066676E+00
  1.063609E+00
  1.060540E+00
  1.057306E+00
  1.054030E+00
  1.050753E+00
  1.047475E+00
  1.044227E+00
  1.041077E+00
  1.037926E+00
  1.034774E+00
  1.031622E+00
  1.028625E+00
  1.025646E+00
  1.022666E+00
  1.019686E+00
  1.016526E+00
  1.013315E+00
  1.010103E+00
  1.006891E+00
  1.003127E+00
  9.992787E-01
  9.954298E-01
  9.914464E-01
  9.866995E-01
  9.819535E-01
  9.772084E-01
  9.716212E-01
  9.655167E-01
  9.594169E-01
  9.528888E-01
  9.451558E-01
  9.374345E-01
  9.296369E-01
  9.207763E-01
  9.119342E-01
  9.030891E-01
  8.938452E-01
  8.846215E-01
  8.754242E-01
  8.662789E-01
  8.571511E-01
  8.482274E-01
  8.395574E-01
  8.308994E-01
  8.228820E-01
  8.149892E-01
  8.074575E-01
  8.005180E-01
  7.936138E-01
  7.877249E-01
  7.818327E-01
  7.768367E-01
  7.720499E-01
  7.679972E-01
  7.642667E-01
  7.611747E-01
  7.583764E-01
  7.562534E-01
  7.543275E-01
  7.532576E-01
  7.524596E-01
  7.524053E-01
  7.530310E-01
  7.541812E-01
  7.565909E-01
  7.599247E-01
  7.642807E-01
  7.702251E-01
  7.781092E-01
  7.880620E-01
  8.008022E-01
  8.176478E-01
  8.412400E-01
  8.766653E-01
  9.322482E-01
  1.022642E+00
  1.162155E+00
  1.285123E+00
  1.308141E+00
  1.579246E+00
  3.825955E-01
  6.952213E-07
  1.241823E+00
  1.241470E+00
  1.241116E+00
  1.240763E+00
  1.240410E+00
  1.240057E+00
  1.239704E+00
  1.239351E+00
  1.238998E+00
  1.238091E+00
  1.237171E+00
  1.236251E+00
  1.235331E+00
  1.234410E+00
  1.233490E+00
  1.232570E+00
  1.231514E+00
  1.230208E+00
  1.228903E+00
  1.227597E+00
  1.226291E+00
  1.224985E+00
  1.223680E+00
  1.222325E+00
  1.220572E+00
  1.218820E+00
  1.217068E+00
  1.215316E+00
  1.213564E+00
  1.211812E+00
  1.209943E+00
  1.207684E+00
  1.205425E+00
  1.203167E+00
  1.200908E+00
  1.198650E+00
  1.196391E+00
  1.193792E+00
  1.191043E+00
  1.188294E+00
  1.185545E+00
  1.182796E+00
  1.180048E+00
  1.177091E+00
  1.173916E+00
  1.170741E+00
  1.167566E+00
  1.164391E+00
  1.161216E+00
  1.157847E+00
  1.154343E+00
  1.150840E+00
  1.147336E+00
  1.143833E+00
  1.140330E+00
  1.136624E+00
  1.132916E+00
  1.129207E+00
  1.125499E+00
  1.121792E+00
  1.117996E+00
  1.114155E+00
  1.110315E+00
  1.106475E+00
  1.102636E+00
  1.098680E+00
  1.094647E+00
  1.090616E+00
  1.086584E+00
  1.082554E+00
  1.078307E+00
  1.074006E+00
  1.069705E+00
  1.065405E+00
  1.061061E+00
  1.056573E+00
  1.052085E+00
  1.047598E+00
  1.043111E+00
  1.038506E+00
  1.033889E+00
  1.029271E+00
  1.024654E+00
  1.019852E+00
  1.014999E+00
  1.010145E+00
  1.005292E+00
  1.000292E+00
  9.952699E-01
  9.902485E-01
  9.852393E-01
  9.802981E-01
  9.753582E-01
  9.704196E-01
  9.655065E-01
  9.606114E-01
  9.557196E-01
  9.507643E-01
  9.456275E-01
  9.404979E-01
  9.353512E-01
  9.299147E-01
  9.244900E-01
  9.190592E-01
  9.132833E-01
  9.075219E-01
  9.016533E-01
  8.952105E-01
  8.887822E-01
  8.819130E-01
  8.744735E-01
  8.670468E-01
  8.586348E-01
  8.500459E-01
  8.410077E-01
  8.312148E-01
  8.213893E-01
  8.104118E-01
  7.994384E-01
  7.875993E-01
  7.755548E-01
  7.629146E-01
  7.500106E-01
  7.366810E-01
  7.231555E-01
  7.093429E-01
  6.954490E-01
  6.814694E-01
  6.675397E-01
  6.537719E-01
  6.403130E-01
  6.270974E-01
  6.146169E-01
  6.027027E-01
  5.914066E-01
  5.810614E-01
  5.718106E-01
  5.636954E-01
  5.571663E-01
  5.532075E-01
  5.540912E-01
  5.647171E-01
  5.933063E-01
  6.525842E-01
  7.523766E-01
  8.286512E-01
  7.817551E-01
  8.852485E-01
  1.430542E-01
 -5.736149E-14
  9.891354E-01
  9.889672E-01
  9.887991E-01
  9.886310E-01
  9.884629E-01
  9.882948E-01
  9.881266E-01
  9.879585E-01
  9.877904E-01
  9.872995E-01
  9.868006E-01
  9.863017E-01
  9.858028E-01
  9.853040E-01
  9.848051E-01
  9.843062E-01
  9.837032E-01
  9.829090E-01
  9.821148E-01
  9.813206E-01
  9.805264E-01
  9.797323E-01
  9.789382E-01
  9.781119E-01
  9.770282E-01
  9.759446E-01
  9.748609E-01
  9.737773E-01
  9.726938E-01
  9.716102E-01
  9.704559E-01
  9.690665E-01
  9.676771E-01
  9.662878E-01
  9.648985E-01
  9.635093E-01
  9.621201E-01
  9.605168E-01
  9.588197E-01
  9.571227E-01
  9.554258E-01
  9.537290E-01
  9.520322E-01
  9.501907E-01
  9.481966E-01
  9.462026E-01
  9.442087E-01
  9.422149E-01
  9.402213E-01
  9.380543E-01
  9.357660E-01
  9.334780E-01
  9.311900E-01
  9.289023E-01
  9.266147E-01
  9.240366E-01
  9.214542E-01
  9.188720E-01
  9.162900E-01
  9.137082E-01
  9.109371E-01
  9.080692E-01
  9.052015E-01
  9.023341E-01
  8.994669E-01
  8.964254E-01
  8.932696E-01
  8.901140E-01
  8.869588E-01
  8.838038E-01
  8.804000E-01
  8.769340E-01
  8.734682E-01
  8.700027E-01
  8.664601E-01
  8.626665E-01
  8.588730E-01
  8.550797E-01
  8.512865E-01
  8.471917E-01
  8.430633E-01
  8.389350E-01
  8.348068E-01
  8.304147E-01
  8.259484E-01
  8.214822E-01
  8.170162E-01
  8.122814E-01
  8.075057E-01
  8.027302E-01
  7.979160E-01
  7.928807E-01
  7.878459E-01
  7.828115E-01
  7.776306E-01
  7.723595E-01
  7.670895E-01
  7.617591E-01
  7.562580E-01
  7.507589E-01
  7.452461E-01
  7.395411E-01
  7.338392E-01
  7.281297E-01
  7.222054E-01
  7.162849E-01
  7.103173E-01
  7.041066E-01
  6.978997E-01
  6.915404E-01
  6.849844E-01
  6.784319E-01
  6.715577E-01
  6.646255E-01
  6.575478E-01
  6.502261E-01
  6.428938E-01
  6.351854E-01
  6.274787E-01
  6.194652E-01
  6.113793E-01
  6.030344E-01
  5.945750E-01
  5.858630E-01
  5.770344E-01
  5.679312E-01
  5.587488E-01
  5.492510E-01
  5.396699E-01
  5.298627E-01
  5.198919E-01
  5.098011E-01
  4.994694E-01
  4.889942E-01
  4.783670E-01
  4.675216E-01
  4.564417E-01
  4.451572E-01
  4.336852E-01
  4.221428E-01
  4.109171E-01
  4.009380E-01
  3.937959E-01
  3.926513E-01
  4.008262E-01
  3.976121E-01
  3.582100E-01
  4.023965E-01
  1.655207E-01
 -2.478150E-03
  5.643297E-02
  5.642592E-02
  5.641887E-02
  5.641182E-02
  5.640477E-02
  5.639772E-02
  5.639067E-02
  5.638363E-02
  5.637658E-02
  5.636173E-02
  5.634668E-02
  5.633164E-02
  5.631659E-02
  5.630155E-02
  5.628650E-02
  5.627146E-02
  5.625664E-02
  5.624225E-02
  5.622785E-02
  5.621345E-02
  5.619905E-02
  5.618465E-02
  5.617025E-02
  5.615562E-02
  5.613915E-02
  5.612268E-02
  5.610620E-02
  5.608973E-02
  5.607325E-02
  5.605677E-02
  5.603847E-02
  5.601409E-02
  5.598970E-02
  5.596532E-02
  5.594093E-02
  5.591654E-02
  5.589214E-02
  5.586123E-02
  5.582746E-02
  5.579368E-02
  5.575990E-02
  5.572611E-02
  5.569232E-02
  5.565241E-02
  5.560605E-02
  5.555968E-02
  5.551330E-02
  5.546691E-02
  5.542052E-02
  5.536101E-02
  5.529230E-02
  5.522359E-02
  5.515487E-02
  5.508614E-02
  5.501740E-02
  5.491743E-02
  5.481697E-02
  5.471651E-02
  5.461603E-02
  5.451555E-02
  5.439482E-02
  5.426372E-02
  5.413260E-02
  5.400149E-02
  5.387036E-02
  5.372565E-02
  5.357204E-02
  5.341840E-02
  5.326476E-02
  5.311110E-02
  5.294912E-02
  5.278503E-02
  5.262091E-02
  5.245677E-02
  5.229412E-02
  5.213634E-02
  5.197854E-02
  5.182070E-02
  5.166283E-02
  5.151278E-02
  5.136358E-02
  5.121436E-02
  5.106512E-02
  5.090686E-02
  5.074604E-02
  5.058521E-02
  5.042435E-02
  5.023586E-02
  5.004313E-02
  4.985038E-02
  4.965088E-02
  4.941314E-02
  4.917545E-02
  4.893780E-02
  4.865797E-02
  4.835222E-02
  4.804670E-02
  4.771972E-02
  4.733237E-02
  4.694560E-02
  4.655499E-02
  4.611112E-02
  4.566816E-02
  4.522504E-02
  4.476192E-02
  4.429980E-02
  4.383899E-02
  4.338079E-02
  4.292345E-02
  4.247634E-02
  4.204195E-02
  4.160815E-02
  4.120648E-02
  4.081105E-02
  4.043373E-02
  4.008609E-02
  3.974024E-02
  3.944530E-02
  3.915019E-02
  3.890002E-02
  3.866035E-02
  3.845748E-02
  3.827077E-02
  3.811608E-02
  3.797611E-02
  3.787000E-02
  3.777376E-02
  3.772042E-02
  3.768069E-02
  3.767822E-02
  3.770981E-02
  3.776765E-02
  3.788857E-02
  3.805575E-02
  3.827410E-02
  3.857197E-02
  3.896696E-02
  3.946552E-02
  4.010363E-02
  4.094730E-02
  4.212874E-02
  4.390272E-02
  4.668610E-02
  5.121266E-02
  5.819891E-02
  6.435642E-02
  6.550848E-02
  7.908378E-02
  2.631686E-02
  8.469369E-03
  1.612163E-01
  1.611705E-01
  1.611246E-01
  1.610788E-01
  1.610329E-01
  1.609871E-01
  1.609412E-01
  1.608954E-01
  1.608496E-01
  1.607319E-01
  1.606124E-01
  1.604930E-01
  1.603735E-01
  1.602541E-01
  1.601346E-01
  1.600152E-01
  1.598780E-01
  1.597085E-01
  1.595390E-01
  1.593695E-01
  1.592000E-01
  1.590305E-01
  1.588610E-01
  1.586851E-01
  1.584576E-01
  1.582302E-01
  1.580027E-01
  1.577753E-01
  1.575478E-01
  1.573204E-01
  1.570777E-01
  1.567845E-01
  1.564913E-01
  1.561981E-01
  1.559049E-01
  1.556117E-01
  1.553185E-01
  1.549810E-01
  1.546241E-01
  1.542673E-01
  1.539104E-01
  1.535536E-01
  1.531968E-01
  1.528130E-01
  1.524007E-01
  1.519885E-01
  1.515763E-01
  1.511642E-01
  1.507520E-01
  1.503147E-01
  1.498598E-01
  1.494050E-01
  1.489501E-01
  1.484954E-01
  1.480406E-01
  1.475595E-01
  1.470780E-01
  1.465966E-01
  1.461152E-01
  1.456339E-01
  1.451411E-01
  1.446424E-01
  1.441439E-01
  1.436454E-01
  1.431469E-01
  1.426334E-01
  1.421098E-01
  1.415864E-01
  1.410630E-01
  1.405397E-01
  1.399883E-01
  1.394299E-01
  1.388716E-01
  1.383134E-01
  1.377494E-01
  1.371667E-01
  1.365841E-01
  1.360015E-01
  1.354190E-01
  1.348212E-01
  1.342218E-01
  1.336224E-01
  1.330230E-01
  1.323996E-01
  1.317695E-01
  1.311394E-01
  1.305093E-01
  1.298602E-01
  1.292083E-01
  1.285563E-01
  1.279060E-01
  1.272645E-01
  1.266231E-01
  1.259820E-01
  1.253441E-01
  1.247084E-01
  1.240733E-01
  1.234298E-01
  1.227627E-01
  1.220965E-01
  1.214281E-01
  1.207219E-01
  1.200173E-01
  1.193118E-01
  1.185614E-01
  1.178129E-01
  1.170505E-01
  1.162135E-01
  1.153783E-01
  1.144859E-01
  1.135196E-01
  1.125548E-01
  1.114623E-01
  1.103468E-01
  1.091731E-01
  1.079015E-01
  1.066257E-01
  1.052005E-01
  1.037759E-01
  1.022391E-01
  1.006756E-01
  9.903498E-02
  9.736014E-02
  9.563015E-02
  9.387477E-02
  9.208219E-02
  9.027907E-02
  8.846488E-02
  8.665714E-02
  8.487043E-02
  8.312379E-02
  8.140871E-02
  7.978902E-02
  7.824279E-02
  7.677675E-02
  7.543410E-02
  7.423347E-02
  7.318017E-02
  7.233273E-02
  7.181888E-02
  7.193354E-02
  7.331285E-02
  7.702407E-02
  8.471920E-02
  9.767370E-02
  1.075748E-01
  1.014857E-01
  1.149197E-01
  2.550859E-02
 -1.811507E-09
  9.892662E-01
  9.890981E-01
  9.889300E-01
  9.887620E-01
  9.885939E-01
  9.884258E-01
  9.882578E-01
  9.880897E-01
  9.879216E-01
  9.874309E-01
  9.869321E-01
  9.864334E-01
  9.859347E-01
  9.854360E-01
  9.849373E-01
  9.844386E-01
  9.838357E-01
  9.830418E-01
  9.822479E-01
  9.814540E-01
  9.806601E-01
  9.798663E-01
  9.790724E-01
  9.782464E-01
  9.771632E-01