 Title= "ADflow Lift Distribution Data"
Variables = "eta" "CoordinateX" "CoordinateY" "CoordinateZ" "Lift" "Drag" "Moment" "Normalized Lift" "Normalized Drag" "Normalized Moment" "CL" "CD" "CM" "CLp" "CDp" "CMp" "CLv" "CDv" "CMv" "Elliptical" "thickness" "twist" "chord" "fx" "fy" "fz" 
Zone T= "LiftDist_01 allWalls: : z normal"
 I=          150
 DATAPACKING=BLOCK
  0.000000E+00
  6.711405E-03
  1.342281E-02
  2.013422E-02
  2.684563E-02
  3.355704E-02
  4.026845E-02
  4.697986E-02
  5.369127E-02
  6.040268E-02
  6.711409E-02
  7.382550E-02
  8.053691E-02
  8.724832E-02
  9.395973E-02
  1.006711E-01
  1.073825E-01
  1.140940E-01
  1.208054E-01
  1.275168E-01
  1.342282E-01
  1.409396E-01
  1.476510E-01
  1.543624E-01
  1.610738E-01
  1.677852E-01
  1.744966E-01
  1.812081E-01
  1.879195E-01
  1.946309E-01
  2.013423E-01
  2.080537E-01
  2.147651E-01
  2.214765E-01
  2.281879E-01
  2.348993E-01
  2.416107E-01
  2.483221E-01
  2.550336E-01
  2.617450E-01
  2.684564E-01
  2.751678E-01
  2.818792E-01
  2.885906E-01
  2.953020E-01
  3.020134E-01
  3.087248E-01
  3.154362E-01
  3.221476E-01
  3.288591E-01
  3.355705E-01
  3.422819E-01
  3.489933E-01
  3.557047E-01
  3.624161E-01
  3.691275E-01
  3.758389E-01
  3.825503E-01
  3.892617E-01
  3.959732E-01
  4.026846E-01
  4.093960E-01
  4.161074E-01
  4.228188E-01
  4.295302E-01
  4.362416E-01
  4.429530E-01
  4.496644E-01
  4.563758E-01
  4.630872E-01
  4.697987E-01
  4.765101E-01
  4.832215E-01
  4.899329E-01
  4.966443E-01
  5.033557E-01
  5.100671E-01
  5.167785E-01
  5.234899E-01
  5.302013E-01
  5.369128E-01
  5.436242E-01
  5.503356E-01
  5.570470E-01
  5.637584E-01
  5.704698E-01
  5.771812E-01
  5.838926E-01
  5.906040E-01
  5.973154E-01
  6.040268E-01
  6.107383E-01
  6.174497E-01
  6.241611E-01
  6.308725E-01
  6.375839E-01
  6.442953E-01
  6.510067E-01
  6.577181E-01
  6.644295E-01
  6.711409E-01
  6.778524E-01
  6.845638E-01
  6.912752E-01
  6.979866E-01
  7.046980E-01
  7.114094E-01
  7.181208E-01
  7.248322E-01
  7.315436E-01
  7.382550E-01
  7.449664E-01
  7.516779E-01
  7.583893E-01
  7.651007E-01
  7.718121E-01
  7.785235E-01
  7.852349E-01
  7.919463E-01
  7.986577E-01
  8.053691E-01
  8.120805E-01
  8.187919E-01
  8.255034E-01
  8.322148E-01
  8.389262E-01
  8.456376E-01
  8.523490E-01
  8.590604E-01
  8.657718E-01
  8.724832E-01
  8.791946E-01
  8.859060E-01
  8.926175E-01
  8.993289E-01
  9.060403E-01
  9.127517E-01
  9.194631E-01
  9.261745E-01
  9.328859E-01
  9.395973E-01
  9.463087E-01
  9.530201E-01
  9.597315E-01
  9.664430E-01
  9.731544E-01
  9.798658E-01
  9.865772E-01
  9.932886E-01
  1.000000E+00
  0.000000E+00
  0.000000E+00
  0.000000E+00
  0.000000E+00
  0.000000E+00
  0.000000E+00
  0.000000E+00
  0.000000E+00
  0.000000E+00
  0.000000E+00
  0.000000E+00
  0.000000E+00
  0.000000E+00
  0.000000E+00
  0.000000E+00
  0.000000E+00
  0.000000E+00
  0.000000E+00
  0.000000E+00
  0.000000E+00
  0.000000E+00
  0.000000E+00
  0.000000E+00
  0.000000E+00
  0.000000E+00
  0.000000E+00
  0.000000E+00
  0.000000E+00
  0.000000E+00
  0.000000E+00
  0.000000E+00
  0.000000E+00
  0.000000E+00
  0.000000E+00
  0.000000E+00
  0.000000E+00
  0.000000E+00
  0.000000E+00
  0.000000E+00
  0.000000E+00
  0.000000E+00
  0.000000E+00
  0.000000E+00
  0.000000E+00
  0.000000E+00
  0.000000E+00
  0.000000E+00
  0.000000E+00
  0.000000E+00
  0.000000E+00
  0.000000E+00
  0.000000E+00
  0.000000E+00
  0.000000E+00
  0.000000E+00
  0.000000E+00
  0.000000E+00
  0.000000E+00
  0.000000E+00
  0.000000E+00
  0.000000E+00
  0.000000E+00
  0.000000E+00
  0.000000E+00
  0.000000E+00
  0.000000E+00
  0.000000E+00
  0.000000E+00
  0.000000E+00
  0.000000E+00
  0.000000E+00
  0.000000E+00
  0.000000E+00
  0.000000E+00
  0.000000E+00
  0.000000E+00
  0.000000E+00
  0.000000E+00
  0.000000E+00
  0.000000E+00
  0.000000E+00
  0.000000E+00
  0.000000E+00
  0.000000E+00
  0.000000E+00
  0.000000E+00
  0.000000E+00
  0.000000E+00
  0.000000E+00
  0.000000E+00
  0.000000E+00
  0.000000E+00
  0.000000E+00
  0.000000E+00
  0.000000E+00
  0.000000E+00
  0.000000E+00
  0.000000E+00
  0.000000E+00
  0.000000E+00
  0.000000E+00
  0.000000E+00
  0.000000E+00
  0.000000E+00
  0.000000E+00
  0.000000E+00
  0.000000E+00
  0.000000E+00
  0.000000E+00
  0.000000E+00
  0.000000E+00
  0.000000E+00
  0.000000E+00
  0.000000E+00
  0.000000E+00
  0.000000E+00
  0.000000E+00
  0.000000E+00
  0.000000E+00
  0.000000E+00
  0.000000E+00
  0.000000E+00
  0.000000E+00
  0.000000E+00
  0.000000E+00
  0.000000E+00
  0.000000E+00
  0.000000E+00
  0.000000E+00
  0.000000E+00
  0.000000E+00
  0.000000E+00
  0.000000E+00
  0.000000E+00
  0.000000E+00
  0.000000E+00
  0.000000E+00
  0.000000E+00
  0.000000E+00
  0.000000E+00
  0.000000E+00
  0.000000E+00
  0.000000E+00
  0.000000E+00
  0.000000E+00
  0.000000E+00
  0.000000E+00
  0.000000E+00
  0.000000E+00
  0.000000E+00
  0.000000E+00
  0.000000E+00
  0.000000E+00
  0.000000E+00
  0.000000E+00
  0.000000E+00
  0.000000E+00
  0.000000E+00
  0.000000E+00
  0.000000E+00
  0.000000E+00
  0.000000E+00
  0.000000E+00
  0.000000E+00
  0.000000E+00
  0.000000E+00
  0.000000E+00
  0.000000E+00
  0.000000E+00
  0.000000E+00
  0.000000E+00
  0.000000E+00
  0.000000E+00
  0.000000E+00
  0.000000E+00
  0.000000E+00
  0.000000E+00
  0.000000E+00
  0.000000E+00
  0.000000E+00
  0.000000E+00
  0.000000E+00
  0.000000E+00
  0.000000E+00
  0.000000E+00
  0.000000E+00
  0.000000E+00
  0.000000E+00
  0.000000E+00
  0.000000E+00
  0.000000E+00
  0.000000E+00
  0.000000E+00
  0.000000E+00
  0.000000E+00
  0.000000E+00
  0.000000E+00
  0.000000E+00
  0.000000E+00
  0.000000E+00
  0.000000E+00
  0.000000E+00
  0.000000E+00
  0.000000E+00
  0.000000E+00
  0.000000E+00
  0.000000E+00
  0.000000E+00
  0.000000E+00
  0.000000E+00
  0.000000E+00
  0.000000E+00
  0.000000E+00
  0.000000E+00
  0.000000E+00
  0.000000E+00
  0.000000E+00
  0.000000E+00
  0.000000E+00
  0.000000E+00
  0.000000E+00
  0.000000E+00
  0.000000E+00
  0.000000E+00
  0.000000E+00
  0.000000E+00
  0.000000E+00
  0.000000E+00
  0.000000E+00
  0.000000E+00
  0.000000E+00
  0.000000E+00
  0.000000E+00
  0.000000E+00
  0.000000E+00
  0.000000E+00
  0.000000E+00
  0.000000E+00
  0.000000E+00
  0.000000E+00
  0.000000E+00
  0.000000E+00
  0.000000E+00
  0.000000E+00
  0.000000E+00
  0.000000E+00
  0.000000E+00
  0.000000E+00
  0.000000E+00
  0.000000E+00
  0.000000E+00
  0.000000E+00
  0.000000E+00
  0.000000E+00
  0.000000E+00
  0.000000E+00
  0.000000E+00
  0.000000E+00
  0.000000E+00
  0.000000E+00
  0.000000E+00
  0.000000E+00
  0.000000E+00
  0.000000E+00
  0.000000E+00
  0.000000E+00
  0.000000E+00
  0.000000E+00
  0.000000E+00
  0.000000E+00
  0.000000E+00
  0.000000E+00
  0.000000E+00
  0.000000E+00
  0.000000E+00
  0.000000E+00
  0.000000E+00
  0.000000E+00
  0.000000E+00
  0.000000E+00
  0.000000E+00
  0.000000E+00
  0.000000E+00
  0.000000E+00
  0.000000E+00
  0.000000E+00
  0.000000E+00
  0.000000E+00
  0.000000E+00
  0.000000E+00
  0.000000E+00
  0.000000E+00
  0.000000E+00
  0.000000E+00
  0.000000E+00
  0.000000E+00
  0.000000E+00
  0.000000E+00
  0.000000E+00
  0.000000E+00
  1.000000E-08
  1.695085E-02
  3.390169E-02
  5.085254E-02
  6.780338E-02
  8.475423E-02
  1.017051E-01
  1.186559E-01
  1.356068E-01
  1.525576E-01
  1.695085E-01
  1.864593E-01
  2.034101E-01
  2.203610E-01
  2.373118E-01
  2.542627E-01
  2.712135E-01
  2.881644E-01
  3.051152E-01
  3.220661E-01
  3.390169E-01
  3.559678E-01
  3.729186E-01
  3.898694E-01
  4.068203E-01
  4.237711E-01
  4.407220E-01
  4.576728E-01
  4.746237E-01
  4.915745E-01
  5.085254E-01
  5.254762E-01
  5.424271E-01
  5.593779E-01
  5.763287E-01
  5.932796E-01
  6.102304E-01
  6.271813E-01
  6.441321E-01
  6.610830E-01
  6.780338E-01
  6.949847E-01
  7.119355E-01
  7.288864E-01
  7.458372E-01
  7.627880E-01
  7.797389E-01
  7.966897E-01
  8.136406E-01
  8.305914E-01
  8.475423E-01
  8.644931E-01
  8.814440E-01
  8.983948E-01
  9.153457E-01
  9.322965E-01
  9.492473E-01
  9.661982E-01
  9.831490E-01
  1.000100E+00
  1.017051E+00
  1.034002E+00
  1.050952E+00
  1.067903E+00
  1.084854E+00
  1.101805E+00
  1.118756E+00
  1.135707E+00
  1.152657E+00
  1.169608E+00
  1.186559E+00
  1.203510E+00
  1.220461E+00
  1.237412E+00
  1.254363E+00
  1.271313E+00
  1.288264E+00
  1.305215E+00
  1.322166E+00
  1.339117E+00
  1.356068E+00
  1.373018E+00
  1.389969E+00
  1.406920E+00
  1.423871E+00
  1.440822E+00
  1.457773E+00
  1.474724E+00
  1.491674E+00
  1.508625E+00
  1.525576E+00
  1.542527E+00
  1.559478E+00
  1.576429E+00
  1.593379E+00
  1.610330E+00
  1.627281E+00
  1.644232E+00
  1.661183E+00
  1.678134E+00
  1.695085E+00
  1.712035E+00
  1.728986E+00
  1.745937E+00
  1.762888E+00
  1.779839E+00
  1.796790E+00
  1.813740E+00
  1.830691E+00
  1.847642E+00
  1.864593E+00
  1.881544E+00
  1.898495E+00
  1.915446E+00
  1.932396E+00
  1.949347E+00
  1.966298E+00
  1.983249E+00
  2.000200E+00
  2.017151E+00
  2.034101E+00
  2.051052E+00
  2.068003E+00
  2.084954E+00
  2.101905E+00
  2.118856E+00
  2.135807E+00
  2.152757E+00
  2.169708E+00
  2.186659E+00
  2.203610E+00
  2.220561E+00
  2.237512E+00
  2.254462E+00
  2.271413E+00
  2.288364E+00
  2.305315E+00
  2.322266E+00
  2.339217E+00
  2.356168E+00
  2.373118E+00
  2.390069E+00
  2.407020E+00
  2.423971E+00
  2.440922E+00
  2.457873E+00
  2.474823E+00
  2.491774E+00
  2.508725E+00
  2.525676E+00
  1.115223E+04
  1.114972E+04
  1.114722E+04
  1.114473E+04
  1.114224E+04
  1.113976E+04
  1.113729E+04
  1.113482E+04
  1.113236E+04
  1.112153E+04
  1.111049E+04
  1.109947E+04
  1.108845E+04
  1.107744E+04
  1.106644E+04
  1.105545E+04
  1.104138E+04
  1.102166E+04
  1.100195E+04
  1.098224E+04
  1.096254E+04
  1.094285E+04
  1.092317E+04
  1.090310E+04
  1.087986E+04
  1.085663E+04
  1.083341E+04
  1.081019E+04
  1.078698E+04
  1.076378E+04
  1.073994E+04
  1.071396E+04
  1.068799E+04
  1.066202E+04
  1.063606E+04
  1.061011E+04
  1.058417E+04
  1.055619E+04
  1.052731E+04
  1.049845E+04
  1.046959E+04
  1.044074E+04
  1.041190E+04
  1.038203E+04
  1.035106E+04
  1.032010E+04
  1.028916E+04
  1.025822E+04
  1.022728E+04
  1.019573E+04
  1.016374E+04
  1.013176E+04
  1.009978E+04
  1.006781E+04
  1.003585E+04
  1.000365E+04
  9.971450E+03
  9.939256E+03
  9.907066E+03
  9.874881E+03
  9.842971E+03
  9.811203E+03
  9.779438E+03
  9.747676E+03
  9.715917E+03
  9.684605E+03
  9.653586E+03
  9.622571E+03
  9.591559E+03
  9.560549E+03
  9.529919E+03
  9.499386E+03
  9.468858E+03
  9.438335E+03
  9.407750E+03
  9.376956E+03
  9.346169E+03
  9.315389E+03
  9.284615E+03
  9.252864E+03
  9.221012E+03
  9.189169E+03
  9.157336E+03
  9.124056E+03
  9.090379E+03
  9.056715E+03
  9.023063E+03
  8.986992E+03
  8.950563E+03
  8.914151E+03
  8.877181E+03
  8.836969E+03
  8.796777E+03
  8.756605E+03
  8.713547E+03
  8.668716E+03
  8.623911E+03
  8.577761E+03
  8.527797E+03
  8.477867E+03
  8.427567E+03
  8.372336E+03
  8.317149E+03
  8.261742E+03
  8.201114E+03
  8.140532E+03
  8.079046E+03
  8.013005E+03
  7.947005E+03
  7.878696E+03
  7.807411E+03
  7.736161E+03
  7.660653E+03
  7.584371E+03
  7.506330E+03
  7.425348E+03
  7.344246E+03
  7.258887E+03
  7.173552E+03
  7.084901E+03
  6.995475E+03
  6.903320E+03
  6.809967E+03
  6.713828E+03
  6.616414E+03
  6.515753E+03
  6.414169E+03
  6.308690E+03
  6.202179E+03
  6.092833E+03
  5.981427E+03
  5.868514E+03
  5.752560E+03
  5.634819E+03
  5.515199E+03
  5.392917E+03
  5.267882E+03
  5.140584E+03
  5.011429E+03
  4.882134E+03
  4.757757E+03
  4.649799E+03
  4.577381E+03
  4.576952E+03
  4.684317E+03
  4.654004E+03
  4.187077E+03
  4.646370E+03
  1.377223E+03
 -1.788091E-04
  6.038559E+02
  6.044095E+02
  6.049645E+02
  6.055209E+02
  6.060788E+02
  6.066381E+02
  6.071988E+02
  6.077610E+02
  6.083247E+02
  6.088259E+02
  6.093276E+02
  6.098312E+02
  6.103367E+02
  6.108443E+02
  6.113539E+02
  6.118655E+02
  6.120499E+02
  6.116323E+02
  6.112165E+02
  6.108024E+02
  6.103901E+02
  6.099795E+02
  6.095708E+02
  6.091351E+02
  6.084715E+02
  6.078098E+02
  6.071498E+02
  6.064917E+02
  6.058355E+02
  6.051810E+02
  6.045173E+02
  6.038187E+02
  6.031221E+02
  6.024273E+02
  6.017345E+02
  6.010435E+02
  6.003545E+02
  5.997205E+02
  5.991116E+02
  5.985046E+02
  5.978995E+02
  5.972962E+02
  5.966947E+02
  5.961992E+02
  5.958153E+02
  5.954329E+02
  5.950521E+02
  5.946728E+02
  5.942951E+02
  5.940354E+02
  5.938583E+02
  5.936821E+02
  5.935068E+02
  5.933324E+02
  5.931589E+02
  5.929872E+02
  5.928156E+02
  5.926441E+02
  5.924728E+02
  5.923016E+02
  5.920060E+02
  5.916462E+02
  5.912862E+02
  5.909259E+02
  5.905653E+02
  5.899978E+02
  5.892945E+02
  5.885911E+02
  5.878875E+02
  5.871839E+02
  5.860682E+02
  5.848497E+02
  5.836318E+02
  5.824144E+02
  5.810543E+02
  5.792298E+02
  5.774069E+02
  5.755857E+02
  5.737662E+02
  5.714854E+02
  5.691558E+02
  5.668290E+02
  5.645051E+02
  5.620093E+02
  5.594680E+02
  5.569303E+02
  5.543964E+02
  5.519468E+02
  5.495138E+02
  5.470847E+02
  5.447005E+02
  5.425522E+02
  5.404080E+02
  5.382678E+02
  5.362866E+02
  5.344052E+02
  5.325278E+02
  5.306944E+02
  5.289782E+02
  5.272658E+02
  5.255585E+02
  5.238723E+02
  5.221897E+02
  5.204985E+02
  5.185702E+02
  5.166450E+02
  5.146437E+02
  5.122619E+02
  5.098825E+02
  5.072968E+02
  5.044457E+02
  5.015964E+02
  4.984231E+02
  4.951899E+02
  4.918575E+02
  4.883588E+02
  4.848557E+02
  4.812146E+02
  4.775724E+02
  4.739509E+02
  4.703319E+02
  4.668499E+02
  4.634255E+02
  4.602186E+02
  4.571085E+02
  4.543206E+02
  4.516209E+02
  4.494278E+02
  4.474061E+02
  4.458783E+02
  4.448246E+02
  4.441302E+02
  4.443300E+02
  4.451667E+02
  4.467031E+02
  4.493214E+02
  4.532381E+02
  4.585232E+02
  4.656420E+02
  4.754391E+02
  4.895827E+02
  5.112367E+02
  5.455053E+02
  6.010031E+02
  6.854639E+02
  7.591602E+02
  7.703199E+02
  9.170111E+02
  2.271475E+02
  3.890791E-04
  1.704107E+03
  1.700235E+03
  1.696365E+03
  1.692498E+03
  1.688633E+03
  1.684771E+03
  1.680911E+03
  1.677053E+03
  1.673198E+03
  1.663175E+03
  1.653001E+03
  1.642928E+03
  1.632760E+03
  1.622594E+03
  1.612431E+03
  1.602271E+03
  1.591123E+03
  1.578161E+03
  1.565201E+03
  1.552244E+03
  1.539288E+03
  1.526335E+03
  1.513383E+03
  1.500303E+03
  1.486179E+03
  1.472057E+03
  1.457937E+03
  1.443820E+03
  1.429704E+03
  1.415590E+03
  1.401282E+03
  1.386326E+03
  1.371371E+03
  1.356419E+03
  1.341469E+03
  1.326521E+03
  1.311575E+03
  1.296292E+03
  1.280863E+03
  1.265437E+03
  1.250012E+03
  1.234590E+03
  1.219170E+03
  1.203920E+03
  1.188850E+03
  1.173782E+03
  1.158716E+03
  1.143652E+03
  1.128590E+03
  1.114419E+03
  1.100873E+03
  1.087328E+03
  1.073785E+03
  1.060243E+03
  1.046703E+03
  1.035793E+03
  1.024925E+03
  1.014058E+03
  1.003192E+03
  9.923260E+02
  9.837504E+02
  9.763487E+02
  9.689474E+02
  9.615464E+02
  9.541457E+02
  9.490718E+02
  9.455244E+02
  9.419773E+02
  9.384305E+02
  9.348840E+02
  9.345015E+02
  9.349131E+02
  9.353256E+02
  9.357389E+02
  9.370353E+02
  9.412006E+02
  9.453677E+02
  9.495368E+02
  9.537079E+02
  9.605833E+02
  9.677644E+02
  9.749490E+02
  9.821371E+02
  9.906615E+02
  9.995657E+02
  1.008475E+03
  1.017388E+03
  1.026623E+03
  1.035912E+03
  1.045207E+03
  1.054393E+03
  1.062943E+03
  1.071498E+03
  1.080059E+03
  1.087444E+03
  1.094104E+03
  1.100772E+03
  1.106693E+03
  1.110507E+03
  1.114332E+03
  1.117938E+03
  1.118718E+03
  1.119569E+03
  1.120305E+03
  1.118510E+03
  1.116729E+03
  1.114543E+03
  1.110334E+03
  1.106139E+03
  1.100965E+03
  1.094529E+03
  1.088105E+03
  1.080027E+03
  1.071646E+03
  1.062645E+03
  1.052608E+03
  1.042531E+03
  1.031061E+03
  1.019597E+03
  1.007144E+03
  9.944595E+02
  9.811324E+02
  9.675222E+02
  9.534687E+02
  9.392123E+02
  9.246495E+02
  9.100009E+02
  8.952722E+02
  8.806121E+02
  8.661699E+02
  8.521313E+02
  8.384101E+02
  8.256501E+02
  8.136341E+02
  8.024345E+02
  7.925051E+02
  7.840966E+02
  7.773576E+02
  7.730743E+02
  7.729154E+02
  7.806396E+02
  8.039750E+02
  8.556170E+02
  9.542836E+02
  1.112716E+03
  1.233062E+03
  1.161795E+03
  1.292656E+03
  2.059702E+02
 -1.456796E-10
  1.261103E+00
  1.260820E+00
  1.260537E+00
  1.260255E+00
  1.259974E+00
  1.259693E+00
  1.259413E+00
  1.259134E+00
  1.258856E+00
  1.257631E+00
  1.256384E+00
  1.255137E+00
  1.253891E+00
  1.252646E+00
  1.251402E+00
  1.250159E+00
  1.248568E+00
  1.246338E+00
  1.244109E+00
  1.241881E+00
  1.239654E+00
  1.237427E+00
  1.235201E+00
  1.232931E+00
  1.230303E+00
  1.227677E+00
  1.225050E+00
  1.222425E+00
  1.219801E+00
  1.217177E+00
  1.214481E+00
  1.211543E+00
  1.208606E+00
  1.205670E+00
  1.202735E+00
  1.199800E+00
  1.196867E+00
  1.193702E+00
  1.190437E+00
  1.187173E+00
  1.183910E+00
  1.180648E+00
  1.177386E+00
  1.174008E+00
  1.170506E+00
  1.167006E+00
  1.163506E+00
  1.160007E+00
  1.156510E+00
  1.152941E+00
  1.149324E+00
  1.145707E+00
  1.142092E+00
  1.138476E+00
  1.134862E+00
  1.131221E+00
  1.127580E+00
  1.123939E+00
  1.120299E+00
  1.116660E+00
  1.113051E+00
  1.109459E+00
  1.105867E+00
  1.102275E+00
  1.098684E+00
  1.095143E+00
  1.091635E+00
  1.088128E+00
  1.084621E+00
  1.081115E+00
  1.077651E+00
  1.074198E+00
  1.070746E+00
  1.067295E+00
  1.063836E+00
  1.060354E+00
  1.056872E+00
  1.053392E+00
  1.049912E+00
  1.046321E+00
  1.042720E+00
  1.039119E+00
  1.035519E+00
  1.031756E+00
  1.027948E+00
  1.024141E+00
  1.020335E+00
  1.016256E+00
  1.012137E+00
  1.008020E+00
  1.003839E+00
  9.992918E-01
  9.947468E-01
  9.902041E-01
  9.853350E-01
  9.802656E-01
  9.751990E-01
  9.699803E-01
  9.643302E-01
  9.586842E-01
  9.529962E-01
  9.467507E-01
  9.405100E-01
  9.342445E-01
  9.273888E-01
  9.205380E-01
  9.135851E-01
  9.061171E-01
  8.986538E-01
  8.909294E-01
  8.828684E-01
  8.748114E-01
  8.662730E-01
  8.576468E-01
  8.488219E-01
  8.396645E-01
  8.304933E-01
  8.208409E-01
  8.111911E-01
  8.011664E-01
  7.910541E-01
  7.806330E-01
  7.700766E-01
  7.592051E-01
  7.481896E-01
  7.368067E-01
  7.253194E-01
  7.133918E-01
  7.013475E-01
  6.889825E-01
  6.763847E-01
  6.636164E-01
  6.505042E-01
  6.371900E-01
  6.236632E-01
  6.098355E-01
  5.956965E-01
  5.813015E-01
  5.666965E-01
  5.520757E-01
  5.380110E-01
  5.258031E-01
  5.176140E-01
  5.175655E-01
  5.297064E-01
  5.262786E-01
  4.734781E-01
  5.254153E-01
  1.557375E-01
 -2.021988E-08
  1.082005E+00
  1.082996E+00
  1.083991E+00
  1.084988E+00
  1.085988E+00
  1.086990E+00
  1.087994E+00
  1.089002E+00
  1.090012E+00
  1.090910E+00
  1.091809E+00
  1.092711E+00
  1.093617E+00
  1.094527E+00
  1.095440E+00
  1.096356E+00
  1.096687E+00
  1.095938E+00
  1.095193E+00
  1.094451E+00
  1.093713E+00
  1.092977E+00
  1.092245E+00
  1.091464E+00
  1.090275E+00
  1.089089E+00
  1.087907E+00
  1.086727E+00
  1.085552E+00
  1.084379E+00
  1.083190E+00
  1.081938E+00
  1.080690E+00
  1.079445E+00
  1.078203E+00
  1.076965E+00
  1.075731E+00
  1.074595E+00
  1.073504E+00
  1.072416E+00
  1.071332E+00
  1.070251E+00
  1.069173E+00
  1.068285E+00
  1.067597E+00
  1.066912E+00
  1.066230E+00
  1.065550E+00
  1.064873E+00
  1.064408E+00
  1.064091E+00
  1.063775E+00
  1.063461E+00
  1.063148E+00
  1.062837E+00
  1.062530E+00
  1.062222E+00
  1.061915E+00
  1.061608E+00
  1.061301E+00
  1.060772E+00
  1.060127E+00
  1.059482E+00
  1.058836E+00
  1.058190E+00
  1.057173E+00
  1.055913E+00
  1.054653E+00
  1.053392E+00
  1.052131E+00
  1.050132E+00
  1.047949E+00
  1.045766E+00
  1.043585E+00
  1.041148E+00
  1.037879E+00
  1.034613E+00
  1.031349E+00
  1.028089E+00
  1.024002E+00
  1.019828E+00
  1.015659E+00
  1.011495E+00
  1.007023E+00
  1.002469E+00
  9.979221E-01
  9.933817E-01
  9.889925E-01
  9.846329E-01
  9.802805E-01
  9.760083E-01
  9.721590E-01
  9.683169E-01
  9.644821E-01
  9.609321E-01
  9.575610E-01
  9.541969E-01
  9.509119E-01
  9.478368E-01
  9.447685E-01
  9.417092E-01
  9.386879E-01
  9.356730E-01
  9.326427E-01
  9.291875E-01
  9.257379E-01
  9.221518E-01
  9.178840E-01
  9.136206E-01
  9.089875E-01
  9.038789E-01
  8.987733E-01
  8.930874E-01
  8.872941E-01
  8.813229E-01
  8.750539E-01
  8.687770E-01
  8.622527E-01
  8.557265E-01
  8.492373E-01
  8.427528E-01
  8.365137E-01
  8.303777E-01
  8.246316E-01
  8.190587E-01
  8.140633E-01
  8.092259E-01
  8.052963E-01
  8.016737E-01
  7.989362E-01
  7.970481E-01
  7.958038E-01
  7.961619E-01
  7.976612E-01
  8.004142E-01
  8.051056E-01
  8.121237E-01
  8.215937E-01
  8.343493E-01
  8.519040E-01
  8.772469E-01
  9.160470E-01
  9.774504E-01
  1.076893E+00
  1.228232E+00
  1.360283E+00
  1.380279E+00
  1.643124E+00
  4.070087E-01
  6.971620E-07
  1.495433E+00
  1.492035E+00
  1.488639E+00
  1.485245E+00
  1.481854E+00
  1.478464E+00
  1.475077E+00
  1.471692E+00
  1.468309E+00
  1.459513E+00
  1.450585E+00
  1.441745E+00
  1.432822E+00
  1.423901E+00
  1.414983E+00
  1.406067E+00
  1.396284E+00
  1.384910E+00
  1.373537E+00
  1.362166E+00
  1.350797E+00
  1.339429E+00
  1.328064E+00
  1.316585E+00
  1.304191E+00
  1.291798E+00
  1.279407E+00
  1.267018E+00
  1.254631E+00
  1.242246E+00
  1.229690E+00
  1.216565E+00
  1.203442E+00
  1.190321E+00
  1.177201E+00
  1.164083E+00
  1.150968E+00
  1.137556E+00
  1.124017E+00
  1.110479E+00
  1.096944E+00
  1.083410E+00
  1.069878E+00
  1.056495E+00
  1.043271E+00
  1.030048E+00
  1.016827E+00
  1.003608E+00
  9.903900E-01
  9.779545E-01
  9.660670E-01
  9.541809E-01
  9.422962E-01
  9.304127E-01
  9.185305E-01
  9.089563E-01
  8.994192E-01
  8.898828E-01
  8.803471E-01
  8.708120E-01
  8.632865E-01
  8.567912E-01
  8.502962E-01
  8.438014E-01
  8.373070E-01
  8.328544E-01
  8.297414E-01
  8.266287E-01
  8.235162E-01
  8.204040E-01
  8.200683E-01
  8.204295E-01
  8.207915E-01
  8.211541E-01
  8.222919E-01
  8.259470E-01
  8.296039E-01
  8.332625E-01
  8.369228E-01
  8.429563E-01
  8.492580E-01
  8.555628E-01
  8.618707E-01
  8.693513E-01
  8.771652E-01
  8.849832E-01
  8.928054E-01
  9.009096E-01
  9.090610E-01
  9.172171E-01
  9.252787E-01
  9.327813E-01
  9.402889E-01
  9.478016E-01
  9.542822E-01
  9.601272E-01
  9.659782E-01
  9.711739E-01
  9.745215E-01
  9.778775E-01
  9.810425E-01
  9.817271E-01
  9.824734E-01
  9.831192E-01
  9.815441E-01
  9.799814E-01
  9.780627E-01
  9.743694E-01
  9.706884E-01
  9.661474E-01
  9.604996E-01
  9.548625E-01
  9.477733E-01
  9.404187E-01
  9.325204E-01
  9.237123E-01
  9.148690E-01
  9.048035E-01
  8.947431E-01
  8.838157E-01
  8.726842E-01
  8.609891E-01
  8.490455E-01
  8.367129E-01
  8.242022E-01
  8.114227E-01
  7.985679E-01
  7.856428E-01
  7.727778E-01
  7.601042E-01
  7.477846E-01
  7.357436E-01
  7.245461E-01
  7.140016E-01
  7.041734E-01
  6.954599E-01
  6.880811E-01
  6.821672E-01
  6.784084E-01
  6.782690E-01
  6.850474E-01
  7.055252E-01
  7.508435E-01
  8.374280E-01
  9.764601E-01
  1.082069E+00
  1.019529E+00
  1.134366E+00
  1.807484E-01
 -1.278406E-13
  9.971798E-01
  9.969562E-01
  9.967332E-01
  9.965107E-01
  9.962888E-01
  9.960674E-01
  9.958466E-01
  9.956264E-01
  9.954068E-01
  9.944384E-01
  9.934521E-01
  9.924664E-01
  9.914812E-01
  9.904965E-01
  9.895125E-01
  9.885292E-01
  9.872707E-01
  9.855071E-01
  9.837440E-01
  9.819816E-01
  9.802197E-01
  9.784584E-01
  9.766976E-01
  9.749020E-01
  9.728233E-01
  9.707452E-01
  9.686677E-01
  9.665908E-01
  9.645144E-01
  9.624387E-01
  9.603057E-01
  9.579813E-01
  9.556576E-01
  9.533345E-01
  9.510120E-01
  9.486902E-01
  9.463689E-01
  9.438650E-01
  9.412814E-01
  9.386986E-01
  9.361164E-01
  9.335348E-01
  9.309539E-01
  9.282806E-01
  9.255099E-01
  9.227398E-01
  9.199703E-01
  9.172015E-01
  9.144334E-01
  9.116097E-01
  9.087473E-01
  9.058854E-01
  9.030240E-01
  9.001633E-01
  8.973030E-01
  8.944222E-01
  8.915414E-01
  8.886610E-01
  8.857809E-01
  8.829012E-01
  8.800467E-01
  8.772052E-01
  8.743640E-01
  8.715231E-01
  8.686824E-01
  8.658823E-01
  8.631089E-01
  8.603358E-01
  8.575630E-01
  8.547904E-01
  8.520528E-01
  8.493241E-01
  8.465958E-01
  8.438679E-01
  8.411348E-01
  8.383840E-01
  8.356337E-01
  8.328840E-01
  8.301347E-01
  8.272990E-01
  8.244543E-01
  8.216103E-01
  8.187670E-01
  8.157949E-01
  8.127872E-01
  8.097804E-01
  8.067746E-01
  8.035527E-01
  8.002987E-01
  7.970458E-01
  7.937429E-01
  7.901501E-01
  7.865588E-01
  7.829690E-01
  7.791209E-01
  7.751141E-01
  7.711094E-01
  7.669840E-01
  7.625174E-01
  7.580536E-01
  7.535564E-01
  7.486178E-01
  7.436827E-01
  7.387278E-01
  7.333059E-01
  7.278878E-01
  7.223888E-01
  7.164824E-01
  7.105796E-01
  7.044702E-01
  6.980948E-01
  6.917224E-01
  6.849695E-01
  6.781472E-01
  6.711678E-01
  6.639257E-01
  6.566726E-01
  6.490393E-01
  6.414081E-01
  6.334807E-01
  6.254841E-01
  6.172437E-01
  6.088964E-01
  6.003004E-01
  5.915906E-01
  5.825908E-01
  5.735085E-01
  5.640785E-01
  5.545563E-01
  5.447808E-01
  5.348212E-01
  5.247269E-01
  5.143607E-01
  5.038347E-01
  4.931404E-01
  4.822080E-01
  4.710293E-01
  4.596478E-01
  4.481000E-01
  4.365392E-01
  4.254174E-01
  4.157634E-01
  4.092867E-01
  4.092464E-01
  4.188438E-01
  4.161301E-01
  3.743771E-01
  4.154389E-01
  1.691424E-01
 -3.889289E-03
  5.399395E-02
  5.404348E-02
  5.409313E-02
  5.414292E-02
  5.419283E-02
  5.424286E-02
  5.429302E-02
  5.434331E-02
  5.439373E-02
  5.443856E-02
  5.448342E-02
  5.452846E-02
  5.457365E-02
  5.461903E-02
  5.466458E-02
  5.471030E-02
  5.472677E-02
  5.468941E-02
  5.465220E-02
  5.461514E-02
  5.457824E-02
  5.454149E-02
  5.450490E-02
  5.446590E-02
  5.440652E-02
  5.434729E-02
  5.428823E-02
  5.422932E-02
  5.417058E-02
  5.411200E-02
  5.405258E-02
  5.399004E-02
  5.392767E-02
  5.386546E-02
  5.380343E-02
  5.374156E-02
  5.367985E-02
  5.362307E-02
  5.356852E-02
  5.351414E-02
  5.345992E-02
  5.340586E-02
  5.335196E-02
  5.330754E-02
  5.327308E-02
  5.323876E-02
  5.320458E-02
  5.317053E-02
  5.313662E-02
  5.311327E-02
  5.309730E-02
  5.308141E-02
  5.306560E-02
  5.304986E-02
  5.303421E-02
  5.301874E-02
  5.300328E-02
  5.298784E-02
  5.297240E-02
  5.295698E-02
  5.293046E-02
  5.289822E-02
  5.286596E-02
  5.283368E-02
  5.280137E-02
  5.275060E-02
  5.268771E-02
  5.262481E-02
  5.256191E-02
  5.249899E-02
  5.239929E-02
  5.229043E-02
  5.218161E-02
  5.207284E-02
  5.195132E-02
  5.178834E-02
  5.162550E-02
  5.146281E-02
  5.130027E-02
  5.109654E-02
  5.088845E-02
  5.068060E-02
  5.047299E-02
  5.025005E-02
  5.002304E-02
  4.979634E-02
  4.956997E-02
  4.935115E-02
  4.913379E-02
  4.891678E-02
  4.870377E-02
  4.851184E-02
  4.832027E-02
  4.812904E-02
  4.795201E-02
  4.778389E-02
  4.761611E-02
  4.745226E-02
  4.729886E-02
  4.714579E-02
  4.699316E-02
  4.684238E-02
  4.669190E-02
  4.654064E-02
  4.636816E-02
  4.619595E-02
  4.601692E-02
  4.580387E-02
  4.559102E-02
  4.535973E-02
  4.510470E-02
  4.484983E-02
  4.456600E-02
  4.427680E-02
  4.397874E-02
  4.366583E-02
  4.335251E-02
  4.302687E-02
  4.270114E-02
  4.237727E-02
  4.205363E-02
  4.174226E-02
  4.143604E-02
  4.114932E-02
  4.087124E-02
  4.062201E-02
  4.038067E-02
  4.018466E-02
  4.000398E-02
  3.986749E-02
  3.977339E-02
  3.971142E-02
  3.972942E-02
  3.980437E-02
  3.994187E-02
  4.017610E-02
  4.052642E-02
  4.099907E-02
  4.163566E-02
  4.251170E-02
  4.377631E-02
  4.571240E-02
  4.877637E-02
  5.373846E-02
  6.129011E-02
  6.787906E-02
  6.887624E-02
  8.199134E-02
  2.789692E-02
  8.462884E-03
  1.523732E-01
  1.520271E-01
  1.516812E-01
  1.513355E-01
  1.509900E-01
  1.506447E-01
  1.502996E-01
  1.499547E-01
  1.496100E-01
  1.487138E-01
  1.478042E-01
  1.469035E-01
  1.459943E-01
  1.450853E-01
  1.441765E-01
  1.432680E-01
  1.422711E-01
  1.411121E-01
  1.399532E-01
  1.387945E-01
  1.376360E-01
  1.364776E-01
  1.353195E-01
  1.341498E-01
  1.328868E-01
  1.316239E-01
  1.303613E-01
  1.290988E-01
  1.278365E-01
  1.265744E-01
  1.252949E-01
  1.239574E-01
  1.226201E-01
  1.212829E-01
  1.199460E-01
  1.186092E-01
  1.172726E-01
  1.159059E-01
  1.145262E-01
  1.131466E-01
  1.117672E-01
  1.103880E-01
  1.090090E-01
  1.076452E-01
  1.062975E-01
  1.049500E-01
  1.036027E-01
  1.022556E-01
  1.009086E-01
  9.964128E-02
  9.842985E-02
  9.721857E-02
  9.600741E-02
  9.479639E-02
  9.358550E-02
  9.260983E-02
  9.163794E-02
  9.066611E-02
  8.969436E-02
  8.872268E-02
  8.795580E-02
  8.729391E-02
  8.663205E-02
  8.597022E-02
  8.530842E-02
  8.485473E-02
  8.453756E-02
  8.422041E-02
  8.390329E-02
  8.358619E-02
  8.355208E-02
  8.358901E-02
  8.362600E-02
  8.366306E-02
  8.377912E-02
  8.415177E-02
  8.452459E-02
  8.489759E-02
  8.527075E-02
  8.588580E-02
  8.652820E-02
  8.717090E-02
  8.781391E-02
  8.857646E-02
  8.937297E-02
  9.016990E-02
  9.096724E-02
  9.179335E-02
  9.262425E-02
  9.345561E-02
  9.427734E-02
  9.504211E-02
  9.580736E-02
  9.657311E-02
  9.723367E-02
  9.782945E-02
  9.842581E-02
  9.895537E-02
  9.929659E-02
  9.963863E-02
  9.996118E-02
  1.000309E-01
  1.001069E-01
  1.001726E-01
  1.000120E-01
  9.985262E-02
  9.965694E-02
  9.928045E-02
  9.890518E-02
  9.844228E-02
  9.786661E-02
  9.729201E-02
  9.656948E-02
  9.581990E-02
  9.501492E-02
  9.411727E-02
  9.321603E-02
  9.219030E-02
  9.116509E-02
  9.005158E-02
  8.891728E-02
  8.772559E-02
  8.650861E-02
  8.525206E-02
  8.397738E-02
  8.267536E-02
  8.136570E-02
  8.004892E-02
  7.873829E-02
  7.744718E-02
  7.619217E-02
  7.496554E-02
  7.382486E-02
  7.275071E-02
  7.174953E-02
  7.086189E-02
  7.011023E-02
  6.950780E-02
  6.912491E-02
  6.911073E-02
  6.980132E-02
  7.188770E-02
  7.650503E-02
  8.532690E-02
  9.949248E-02
  1.102522E-01
  1.038790E-01
  1.155783E-01
  2.529606E-02
 -3.168686E-09
  9.973153E-01
  9.970922E-01
  9.968696E-01
  9.966476E-01
  9.964262E-01
  9.962053E-01
  9.959850E-01
  9.957652E-01
  9.955460E-01
  9.945787E-01
  9.935935E-01
  9.926088E-01
  9.916246E-01
  9.906411E-01
  9.896581E-01
  9.886758E-01
  9.874183E-01
  9.856557E-01
  9.838937E-01
  9.821322E-01
  9.803713E-01
  9.786110E-01
  9.768513E-01
  9.750567E-01
  9.729788E-01