 Title= "ADflow Lift Distribution Data"
Variables = "eta" "CoordinateX" "CoordinateY" "CoordinateZ" "Lift" "Drag" "Moment" "Normalized Lift" "Normalized Drag" "Normalized Moment" "CL" "CD" "CM" "CLp" "CDp" "CMp" "CLv" "CDv" "CMv" "Elliptical" "thickness" "twist" "chord" "fx" "fy" "fz" 
Zone T= "LiftDist_01 allWalls: : z normal"
 I=          150
 DATAPACKING=BLOCK
  0.000000E+00
  6.711405E-03
  1.342281E-02
  2.013422E-02
  2.684563E-02
  3.355704E-02
  4.026845E-02
  4.697986E-02
  5.369127E-02
  6.040268E-02
  6.711409E-02
  7.382550E-02
  8.053691E-02
  8.724832E-02
  9.395973E-02
  1.006711E-01
  1.073825E-01
  1.140940E-01
  1.208054E-01
  1.275168E-01
  1.342282E-01
  1.409396E-01
  1.476510E-01
  1.543624E-01
  1.610738E-01
  1.677852E-01
  1.744966E-01
  1.812081E-01
  1.879195E-01
  1.946309E-01
  2.013423E-01
  2.080537E-01
  2.147651E-01
  2.214765E-01
  2.281879E-01
  2.348993E-01
  2.416107E-01
  2.483221E-01
  2.550336E-01
  2.617450E-01
  2.684564E-01
  2.751678E-01
  2.818792E-01
  2.885906E-01
  2.953020E-01
  3.020134E-01
  3.087248E-01
  3.154362E-01
  3.221476E-01
  3.288591E-01
  3.355705E-01
  3.422819E-01
  3.489933E-01
  3.557047E-01
  3.624161E-01
  3.691275E-01
  3.758389E-01
  3.825503E-01
  3.892617E-01
  3.959732E-01
  4.026846E-01
  4.093960E-01
  4.161074E-01
  4.228188E-01
  4.295302E-01
  4.362416E-01
  4.429530E-01
  4.496644E-01
  4.563758E-01
  4.630872E-01
  4.697987E-01
  4.765101E-01
  4.832215E-01
  4.899329E-01
  4.966443E-01
  5.033557E-01
  5.100671E-01
  5.167785E-01
  5.234899E-01
  5.302013E-01
  5.369128E-01
  5.436242E-01
  5.503356E-01
  5.570470E-01
  5.637584E-01
  5.704698E-01
  5.771812E-01
  5.838926E-01
  5.906040E-01
  5.973154E-01
  6.040268E-01
  6.107383E-01
  6.174497E-01
  6.241611E-01
  6.308725E-01
  6.375839E-01
  6.442953E-01
  6.510067E-01
  6.577181E-01
  6.644295E-01
  6.711409E-01
  6.778524E-01
  6.845638E-01
  6.912752E-01
  6.979866E-01
  7.046980E-01
  7.114094E-01
  7.181208E-01
  7.248322E-01
  7.315436E-01
  7.382550E-01
  7.449664E-01
  7.516779E-01
  7.583893E-01
  7.651007E-01
  7.718121E-01
  7.785235E-01
  7.852349E-01
  7.919463E-01
  7.986577E-01
  8.053691E-01
  8.120805E-01
  8.187919E-01
  8.255034E-01
  8.322148E-01
  8.389262E-01
  8.456376E-01
  8.523490E-01
  8.590604E-01
  8.657718E-01
  8.724832E-01
  8.791946E-01
  8.859060E-01
  8.926175E-01
  8.993289E-01
  9.060403E-01
  9.127517E-01
  9.194631E-01
  9.261745E-01
  9.328859E-01
  9.395973E-01
  9.463087E-01
  9.530201E-01
  9.597315E-01
  9.664430E-01
  9.731544E-01
  9.798658E-01
  9.865772E-01
  9.932886E-01
  1.000000E+00
  0.000000E+00
  0.000000E+00
  0.000000E+00
  0.000000E+00
  0.000000E+00
  0.000000E+00
  0.000000E+00
  0.000000E+00
  0.000000E+00
  0.000000E+00
  0.000000E+00
  0.000000E+00
  0.000000E+00
  0.000000E+00
  0.000000E+00
  0.000000E+00
  0.000000E+00
  0.000000E+00
  0.000000E+00
  0.000000E+00
  0.000000E+00
  0.000000E+00
  0.000000E+00
  0.000000E+00
  0.000000E+00
  0.000000E+00
  0.000000E+00
  0.000000E+00
  0.000000E+00
  0.000000E+00
  0.000000E+00
  0.000000E+00
  0.000000E+00
  0.000000E+00
  0.000000E+00
  0.000000E+00
  0.000000E+00
  0.000000E+00
  0.000000E+00
  0.000000E+00
  0.000000E+00
  0.000000E+00
  0.000000E+00
  0.000000E+00
  0.000000E+00
  0.000000E+00
  0.000000E+00
  0.000000E+00
  0.000000E+00
  0.000000E+00
  0.000000E+00
  0.000000E+00
  0.000000E+00
  0.000000E+00
  0.000000E+00
  0.000000E+00
  0.000000E+00
  0.000000E+00
  0.000000E+00
  0.000000E+00
  0.000000E+00
  0.000000E+00
  0.000000E+00
  0.000000E+00
  0.000000E+00
  0.000000E+00
  0.000000E+00
  0.000000E+00
  0.000000E+00
  0.000000E+00
  0.000000E+00
  0.000000E+00
  0.000000E+00
  0.000000E+00
  0.000000E+00
  0.000000E+00
  0.000000E+00
  0.000000E+00
  0.000000E+00
  0.000000E+00
  0.000000E+00
  0.000000E+00
  0.000000E+00
  0.000000E+00
  0.000000E+00
  0.000000E+00
  0.000000E+00
  0.000000E+00
  0.000000E+00
  0.000000E+00
  0.000000E+00
  0.000000E+00
  0.000000E+00
  0.000000E+00
  0.000000E+00
  0.000000E+00
  0.000000E+00
  0.000000E+00
  0.000000E+00
  0.000000E+00
  0.000000E+00
  0.000000E+00
  0.000000E+00
  0.000000E+00
  0.000000E+00
  0.000000E+00
  0.000000E+00
  0.000000E+00
  0.000000E+00
  0.000000E+00
  0.000000E+00
  0.000000E+00
  0.000000E+00
  0.000000E+00
  0.000000E+00
  0.000000E+00
  0.000000E+00
  0.000000E+00
  0.000000E+00
  0.000000E+00
  0.000000E+00
  0.000000E+00
  0.000000E+00
  0.000000E+00
  0.000000E+00
  0.000000E+00
  0.000000E+00
  0.000000E+00
  0.000000E+00
  0.000000E+00
  0.000000E+00
  0.000000E+00
  0.000000E+00
  0.000000E+00
  0.000000E+00
  0.000000E+00
  0.000000E+00
  0.000000E+00
  0.000000E+00
  0.000000E+00
  0.000000E+00
  0.000000E+00
  0.000000E+00
  0.000000E+00
  0.000000E+00
  0.000000E+00
  0.000000E+00
  0.000000E+00
  0.000000E+00
  0.000000E+00
  0.000000E+00
  0.000000E+00
  0.000000E+00
  0.000000E+00
  0.000000E+00
  0.000000E+00
  0.000000E+00
  0.000000E+00
  0.000000E+00
  0.000000E+00
  0.000000E+00
  0.000000E+00
  0.000000E+00
  0.000000E+00
  0.000000E+00
  0.000000E+00
  0.000000E+00
  0.000000E+00
  0.000000E+00
  0.000000E+00
  0.000000E+00
  0.000000E+00
  0.000000E+00
  0.000000E+00
  0.000000E+00
  0.000000E+00
  0.000000E+00
  0.000000E+00
  0.000000E+00
  0.000000E+00
  0.000000E+00
  0.000000E+00
  0.000000E+00
  0.000000E+00
  0.000000E+00
  0.000000E+00
  0.000000E+00
  0.000000E+00
  0.000000E+00
  0.000000E+00
  0.000000E+00
  0.000000E+00
  0.000000E+00
  0.000000E+00
  0.000000E+00
  0.000000E+00
  0.000000E+00
  0.000000E+00
  0.000000E+00
  0.000000E+00
  0.000000E+00
  0.000000E+00
  0.000000E+00
  0.000000E+00
  0.000000E+00
  0.000000E+00
  0.000000E+00
  0.000000E+00
  0.000000E+00
  0.000000E+00
  0.000000E+00
  0.000000E+00
  0.000000E+00
  0.000000E+00
  0.000000E+00
  0.000000E+00
  0.000000E+00
  0.000000E+00
  0.000000E+00
  0.000000E+00
  0.000000E+00
  0.000000E+00
  0.000000E+00
  0.000000E+00
  0.000000E+00
  0.000000E+00
  0.000000E+00
  0.000000E+00
  0.000000E+00
  0.000000E+00
  0.000000E+00
  0.000000E+00
  0.000000E+00
  0.000000E+00
  0.000000E+00
  0.000000E+00
  0.000000E+00
  0.000000E+00
  0.000000E+00
  0.000000E+00
  0.000000E+00
  0.000000E+00
  0.000000E+00
  0.000000E+00
  0.000000E+00
  0.000000E+00
  0.000000E+00
  0.000000E+00
  0.000000E+00
  0.000000E+00
  0.000000E+00
  0.000000E+00
  0.000000E+00
  0.000000E+00
  0.000000E+00
  0.000000E+00
  0.000000E+00
  0.000000E+00
  0.000000E+00
  0.000000E+00
  0.000000E+00
  0.000000E+00
  0.000000E+00
  0.000000E+00
  0.000000E+00
  0.000000E+00
  0.000000E+00
  0.000000E+00
  0.000000E+00
  0.000000E+00
  0.000000E+00
  0.000000E+00
  0.000000E+00
  0.000000E+00
  0.000000E+00
  0.000000E+00
  0.000000E+00
  0.000000E+00
  0.000000E+00
  0.000000E+00
  0.000000E+00
  0.000000E+00
  0.000000E+00
  0.000000E+00
  0.000000E+00
  0.000000E+00
  0.000000E+00
  0.000000E+00
  0.000000E+00
  0.000000E+00
  0.000000E+00
  0.000000E+00
  0.000000E+00
  0.000000E+00
  0.000000E+00
  0.000000E+00
  0.000000E+00
  0.000000E+00
  0.000000E+00
  0.000000E+00
  1.000000E-08
  1.695085E-02
  3.390169E-02
  5.085254E-02
  6.780338E-02
  8.475423E-02
  1.017051E-01
  1.186559E-01
  1.356068E-01
  1.525576E-01
  1.695085E-01
  1.864593E-01
  2.034101E-01
  2.203610E-01
  2.373118E-01
  2.542627E-01
  2.712135E-01
  2.881644E-01
  3.051152E-01
  3.220661E-01
  3.390169E-01
  3.559678E-01
  3.729186E-01
  3.898694E-01
  4.068203E-01
  4.237711E-01
  4.407220E-01
  4.576728E-01
  4.746237E-01
  4.915745E-01
  5.085254E-01
  5.254762E-01
  5.424271E-01
  5.593779E-01
  5.763287E-01
  5.932796E-01
  6.102304E-01
  6.271813E-01
  6.441321E-01
  6.610830E-01
  6.780338E-01
  6.949847E-01
  7.119355E-01
  7.288864E-01
  7.458372E-01
  7.627880E-01
  7.797389E-01
  7.966897E-01
  8.136406E-01
  8.305914E-01
  8.475423E-01
  8.644931E-01
  8.814440E-01
  8.983948E-01
  9.153457E-01
  9.322965E-01
  9.492473E-01
  9.661982E-01
  9.831490E-01
  1.000100E+00
  1.017051E+00
  1.034002E+00
  1.050952E+00
  1.067903E+00
  1.084854E+00
  1.101805E+00
  1.118756E+00
  1.135707E+00
  1.152657E+00
  1.169608E+00
  1.186559E+00
  1.203510E+00
  1.220461E+00
  1.237412E+00
  1.254363E+00
  1.271313E+00
  1.288264E+00
  1.305215E+00
  1.322166E+00
  1.339117E+00
  1.356068E+00
  1.373018E+00
  1.389969E+00
  1.406920E+00
  1.423871E+00
  1.440822E+00
  1.457773E+00
  1.474724E+00
  1.491674E+00
  1.508625E+00
  1.525576E+00
  1.542527E+00
  1.559478E+00
  1.576429E+00
  1.593379E+00
  1.610330E+00
  1.627281E+00
  1.644232E+00
  1.661183E+00
  1.678134E+00
  1.695085E+00
  1.712035E+00
  1.728986E+00
  1.745937E+00
  1.762888E+00
  1.779839E+00
  1.796790E+00
  1.813740E+00
  1.830691E+00
  1.847642E+00
  1.864593E+00
  1.881544E+00
  1.898495E+00
  1.915446E+00
  1.932396E+00
  1.949347E+00
  1.966298E+00
  1.983249E+00
  2.000200E+00
  2.017151E+00
  2.034101E+00
  2.051052E+00
  2.068003E+00
  2.084954E+00
  2.101905E+00
  2.118856E+00
  2.135807E+00
  2.152757E+00
  2.169708E+00
  2.186659E+00
  2.203610E+00
  2.220561E+00
  2.237512E+00
  2.254462E+00
  2.271413E+00
  2.288364E+00
  2.305315E+00
  2.322266E+00
  2.339217E+00
  2.356168E+00
  2.373118E+00
  2.390069E+00
  2.407020E+00
  2.423971E+00
  2.440922E+00
  2.457873E+00
  2.474823E+00
  2.491774E+00
  2.508725E+00
  2.525676E+00
  1.091660E+04
  1.091509E+04
  1.091359E+04
  1.091208E+04
  1.091058E+04
  1.090907E+04
  1.090757E+04
  1.090607E+04
  1.090456E+04
  1.090023E+04
  1.089582E+04
  1.089141E+04
  1.088701E+04
  1.088260E+04
  1.087819E+04
  1.087379E+04
  1.086832E+04
  1.086090E+04
  1.085348E+04
  1.084606E+04
  1.083864E+04
  1.083123E+04
  1.082381E+04
  1.081600E+04
  1.080507E+04
  1.079414E+04
  1.078321E+04
  1.077229E+04
  1.076136E+04
  1.075043E+04
  1.073864E+04
  1.072399E+04
  1.070933E+04
  1.069468E+04
  1.068002E+04
  1.066537E+04
  1.065072E+04
  1.063353E+04
  1.061523E+04
  1.059693E+04
  1.057863E+04
  1.056034E+04
  1.054204E+04
  1.052212E+04
  1.050047E+04
  1.047882E+04
  1.045718E+04
  1.043554E+04
  1.041390E+04
  1.039046E+04
  1.036577E+04
  1.034109E+04
  1.031640E+04
  1.029172E+04
  1.026704E+04
  1.023961E+04
  1.021213E+04
  1.018466E+04
  1.015718E+04
  1.012971E+04
  1.010059E+04
  1.007063E+04
  1.004067E+04
  1.001071E+04
  9.980748E+03
  9.949373E+03
  9.917070E+03
  9.884769E+03
  9.852470E+03
  9.820173E+03
  9.785852E+03
  9.751025E+03
  9.716200E+03
  9.681378E+03
  9.645885E+03
  9.608202E+03
  9.570522E+03
  9.532844E+03
  9.495169E+03
  9.454663E+03
  9.413843E+03
  9.373025E+03
  9.332210E+03
  9.288781E+03
  9.244618E+03
  9.200459E+03
  9.156302E+03
  9.109090E+03
  9.061414E+03
  9.013742E+03
  8.965524E+03
  8.914182E+03
  8.862846E+03
  8.811519E+03
  8.757843E+03
  8.702723E+03
  8.647616E+03
  8.591490E+03
  8.532493E+03
  8.473516E+03
  8.414259E+03
  8.351343E+03
  8.288456E+03
  8.225402E+03
  8.158478E+03
  8.091585E+03
  8.024008E+03
  7.952993E+03
  7.882008E+03
  7.809221E+03
  7.734114E+03
  7.659034E+03
  7.580533E+03
  7.501411E+03
  7.420837E+03
  7.337836E+03
  7.254732E+03
  7.168019E+03
  7.081324E+03
  6.991729E+03
  6.901454E+03
  6.808709E+03
  6.714878E+03
  6.618475E+03
  6.520890E+03
  6.420275E+03
  6.318792E+03
  6.213639E+03
  6.107497E+03
  5.998646E+03
  5.887801E+03
  5.775492E+03
  5.660196E+03
  5.543114E+03
  5.424144E+03
  5.302473E+03
  5.177956E+03
  5.051024E+03
  4.921976E+03
  4.792341E+03
  4.666871E+03
  4.556622E+03
  4.480235E+03
  4.474080E+03
  4.575118E+03
  4.543704E+03
  4.094660E+03
  4.582590E+03
  1.342951E+03
 -1.793495E-04
  6.094890E+02
  6.094073E+02
  6.093257E+02
  6.092442E+02
  6.091629E+02
  6.090816E+02
  6.090005E+02
  6.089195E+02
  6.088386E+02
  6.086494E+02
  6.084576E+02
  6.082659E+02
  6.080742E+02
  6.078827E+02
  6.076912E+02
  6.074998E+02
  6.073195E+02
  6.071596E+02
  6.069997E+02
  6.068399E+02
  6.066800E+02
  6.065202E+02
  6.063603E+02
  6.062052E+02
  6.060878E+02
  6.059704E+02
  6.058529E+02
  6.057354E+02
  6.056179E+02
  6.055004E+02
  6.053844E+02
  6.052738E+02
  6.051631E+02
  6.050524E+02
  6.049417E+02
  6.048309E+02
  6.047200E+02
  6.046149E+02
  6.045121E+02
  6.044094E+02
  6.043066E+02
  6.042038E+02
  6.041009E+02
  6.040008E+02
  6.039035E+02
  6.038062E+02
  6.037090E+02
  6.036117E+02
  6.035144E+02
  6.033694E+02
  6.031910E+02
  6.030126E+02
  6.028341E+02
  6.026555E+02
  6.024768E+02
  6.020636E+02
  6.016465E+02
  6.012292E+02
  6.008116E+02
  6.003938E+02
  5.997506E+02
  5.989917E+02
  5.982324E+02
  5.974728E+02
  5.967127E+02
  5.957308E+02
  5.946032E+02
  5.934751E+02
  5.923464E+02
  5.912173E+02
  5.897877E+02
  5.882823E+02
  5.867762E+02
  5.852697E+02
  5.836806E+02
  5.818247E+02
  5.799682E+02
  5.781111E+02
  5.762533E+02
  5.741335E+02
  5.719838E+02
  5.698336E+02
  5.676828E+02
  5.653677E+02
  5.630061E+02
  5.606441E+02
  5.582815E+02
  5.558219E+02
  5.533472E+02
  5.508722E+02
  5.483916E+02
  5.458793E+02
  5.433673E+02
  5.408556E+02
  5.383225E+02
  5.357770E+02
  5.332325E+02
  5.306719E+02
  5.280654E+02
  5.254608E+02
  5.228520E+02
  5.201715E+02
  5.174935E+02
  5.148115E+02
  5.120053E+02
  5.092014E+02
  5.063680E+02
  5.033824E+02
  5.003984E+02
  4.973418E+02
  4.941911E+02
  4.910412E+02
  4.878046E+02
  4.845516E+02
  4.812877E+02
  4.780050E+02
  4.747226E+02
  4.714763E+02
  4.682277E+02
  4.651028E+02
  4.620046E+02
  4.590997E+02
  4.562775E+02
  4.536945E+02
  4.512189E+02
  4.490581E+02
  4.469846E+02
  4.453768E+02
  4.439239E+02
  4.429131E+02
  4.423224E+02
  4.420501E+02
  4.425671E+02
  4.436472E+02
  4.453454E+02
  4.479998E+02
  4.518031E+02
  4.568195E+02
  4.634701E+02
  4.725314E+02
  4.855618E+02
  5.055465E+02
  5.373277E+02
  5.892600E+02
  6.690594E+02
  7.383894E+02
  7.497870E+02
  8.979590E+02
  2.131461E+02
  3.865472E-04
  1.666607E+03
  1.666681E+03
  1.666755E+03
  1.666829E+03
  1.666904E+03
  1.666979E+03
  1.667054E+03
  1.667129E+03
  1.667204E+03
  1.666968E+03
  1.666724E+03
  1.666480E+03
  1.666236E+03
  1.665992E+03
  1.665748E+03
  1.665505E+03
  1.664935E+03
  1.663768E+03
  1.662600E+03
  1.661432E+03
  1.660265E+03
  1.659097E+03
  1.657930E+03
  1.656644E+03
  1.654410E+03
  1.652175E+03
  1.649941E+03
  1.647706E+03
  1.645472E+03
  1.643237E+03
  1.640735E+03
  1.637344E+03
  1.633952E+03
  1.630560E+03
  1.627248E+03
  1.623856E+03
  1.620464E+03
  1.616265E+03
  1.611712E+03
  1.607160E+03
  1.602608E+03
  1.598057E+03
  1.593505E+03
  1.588490E+03
  1.582985E+03
  1.577481E+03
  1.571977E+03
  1.566473E+03
  1.560970E+03
  1.555215E+03
  1.549285E+03
  1.543355E+03
  1.537426E+03
  1.531497E+03
  1.525568E+03
  1.519851E+03
  1.514138E+03
  1.508425E+03
  1.502713E+03
  1.497000E+03
  1.491683E+03
  1.486568E+03
  1.481454E+03
  1.476340E+03
  1.471226E+03
  1.466515E+03
  1.462070E+03
  1.457625E+03
  1.453180E+03
  1.448735E+03
  1.444778E+03
  1.440943E+03
  1.437108E+03
  1.433274E+03
  1.429558E+03
  1.426224E+03
  1.422892E+03
  1.419559E+03
  1.416228E+03
  1.413113E+03
  1.410024E+03
  1.406935E+03
  1.403847E+03
  1.400607E+03
  1.397325E+03
  1.394044E+03
  1.390765E+03
  1.386917E+03
  1.383049E+03
  1.379183E+03
  1.375189E+03
  1.370457E+03
  1.365728E+03
  1.361001E+03
  1.355534E+03
  1.349611E+03
  1.343693E+03
  1.337381E+03
  1.329961E+03
  1.322546E+03
  1.315024E+03
  1.306105E+03
  1.297195E+03
  1.288229E+03
  1.277964E+03
  1.267709E+03
  1.257236E+03
  1.245668E+03
  1.234109E+03
  1.221989E+03
  1.209149E+03
  1.196317E+03
  1.182495E+03
  1.168492E+03
  1.154100E+03
  1.139055E+03
  1.123984E+03
  1.107958E+03
  1.091936E+03
  1.075199E+03
  1.058294E+03
  1.040953E+03
  1.023421E+03
  1.005636E+03
  9.877349E+02
  9.697134E+02
  9.516584E+02
  9.337205E+02
  9.159004E+02
  8.984347E+02
  8.814640E+02
  8.648755E+02
  8.493615E+02
  8.346381E+02
  8.207724E+02
  8.082125E+02
  7.971658E+02
  7.877347E+02
  7.806311E+02
  7.774342E+02
  7.817157E+02
  8.009705E+02
  8.476700E+02
  9.406898E+02
  1.093828E+03
  1.211540E+03
  1.145922E+03
  1.291426E+03
  1.980878E+02
 -1.437475E-10
  1.232095E+00
  1.231924E+00
  1.231754E+00
  1.231585E+00
  1.231415E+00
  1.231245E+00
  1.231075E+00
  1.230905E+00
  1.230736E+00
  1.230246E+00
  1.229749E+00
  1.229252E+00
  1.228754E+00
  1.228257E+00
  1.227760E+00
  1.227263E+00
  1.226645E+00
  1.225808E+00
  1.224971E+00
  1.224133E+00
  1.223296E+00
  1.222459E+00
  1.221622E+00
  1.220740E+00
  1.219507E+00
  1.218273E+00
  1.217040E+00
  1.215807E+00
  1.214573E+00
  1.213340E+00
  1.212009E+00
  1.210355E+00
  1.208701E+00
  1.207047E+00
  1.205393E+00
  1.203739E+00
  1.202086E+00
  1.200146E+00
  1.198080E+00
  1.196015E+00
  1.193950E+00
  1.191885E+00
  1.189820E+00
  1.187571E+00
  1.185128E+00
  1.182685E+00
  1.180242E+00
  1.177800E+00
  1.175357E+00
  1.172712E+00
  1.169926E+00
  1.167140E+00
  1.164354E+00
  1.161568E+00
  1.158782E+00
  1.155686E+00
  1.152585E+00
  1.149484E+00
  1.146383E+00
  1.143283E+00
  1.139996E+00
  1.136614E+00
  1.133233E+00
  1.129851E+00
  1.126470E+00
  1.122929E+00
  1.119283E+00
  1.115637E+00
  1.111992E+00
  1.108347E+00
  1.104473E+00
  1.100543E+00
  1.096612E+00
  1.092682E+00
  1.088676E+00
  1.084423E+00
  1.080170E+00
  1.075918E+00
  1.071666E+00
  1.067094E+00
  1.062487E+00
  1.057880E+00
  1.053273E+00
  1.048372E+00
  1.043387E+00
  1.038403E+00
  1.033420E+00
  1.028091E+00
  1.022710E+00
  1.017330E+00
  1.011888E+00
  1.006093E+00
  1.000299E+00
  9.945058E-01
  9.884478E-01
  9.822267E-01
  9.760070E-01
  9.696725E-01
  9.630138E-01
  9.563574E-01
  9.496694E-01
  9.425684E-01
  9.354707E-01
  9.283542E-01
  9.208008E-01
  9.132511E-01
  9.056241E-01
  8.976090E-01
  8.895973E-01
  8.813823E-01
  8.729053E-01
  8.644314E-01
  8.555715E-01
  8.466415E-01
  8.375476E-01
  8.281797E-01
  8.188003E-01
  8.090134E-01
  7.992287E-01
  7.891165E-01
  7.789277E-01
  7.684601E-01
  7.578700E-01
  7.469895E-01
  7.359756E-01
  7.246198E-01
  7.131660E-01
  7.012980E-01
  6.893183E-01
  6.770330E-01
  6.645225E-01
  6.518468E-01
  6.388341E-01
  6.256196E-01
  6.121922E-01
  5.984599E-01
  5.844064E-01
  5.700803E-01
  5.555154E-01
  5.408842E-01
  5.267232E-01
  5.142800E-01
  5.056586E-01
  5.049639E-01
  5.163675E-01
  5.128220E-01
  4.621410E-01
  5.172107E-01
  1.515712E-01
 -2.024215E-08
  1.092749E+00
  1.092603E+00
  1.092456E+00
  1.092310E+00
  1.092165E+00
  1.092019E+00
  1.091873E+00
  1.091728E+00
  1.091583E+00
  1.091244E+00
  1.090900E+00
  1.090556E+00
  1.090213E+00
  1.089869E+00
  1.089526E+00
  1.089183E+00
  1.088860E+00
  1.088573E+00
  1.088286E+00
  1.088000E+00
  1.087713E+00
  1.087426E+00
  1.087140E+00
  1.086862E+00
  1.086651E+00
  1.086441E+00
  1.086230E+00
  1.086019E+00
  1.085809E+00
  1.085598E+00
  1.085390E+00
  1.085192E+00
  1.084993E+00
  1.084795E+00
  1.084596E+00
  1.084398E+00
  1.084199E+00
  1.084010E+00
  1.083826E+00
  1.083642E+00
  1.083458E+00
  1.083273E+00
  1.083089E+00
  1.082909E+00
  1.082735E+00
  1.082561E+00
  1.082386E+00
  1.082212E+00
  1.082037E+00
  1.081777E+00
  1.081458E+00
  1.081138E+00
  1.080818E+00
  1.080497E+00
  1.080177E+00
  1.079436E+00
  1.078689E+00
  1.077940E+00
  1.077192E+00
  1.076442E+00
  1.075289E+00
  1.073929E+00
  1.072567E+00
  1.071205E+00
  1.069843E+00
  1.068082E+00
  1.066061E+00
  1.064038E+00
  1.062014E+00
  1.059990E+00
  1.057427E+00
  1.054728E+00
  1.052028E+00
  1.049327E+00
  1.046477E+00
  1.043150E+00
  1.039822E+00
  1.036492E+00
  1.033161E+00
  1.029361E+00
  1.025506E+00
  1.021651E+00
  1.017795E+00
  1.013644E+00
  1.009410E+00
  1.005175E+00
  1.000940E+00
  9.965297E-01
  9.920929E-01
  9.876556E-01
  9.832080E-01
  9.787038E-01
  9.742001E-01
  9.696968E-01
  9.651553E-01
  9.605914E-01
  9.560294E-01
  9.514386E-01
  9.467653E-01
  9.420955E-01
  9.374183E-01
  9.326123E-01
  9.278110E-01
  9.230025E-01
  9.179713E-01
  9.129443E-01
  9.078643E-01
  9.025113E-01
  8.971614E-01
  8.916812E-01
  8.860322E-01
  8.803848E-01
  8.745820E-01
  8.687497E-01
  8.628979E-01
  8.570124E-01
  8.511273E-01
  8.453070E-01
  8.394827E-01
  8.338801E-01
  8.283254E-01
  8.231172E-01
  8.180573E-01
  8.134263E-01
  8.089878E-01
  8.051136E-01
  8.013960E-01
  7.985135E-01
  7.959085E-01
  7.940963E-01
  7.930372E-01
  7.925491E-01
  7.934760E-01
  7.954124E-01
  7.984571E-01
  8.032162E-01
  8.100350E-01
  8.190290E-01
  8.309528E-01
  8.471988E-01
  8.705609E-01
  9.063914E-01
  9.633717E-01
  1.056481E+00
  1.199553E+00
  1.323854E+00
  1.344289E+00
  1.609945E+00
  3.821485E-01
  6.930381E-07
  1.222125E+00
  1.222179E+00
  1.222234E+00
  1.222288E+00
  1.222343E+00
  1.222398E+00
  1.222453E+00
  1.222508E+00
  1.222563E+00
  1.222390E+00
  1.222211E+00
  1.222032E+00
  1.221853E+00
  1.221674E+00
  1.221496E+00
  1.221317E+00
  1.220899E+00
  1.220043E+00
  1.219187E+00
  1.218331E+00
  1.217474E+00
  1.216618E+00
  1.215762E+00
  1.214819E+00
  1.213181E+00
  1.211542E+00
  1.209904E+00
  1.208265E+00
  1.206627E+00
  1.204988E+00
  1.203153E+00
  1.200666E+00
  1.198179E+00
  1.195692E+00
  1.193263E+00
  1.190776E+00
  1.188288E+00
  1.185209E+00
  1.181871E+00
  1.178533E+00
  1.175195E+00
  1.171857E+00
  1.168519E+00
  1.164841E+00
  1.160805E+00
  1.156769E+00
  1.152733E+00
  1.148697E+00
  1.144661E+00
  1.140441E+00
  1.136093E+00
  1.131744E+00
  1.127396E+00
  1.123049E+00
  1.118701E+00
  1.114509E+00
  1.110319E+00
  1.106130E+00
  1.101941E+00
  1.097752E+00
  1.093853E+00
  1.090102E+00
  1.086352E+00
  1.082602E+00
  1.078852E+00
  1.075398E+00
  1.072138E+00
  1.068878E+00
  1.065619E+00
  1.062359E+00
  1.059457E+00
  1.056645E+00
  1.053833E+00
  1.051022E+00
  1.048297E+00
  1.045852E+00
  1.043408E+00
  1.040965E+00
  1.038522E+00
  1.036238E+00
  1.033972E+00
  1.031707E+00
  1.029443E+00
  1.027067E+00
  1.024660E+00
  1.022255E+00
  1.019850E+00
  1.017028E+00
  1.014192E+00
  1.011357E+00
  1.008428E+00
  1.004958E+00
  1.001490E+00
  9.980235E-01
  9.940146E-01
  9.896718E-01
  9.853318E-01
  9.807034E-01
  9.752618E-01
  9.698249E-01
  9.643086E-01
  9.577687E-01
  9.512352E-01
  9.446601E-01
  9.371330E-01
  9.296130E-01
  9.219330E-01
  9.134497E-01
  9.049735E-01
  8.960865E-01
  8.866705E-01
  8.772609E-01
  8.671249E-01
  8.568569E-01
  8.463032E-01
  8.352709E-01
  8.242189E-01
  8.124668E-01
  8.007182E-01
  7.884450E-01
  7.760484E-01
  7.633326E-01
  7.504761E-01
  7.374342E-01
  7.243073E-01
  7.110921E-01
  6.978524E-01
  6.846985E-01
  6.716310E-01
  6.588234E-01
  6.463788E-01
  6.342143E-01
  6.228380E-01
  6.120412E-01
  6.018735E-01
  5.926633E-01
  5.845627E-01
  5.776469E-01
  5.724379E-01
  5.700936E-01
  5.732332E-01
  5.873527E-01
  6.215976E-01
  6.898091E-01
  8.021055E-01
  8.884241E-01
  8.403058E-01
  9.470044E-01
  1.452581E-01
 -1.054102E-13
  9.761145E-01
  9.759797E-01
  9.758451E-01
  9.757104E-01
  9.755759E-01
  9.754414E-01
  9.753069E-01
  9.751725E-01
  9.750382E-01
  9.746503E-01
  9.742563E-01
  9.738623E-01
  9.734683E-01
  9.730743E-01
  9.726804E-01
  9.722866E-01
  9.717976E-01
  9.711342E-01
  9.704709E-01
  9.698075E-01
  9.691442E-01
  9.684809E-01
  9.678177E-01
  9.671196E-01
  9.661424E-01
  9.651652E-01
  9.641881E-01
  9.632110E-01
  9.622339E-01
  9.612568E-01
  9.602027E-01
  9.588923E-01
  9.575820E-01
  9.562717E-01
  9.549614E-01
  9.536511E-01
  9.523409E-01
  9.508038E-01
  9.491676E-01
  9.475314E-01
  9.458952E-01
  9.442592E-01
  9.426233E-01
  9.408414E-01
  9.389057E-01
  9.369702E-01
  9.350348E-01
  9.330995E-01
  9.311644E-01
  9.290689E-01
  9.268612E-01
  9.246537E-01
  9.224464E-01
  9.202393E-01
  9.180323E-01
  9.155790E-01
  9.131220E-01
  9.106652E-01
  9.082086E-01
  9.057522E-01
  9.031483E-01
  9.004690E-01
  8.977899E-01
  8.951109E-01
  8.924321E-01
  8.896267E-01
  8.867383E-01
  8.838501E-01
  8.809622E-01
  8.780744E-01
  8.750056E-01
  8.718917E-01
  8.687780E-01
  8.656645E-01
  8.624909E-01
  8.591217E-01
  8.557527E-01
  8.523839E-01
  8.490154E-01
  8.453938E-01
  8.417440E-01
  8.380945E-01
  8.344452E-01
  8.305621E-01
  8.266134E-01
  8.226650E-01
  8.187168E-01
  8.144953E-01
  8.102321E-01
  8.059694E-01
  8.016577E-01
  7.970666E-01
  7.924761E-01
  7.878862E-01
  7.830864E-01
  7.781572E-01
  7.732292E-01
  7.682101E-01
  7.629341E-01
  7.576599E-01
  7.523606E-01
  7.467340E-01
  7.411100E-01
  7.354710E-01
  7.294860E-01
  7.235037E-01
  7.174603E-01
  7.111094E-01
  7.047613E-01
  6.982520E-01
  6.915354E-01
  6.848211E-01
  6.778013E-01
  6.707258E-01
  6.635207E-01
  6.560986E-01
  6.486674E-01
  6.409137E-01
  6.331616E-01
  6.251504E-01
  6.170784E-01
  6.087859E-01
  6.003964E-01
  5.917771E-01
  5.830523E-01
  5.740568E-01
  5.649839E-01
  5.555831E-01
  5.460938E-01
  5.363625E-01
  5.264528E-01
  5.164122E-01
  5.061046E-01
  4.956371E-01
  4.850006E-01
  4.741224E-01
  4.629895E-01
  4.516404E-01
  4.401017E-01
  4.285099E-01
  4.172902E-01
  4.074310E-01
  4.005992E-01
  4.000468E-01
  4.090784E-01
  4.062662E-01
  3.661124E-01
  4.097346E-01
  1.649337E-01
 -3.900711E-03
  5.449782E-02
  5.449052E-02
  5.448322E-02
  5.447594E-02
  5.446866E-02
  5.446140E-02
  5.445415E-02
  5.444690E-02
  5.443967E-02
  5.442275E-02
  5.440560E-02
  5.438846E-02
  5.437133E-02
  5.435420E-02
  5.433708E-02
  5.431997E-02
  5.430385E-02
  5.428955E-02
  5.427526E-02
  5.426097E-02
  5.424667E-02
  5.423238E-02
  5.421809E-02
  5.420422E-02
  5.419373E-02
  5.418323E-02
  5.417273E-02
  5.416222E-02
  5.415172E-02
  5.414121E-02
  5.413084E-02
  5.412095E-02
  5.411106E-02
  5.410116E-02
  5.409126E-02
  5.408135E-02
  5.407144E-02
  5.406203E-02
  5.405284E-02
  5.404365E-02
  5.403446E-02
  5.402526E-02
  5.401606E-02
  5.400710E-02
  5.399840E-02
  5.398969E-02
  5.398099E-02
  5.397228E-02
  5.396357E-02
  5.395060E-02
  5.393464E-02
  5.391868E-02
  5.390271E-02
  5.388673E-02
  5.387074E-02
  5.383379E-02
  5.379649E-02
  5.375916E-02
  5.372181E-02
  5.368444E-02
  5.362693E-02
  5.355907E-02
  5.349117E-02
  5.342324E-02
  5.335528E-02
  5.326748E-02
  5.316666E-02
  5.306579E-02
  5.296487E-02
  5.286391E-02
  5.273609E-02
  5.260149E-02
  5.246684E-02
  5.233213E-02
  5.219005E-02
  5.202412E-02
  5.185813E-02
  5.169209E-02
  5.152599E-02
  5.133646E-02
  5.114425E-02
  5.095200E-02
  5.075969E-02
  5.055270E-02
  5.034155E-02
  5.013035E-02
  4.991911E-02
  4.969918E-02
  4.947789E-02
  4.925659E-02
  4.903476E-02
  4.881011E-02
  4.858548E-02
  4.836087E-02
  4.813434E-02
  4.790670E-02
  4.767915E-02
  4.745015E-02
  4.721704E-02
  4.698410E-02
  4.675079E-02
  4.651105E-02
  4.627153E-02
  4.603166E-02
  4.578068E-02
  4.552991E-02
  4.527649E-02
  4.500946E-02
  4.474259E-02
  4.446921E-02
  4.418743E-02
  4.390572E-02
  4.361627E-02
  4.332535E-02
  4.303347E-02
  4.273991E-02
  4.244637E-02
  4.215608E-02
  4.186559E-02
  4.158617E-02
  4.130914E-02
  4.104940E-02
  4.079707E-02
  4.056615E-02
  4.034484E-02
  4.015169E-02
  3.996635E-02
  3.982269E-02
  3.969287E-02
  3.960260E-02
  3.954989E-02
  3.952565E-02
  3.957200E-02
  3.966867E-02
  3.982062E-02
  4.005806E-02
  4.039820E-02
  4.084680E-02
  4.144148E-02
  4.225166E-02
  4.341670E-02
  4.520351E-02
  4.804504E-02
  5.268827E-02
  5.982309E-02
  6.602162E-02
  6.704007E-02
  8.028755E-02
  2.617742E-02
  8.407100E-03
  1.490206E-01
  1.490273E-01
  1.490339E-01
  1.490406E-01
  1.490472E-01
  1.490539E-01
  1.490606E-01
  1.490673E-01
  1.490741E-01
  1.490529E-01
  1.490311E-01
  1.490093E-01
  1.489875E-01
  1.489657E-01
  1.489439E-01
  1.489221E-01
  1.488712E-01
  1.487668E-01
  1.486624E-01
  1.485580E-01
  1.484536E-01
  1.483492E-01
  1.482449E-01
  1.481299E-01
  1.479301E-01
  1.477303E-01
  1.475305E-01
  1.473307E-01
  1.471309E-01
  1.469312E-01
  1.467074E-01
  1.464041E-01
  1.461009E-01
  1.457976E-01
  1.455014E-01
  1.451981E-01
  1.448948E-01
  1.445194E-01
  1.441123E-01
  1.437053E-01
  1.432982E-01
  1.428912E-01
  1.424842E-01
  1.420358E-01
  1.415435E-01
  1.410514E-01
  1.405592E-01
  1.400671E-01
  1.395750E-01
  1.390604E-01
  1.385301E-01
  1.379999E-01
  1.374697E-01
  1.369395E-01
  1.364094E-01
  1.358982E-01
  1.353873E-01
  1.348765E-01
  1.343657E-01
  1.338549E-01
  1.333794E-01
  1.329221E-01
  1.324647E-01
  1.320074E-01
  1.315502E-01
  1.311290E-01
  1.307315E-01
  1.303340E-01
  1.299366E-01
  1.295392E-01
  1.291853E-01
  1.288424E-01
  1.284996E-01
  1.281568E-01
  1.278245E-01
  1.275265E-01
  1.272285E-01
  1.269306E-01
  1.266327E-01
  1.263543E-01
  1.260781E-01
  1.258019E-01
  1.255258E-01
  1.252361E-01
  1.249427E-01
  1.246494E-01
  1.243561E-01
  1.240121E-01
  1.236662E-01
  1.233205E-01
  1.229633E-01
  1.225402E-01
  1.221173E-01
  1.216945E-01
  1.212056E-01
  1.206760E-01
  1.201467E-01
  1.195822E-01
  1.189186E-01
  1.182555E-01
  1.175828E-01
  1.167852E-01
  1.159884E-01
  1.151865E-01
  1.142685E-01
  1.133514E-01
  1.124148E-01
  1.113802E-01
  1.103465E-01
  1.092627E-01
  1.081144E-01
  1.069669E-01
  1.057309E-01
  1.044787E-01
  1.031918E-01
  1.018465E-01
  1.004988E-01
  9.906576E-02
  9.763316E-02
  9.613662E-02
  9.462505E-02
  9.307459E-02
  9.150700E-02
  8.991684E-02
  8.831634E-02
  8.670511E-02
  8.509089E-02
  8.348719E-02
  8.189403E-02
  8.033257E-02
  7.881537E-02
  7.733233E-02
  7.594538E-02
  7.462909E-02
  7.338948E-02
  7.226659E-02
  7.127898E-02
  7.043579E-02
  6.980064E-02
  6.951472E-02
  6.989742E-02
  7.161888E-02
  7.579423E-02
  8.411113E-02
  9.780323E-02
  1.083275E-01
  1.024593E-01
  1.154679E-01
  2.432805E-02
 -3.126395E-09
  9.762599E-01
  9.761252E-01
  9.759905E-01
  9.758559E-01
  9.757214E-01
  9.755869E-01
  9.754525E-01
  9.753182E-01
  9.751839E-01
  9.747962E-01
  9.744022E-01
  9.740083E-01
  9.736145E-01
  9.732206E-01
  9.728268E-01
  9.724331E-01
  9.719443E-01
  9.712812E-01
  9.706181E-01
  9.699551E-01
  9.692921E-01
  9.686291E-01
  9.679661E-01
  9.672683E-01
  9.662916E-01