 Title = "ADflow Slice Data"
Variables =  "CoordinateX"  "CoordinateY"  "CoordinateZ"  "XoC"  "YoC"  "ZoC" "VelocityX" "VelocityY" "VelocityZ" "CoefPressure" "Mach" 
Zone T= "Slice_0001 None Relative Regular z = 0.10000000"
 Nodes =          114  Elements=          106  ZONETYPE=FELINESEG
 DATAPACKING=POINT
  7.301402E-01  5.132058E-02  1.000000E-01  7.450328E-01  5.065281E-02  1.416119E-17  2.645206E-02 -3.989956E-03 -6.918707E-05 -3.321441E-01  0.000000E+00
  7.043967E-01  5.510108E-02  1.000000E-01  7.187635E-01  5.451051E-02 -4.248358E-17  2.771532E-02 -3.954255E-03 -6.982827E-05 -3.647175E-01  0.000000E+00
  6.775455E-01  5.881877E-02  1.000000E-01  6.913640E-01  5.830412E-02  3.965134E-16  2.896750E-02 -3.882330E-03 -7.015775E-05 -3.976988E-01  0.000000E+00
  6.496792E-01  6.242898E-02  1.000000E-01  6.629286E-01  6.198805E-02  4.248358E-17  3.021225E-02 -3.772965E-03 -7.011964E-05 -4.310417E-01  0.000000E+00
  6.209097E-01  6.588671E-02  1.000000E-01  6.335716E-01  6.551639E-02 -2.832239E-17  3.146034E-02 -3.622979E-03 -6.969588E-05 -4.641943E-01  0.000000E+00
  5.913667E-01  6.913997E-02  1.000000E-01  6.034253E-01  6.883609E-02 -2.832239E-17  3.272459E-02 -3.436332E-03 -6.889830E-05 -4.972752E-01  0.000000E+00
  5.611982E-01  7.215307E-02  1.000000E-01  5.726408E-01  7.191072E-02  0.000000E+00  3.403587E-02 -3.217788E-03 -6.776936E-05 -5.312019E-01  0.000000E+00
  5.305654E-01  7.488505E-02  1.000000E-01  5.413823E-01  7.469850E-02 -5.664477E-17  3.544996E-02 -2.964538E-03 -6.636836E-05 -5.674758E-01  0.000000E+00
  4.996398E-01  7.729844E-02  1.000000E-01  5.098252E-01  7.716118E-02  0.000000E+00  3.703431E-02 -2.659551E-03 -6.474810E-05 -6.073291E-01  0.000000E+00
  4.685986E-01  7.933455E-02  1.000000E-01  4.781501E-01  7.923886E-02  1.416119E-17  3.883648E-02 -2.263515E-03 -6.295134E-05 -6.496626E-01  0.000000E+00
  4.376215E-01  8.091537E-02  1.000000E-01  4.465404E-01  8.085197E-02 -8.496716E-17  4.082318E-02 -1.735678E-03 -6.097990E-05 -6.910825E-01  0.000000E+00
  4.068895E-01  8.196390E-02  1.000000E-01  4.151808E-01  8.192191E-02  0.000000E+00  4.286356E-02 -1.050675E-03 -5.881475E-05 -7.262015E-01  0.000000E+00
  3.765814E-01  8.241956E-02  1.000000E-01  3.842538E-01  8.238687E-02 -5.664477E-17  4.475348E-02 -2.271643E-04 -5.643085E-05 -7.506170E-01  0.000000E+00
  3.468696E-01  8.227555E-02  1.000000E-01  3.539352E-01  8.223992E-02 -5.664477E-17  4.630390E-02  6.656207E-04 -5.381487E-05 -7.642559E-01  0.000000E+00
  3.179133E-01  8.157976E-02  1.000000E-01  3.243876E-01  8.152992E-02 -2.832239E-17  4.745977E-02  1.548398E-03 -5.099116E-05 -7.718393E-01  0.000000E+00
  2.898519E-01  8.041540E-02  1.000000E-01  2.957531E-01  8.034178E-02 -4.248358E-17  4.835510E-02  2.394462E-03 -4.802836E-05 -7.800002E-01  0.000000E+00
  2.628044E-01  7.884918E-02  1.000000E-01  2.681533E-01  7.874358E-02  0.000000E+00  4.923982E-02  3.243688E-03 -4.499055E-05 -7.937938E-01  0.000000E+00
  9.800000E-01  4.744662E-03  1.000000E-01  9.999951E-01  3.125735E-03 -2.832239E-17  1.108378E-02 -1.095221E-02 -6.240791E-05 -2.830096E-02  0.000000E+00
  9.720124E-01  6.450893E-03  1.000000E-01  9.918444E-01  4.866810E-03 -2.832239E-17  1.430195E-02 -3.136566E-03 -6.527708E-05  9.224268E-02  0.000000E+00
  9.632634E-01  8.342943E-03  1.000000E-01  9.829168E-01  6.797499E-03 -2.832239E-17  1.275040E-02 -2.703439E-03 -5.821716E-05  4.554689E-02  0.000000E+00
  9.536907E-01  1.040882E-02  1.000000E-01  9.731486E-01  8.905567E-03 -2.832239E-17  1.170415E-02 -2.514007E-03 -5.299889E-05  2.647677E-02  0.000000E+00
  9.432303E-01  1.263291E-02  1.000000E-01  9.624745E-01  1.117508E-02  1.416119E-17  1.164463E-02 -2.458782E-03 -5.104777E-05  6.522289E-03  0.000000E+00
  9.318220E-01  1.501979E-02  1.000000E-01  9.508332E-01  1.361070E-02  1.416119E-17  1.238946E-02 -2.571538E-03 -5.146444E-05 -1.741597E-02  0.000000E+00
  9.194070E-01  1.757473E-02  1.000000E-01  9.381647E-01  1.621781E-02 -8.496716E-17  1.358091E-02 -2.771084E-03 -5.318336E-05 -4.179317E-02  0.000000E+00
  9.059278E-01  2.029913E-02  1.000000E-01  9.244102E-01  1.899785E-02 -5.664477E-17  1.492960E-02 -2.989343E-03 -5.544644E-05 -6.655165E-02  0.000000E+00
  8.913299E-01  2.319169E-02  1.000000E-01  9.095142E-01  2.194948E-02  0.000000E+00  1.628516E-02 -3.196359E-03 -5.776019E-05 -9.227422E-02  0.000000E+00
  8.755643E-01  2.625331E-02  1.000000E-01  8.934267E-01  2.507362E-02 -2.832239E-17  1.759617E-02 -3.383140E-03 -5.984824E-05 -1.192791E-01  0.000000E+00
  8.585885E-01  2.948116E-02  1.000000E-01  8.761042E-01  2.836739E-02  4.106746E-16  1.886831E-02 -3.546072E-03 -6.165124E-05 -1.473785E-01  0.000000E+00
  8.403666E-01  3.286264E-02  1.000000E-01  8.575102E-01  3.181793E-02  3.965134E-16  2.012423E-02 -3.684054E-03 -6.323570E-05 -1.762394E-01  0.000000E+00
  8.208730E-01  3.637965E-02  1.000000E-01  8.376185E-01  3.540676E-02 -8.496716E-17  2.137867E-02 -3.798881E-03 -6.467522E-05 -2.058950E-01  0.000000E+00
  8.000947E-01  4.001264E-02  1.000000E-01  8.164159E-01  3.911394E-02 -2.832239E-17  2.263846E-02 -3.890774E-03 -6.600472E-05 -2.364768E-01  0.000000E+00
  7.780326E-01  4.373627E-02  1.000000E-01  7.939032E-01  4.291361E-02 -2.832239E-17  2.390599E-02 -3.956428E-03 -6.722125E-05 -2.679261E-01  0.000000E+00
  7.547032E-01  4.751884E-02  1.000000E-01  7.700974E-01  4.677343E-02  4.389970E-16  2.517956E-02 -3.990583E-03 -6.829755E-05 -2.999038E-01  0.000000E+00
  7.301402E-01  5.132058E-02  1.000000E-01  7.450328E-01  5.065281E-02  2.832239E-17  2.645206E-02 -3.989956E-03 -6.918707E-05 -3.321441E-01  0.000000E+00
  2.444131E-01 -2.225223E-02  1.000000E-01  2.493864E-01 -2.442248E-02  3.681910E-16  3.053390E-02  8.741735E-04  3.950333E-05 -6.871720E-02  0.000000E+00
  2.700250E-01 -2.143427E-02  1.000000E-01  2.755214E-01 -2.358781E-02 -4.248358E-17  3.047033E-02  1.062575E-03  4.079579E-05 -6.156420E-02  0.000000E+00
  2.967058E-01 -2.043223E-02  1.000000E-01  3.027470E-01 -2.256531E-02 -2.832239E-17  3.044223E-02  1.284810E-03  4.207401E-05 -5.895922E-02  0.000000E+00
  3.243554E-01 -1.914330E-02  1.000000E-01  3.309612E-01 -2.125005E-02  4.248358E-16  3.008721E-02  1.597273E-03  4.323676E-05 -5.928161E-02  0.000000E+00
  3.528511E-01 -1.744801E-02  1.000000E-01  3.600389E-01 -1.952014E-02 -4.248358E-17  2.903171E-02  1.980313E-03  4.415147E-05 -5.549572E-02  0.000000E+00
  3.820469E-01 -1.519436E-02  1.000000E-01  3.898309E-01 -1.722047E-02  5.664477E-17  2.704068E-02  2.373498E-03  4.464365E-05 -4.123602E-02  0.000000E+00
  4.117740E-01 -1.224577E-02  1.000000E-01  4.201651E-01 -1.421166E-02 -5.664477E-17  2.421586E-02  2.679689E-03  4.460525E-05 -1.159691E-02  0.000000E+00
  4.418498E-01 -8.534081E-03  1.000000E-01  4.508550E-01 -1.042418E-02 -2.832239E-17  2.106947E-02  2.785705E-03  4.413774E-05  3.401801E-02  0.000000E+00
  4.721105E-01 -4.222507E-03  1.000000E-01  4.817338E-01 -6.024557E-03 -5.664477E-17  1.846321E-02  2.547090E-03  4.374220E-05  1.012815E-01  0.000000E+00
  5.024968E-01 -1.888701E-04  1.000000E-01  5.127406E-01 -1.908547E-03  1.416119E-17  1.690567E-02  2.085028E-03  4.372458E-05  1.694049E-01  0.000000E+00
  5.328693E-01  3.224009E-03  1.000000E-01  5.437333E-01  1.574029E-03 -4.248358E-17  1.618438E-02  1.693660E-03  4.397218E-05  2.057872E-01  0.000000E+00
  5.630297E-01  6.126719E-03  1.000000E-01  5.745097E-01  4.536016E-03  1.416119E-17  1.589901E-02  1.436725E-03  4.443310E-05  2.192458E-01  0.000000E+00
  5.927917E-01  8.636313E-03  1.000000E-01  6.048794E-01  7.096859E-03  5.664477E-17  1.574101E-02  1.267143E-03  4.496567E-05  2.291288E-01  0.000000E+00
  6.219828E-01  1.086678E-02  1.000000E-01  6.346667E-01  9.372877E-03 -4.248358E-17  1.554056E-02  1.135986E-03  4.534975E-05  2.414264E-01  0.000000E+00
  6.504533E-01  1.284395E-02  1.000000E-01  6.637186E-01  1.139042E-02  5.664477E-17  1.527208E-02  9.962073E-04  4.550364E-05  2.563463E-01  0.000000E+00
  6.780742E-01  1.451776E-02  1.000000E-01  6.919035E-01  1.309842E-02  4.531582E-16  1.498808E-02  8.310831E-04  4.547199E-05  2.716442E-01  0.000000E+00
  7.047326E-01  1.584654E-02  1.000000E-01  7.191063E-01  1.445433E-02  0.000000E+00  1.476112E-02  6.456466E-04  4.535618E-05  2.850488E-01  0.000000E+00
  1.215943E-04  1.336163E-03  1.000000E-01  1.060951E-04 -3.523702E-04 -5.664477E-17  2.186069E-02 -4.568181E-02  3.882526E-05  1.080876E+00  0.000000E+00
  4.902502E-03 -4.676959E-03  1.000000E-01  4.984636E-03 -6.488290E-03 -8.496716E-17  4.028300E-02 -3.464977E-02  2.443671E-05  7.047861E-01  0.000000E+00
  1.254908E-02 -8.861778E-03  1.000000E-01  1.278737E-02 -1.075857E-02 -2.832239E-17  4.236401E-02 -1.917633E-02  1.916970E-05  1.116814E-01  0.000000E+00
  2.163699E-02 -1.188402E-02  1.000000E-01  2.206087E-02 -1.384253E-02  1.416119E-17  3.784181E-02 -1.077838E-02  1.949965E-05 -3.512754E-02  0.000000E+00
  3.184423E-02 -1.425575E-02  1.000000E-01  3.247655E-02 -1.626269E-02 -2.832239E-17  3.536414E-02 -7.095631E-03  2.170030E-05 -1.630014E-02  0.000000E+00
  4.311596E-02 -1.617710E-02  1.000000E-01  4.397847E-02 -1.822328E-02 -8.496716E-17  3.444713E-02 -5.038323E-03  2.374097E-05 -2.662340E-02  0.000000E+00
  5.546913E-02 -1.768519E-02  1.000000E-01  5.658391E-02 -1.976217E-02  1.416119E-17  3.387475E-02 -3.713427E-03  2.553567E-05 -4.842761E-02  0.000000E+00
  6.891473E-02 -1.898599E-02  1.000000E-01  7.030409E-02 -2.108953E-02 -8.496716E-17  3.363144E-02 -2.996406E-03  2.727884E-05 -5.029142E-02  0.000000E+00
  8.348882E-02 -2.017839E-02  1.000000E-01  8.517581E-02 -2.230628E-02  5.664477E-17  3.364411E-02 -2.510043E-03  2.890444E-05 -5.364550E-02  0.000000E+00
  9.923792E-02 -2.124718E-02  1.000000E-01  1.012465E-01 -2.339690E-02 -9.912835E-17  3.366334E-02 -2.007358E-03  3.040716E-05 -6.797045E-02  0.000000E+00
  1.162051E-01 -2.212284E-02  1.000000E-01  1.185602E-01 -2.429044E-02 -8.496716E-17  3.353518E-02 -1.471325E-03  3.185713E-05 -8.279404E-02  0.000000E+00
  1.344203E-01 -2.278262E-02  1.000000E-01  1.371474E-01 -2.496370E-02 -8.496716E-17  3.322325E-02 -9.593845E-04  3.326884E-05 -9.002458E-02  0.000000E+00
  1.539027E-01 -2.320497E-02  1.000000E-01  1.570277E-01 -2.539467E-02  4.389970E-16  3.270917E-02 -4.725395E-04  3.459606E-05 -9.218078E-02  0.000000E+00
  1.746592E-01 -2.335672E-02  1.000000E-01  1.782080E-01 -2.554952E-02  3.257074E-16  3.205194E-02 -3.207870E-05  3.584394E-05 -9.043821E-02  0.000000E+00
  1.966815E-01 -2.324096E-02  1.000000E-01  2.006800E-01 -2.543140E-02 -2.832239E-17  3.138453E-02  3.358373E-04  3.705502E-05 -8.458486E-02  0.000000E+00
  2.199461E-01 -2.286780E-02  1.000000E-01  2.244198E-01 -2.505061E-02 -4.248358E-17  3.084173E-02  6.375002E-04  3.826203E-05 -7.683413E-02  0.000000E+00
  2.444131E-01 -2.225223E-02  1.000000E-01  2.493864E-01 -2.442248E-02  3.823522E-16  3.053390E-02  8.741735E-04  3.950333E-05 -6.871720E-02  0.000000E+00
  7.047326E-01  1.584654E-02  1.000000E-01  7.191063E-01  1.445433E-02 -2.832239E-17  1.476112E-02  6.456466E-04  4.535618E-05  2.850488E-01  0.000000E+00
  7.303325E-01  1.679930E-02  1.000000E-01  7.452290E-01  1.542655E-02 -2.832239E-17  1.466773E-02  4.439054E-04  4.527422E-05  2.957623E-01  0.000000E+00
  7.547951E-01  1.736182E-02  1.000000E-01  7.701912E-01  1.600055E-02  4.389970E-16  1.478826E-02  2.195039E-04  4.534076E-05  3.037142E-01  0.000000E+00
  7.780600E-01  1.751351E-02  1.000000E-01  7.939312E-01  1.615534E-02  1.416119E-17  1.519353E-02 -4.027954E-05  4.565138E-05  3.082785E-01  0.000000E+00
  8.000833E-01  1.725398E-02  1.000000E-01  8.164042E-01  1.589051E-02 -4.248358E-17  1.591301E-02 -3.462861E-04  4.625475E-05  3.085234E-01  0.000000E+00
  8.208376E-01  1.660039E-02  1.000000E-01  8.375824E-01  1.522358E-02 -2.832239E-17  1.689094E-02 -6.820454E-04  4.709540E-05  3.033050E-01  0.000000E+00
  8.403144E-01  1.564530E-02  1.000000E-01  8.574570E-01  1.424898E-02  4.389970E-16  1.796777E-02 -9.874751E-04  4.799370E-05  2.917748E-01  0.000000E+00
  8.585258E-01  1.453784E-02  1.000000E-01  8.760402E-01  1.311891E-02  3.965134E-16  1.894215E-02 -1.204291E-03  4.873372E-05  2.764639E-01  0.000000E+00
  8.754993E-01  1.340999E-02  1.000000E-01  8.933604E-01  1.196802E-02 -2.832239E-17  1.966703E-02 -1.322025E-03  4.913910E-05  2.616670E-01  0.000000E+00
  8.912718E-01  1.233499E-02  1.000000E-01  9.094550E-01  1.087107E-02 -2.832239E-17  2.012952E-02 -1.399358E-03  4.914063E-05  2.510893E-01  0.000000E+00
  9.058836E-01  1.129740E-02  1.000000E-01  9.243651E-01  9.812289E-03 -4.248358E-17  2.045573E-02 -1.514390E-03  4.881034E-05  2.453023E-01  0.000000E+00
  9.193796E-01  1.025448E-02  1.000000E-01  9.381368E-01  8.748071E-03 -5.664477E-17  2.082647E-02 -1.684351E-03  4.837467E-05  2.396915E-01  0.000000E+00
  9.318118E-01  9.201727E-03  1.000000E-01  9.508228E-01  7.673820E-03  4.248358E-17  2.141859E-02 -1.911709E-03  4.828181E-05  2.316729E-01  0.000000E+00
  9.432349E-01  8.130048E-03  1.000000E-01  9.624792E-01  6.580256E-03 -2.832239E-17  2.227123E-02 -2.206811E-03  4.888969E-05  2.220744E-01  0.000000E+00
  9.537058E-01  7.036736E-03  1.000000E-01  9.731640E-01  5.464617E-03  0.000000E+00  2.289534E-02 -2.513958E-03  4.955969E-05  2.064156E-01  0.000000E+00
  9.632829E-01  5.924734E-03  1.000000E-01  9.829366E-01  4.329906E-03 -2.832239E-17  2.206638E-02 -2.712494E-03  4.812804E-05  1.822379E-01  0.000000E+00
  9.720275E-01  4.826402E-03  1.000000E-01  9.918599E-01  3.209144E-03  0.000000E+00  1.910436E-02 -2.406804E-03  4.297376E-05  1.893223E-01  0.000000E+00
  9.800000E-01  3.764113E-03  1.000000E-01  9.999951E-01  2.125162E-03  1.416119E-17  1.272638E-02  4.599533E-03  2.823764E-05  6.262338E-03  0.000000E+00
  1.215943E-04  2.016835E-03  1.000000E-01  1.060951E-04  3.422015E-04 -9.912835E-17  3.139207E-02  7.433327E-02  3.382358E-05  9.792768E-01  0.000000E+00
  7.278129E-05  1.905724E-03  1.000000E-01  5.628520E-05  2.288215E-04  1.416119E-17  2.212154E-02  8.081102E-02  6.446448E-05  9.780079E-01  0.000000E+00
  1.762252E-05  1.681482E-03  1.000000E-01  0.000000E+00  0.000000E+00  0.000000E+00  1.365334E-02  3.194262E-02  8.277565E-05  1.071211E+00  0.000000E+00
  8.694958E-05  1.451274E-03  1.000000E-01  7.074282E-05 -2.349084E-04  0.000000E+00  7.508755E-03 -3.062622E-02  6.549627E-05  1.049668E+00  0.000000E+00
  1.215943E-04  1.336163E-03  1.000000E-01  1.060951E-04 -3.523702E-04 -4.248358E-17  2.186069E-02 -4.568181E-02  3.882526E-05  1.080876E+00  0.000000E+00
  9.800000E-01  3.764113E-03  1.000000E-01  9.999951E-01  2.125162E-03  0.000000E+00  1.272638E-02  4.599533E-03  2.823764E-05  6.262338E-03  0.000000E+00
  9.800000E-01  3.927538E-03  1.000000E-01  9.999951E-01  2.291924E-03  0.000000E+00  3.946629E-03  5.295911E-04  3.431772E-06 -1.688903E-01  0.000000E+00
  9.800000E-01  4.254387E-03  1.000000E-01  9.999951E-01  2.625449E-03 -2.832239E-17 -4.897989E-04 -1.015209E-02 -2.413955E-05 -1.364746E-01  0.000000E+00
  9.800000E-01  4.581237E-03  1.000000E-01  9.999951E-01  2.958973E-03 -5.664477E-17  3.275046E-03 -1.428175E-02 -4.703539E-05 -1.587141E-01  0.000000E+00
  9.800000E-01  4.744662E-03  1.000000E-01  9.999951E-01  3.125735E-03  0.000000E+00  1.108378E-02 -1.095221E-02 -6.240791E-05 -2.830096E-02  0.000000E+00
  2.628044E-01  7.884918E-02  1.000000E-01  2.681533E-01  7.874358E-02 -2.832239E-17  4.923982E-02  3.243688E-03 -4.499055E-05 -7.937938E-01  0.000000E+00
  2.368706E-01  7.692520E-02  1.000000E-01  2.416899E-01  7.678031E-02  3.681910E-16  5.037264E-02  4.216072E-03 -4.194626E-05 -8.113705E-01  0.000000E+00
  2.121362E-01  7.461378E-02  1.000000E-01  2.164504E-01  7.442169E-02  1.416119E-17  5.183133E-02  5.410838E-03 -3.890862E-05 -8.272252E-01  0.000000E+00
  1.886687E-01  7.190265E-02  1.000000E-01  1.925036E-01  7.165519E-02 -4.248358E-17  5.347232E-02  6.838786E-03 -3.581739E-05 -8.371748E-01  0.000000E+00
  1.665185E-01  6.879216E-02  1.000000E-01  1.699010E-01  6.848118E-02  4.814806E-16  5.508369E-02  8.473579E-03 -3.263791E-05 -8.379408E-01  0.000000E+00
  1.457161E-01  6.530894E-02  1.000000E-01  1.486739E-01  6.492683E-02  4.531582E-16  5.649331E-02  1.027756E-02 -2.937685E-05 -8.284380E-01  0.000000E+00
  1.262764E-01  6.148547E-02  1.000000E-01  1.288372E-01  6.102528E-02  0.000000E+00  5.762103E-02  1.223197E-02 -2.606054E-05 -8.104301E-01  0.000000E+00
  1.081990E-01  5.735799E-02  1.000000E-01  1.103906E-01  5.681350E-02  0.000000E+00  5.842529E-02  1.431731E-02 -2.267117E-05 -7.891397E-01  0.000000E+00
  9.146971E-02  5.296929E-02  1.000000E-01  9.331968E-02  5.233519E-02  0.000000E+00  5.893124E-02  1.665938E-02 -1.922979E-05 -7.610955E-01  0.000000E+00
  7.608258E-02  4.829802E-02  1.000000E-01  7.761832E-02  4.756852E-02  0.000000E+00  5.905656E-02  1.940779E-02 -1.581249E-05 -7.111532E-01  0.000000E+00
  6.202881E-02  4.331920E-02  1.000000E-01  6.327755E-02  4.248802E-02 -5.664477E-17  5.848272E-02  2.245814E-02 -1.250071E-05 -6.229062E-01  0.000000E+00
  4.929579E-02  3.803792E-02  1.000000E-01  5.028450E-02  3.709889E-02 -8.496716E-17  5.686349E-02  2.533270E-02 -9.353412E-06 -4.954531E-01  0.000000E+00
  3.782553E-02  3.255810E-02  1.000000E-01  3.858001E-02  3.150717E-02  4.248358E-17  5.427179E-02  2.779604E-02 -6.449265E-06 -3.442342E-01  0.000000E+00
  2.757469E-02  2.692781E-02  1.000000E-01  2.811983E-02  2.576190E-02 -2.832239E-17  5.125097E-02  3.006368E-02 -3.676046E-06 -2.143668E-01  0.000000E+00
  1.848362E-02  2.122076E-02  1.000000E-01  1.884310E-02  1.993830E-02  5.664477E-17  4.897557E-02  3.382384E-02 -4.295486E-07 -1.101955E-01  0.000000E+00
  1.064273E-02  1.529884E-02  1.000000E-01  1.084209E-02  1.389545E-02  1.416119E-17  4.797036E-02  4.208438E-02  4.997979E-06  1.184962E-01  0.000000E+00
  4.262692E-03  8.991782E-03  1.000000E-01  4.331760E-03  7.459588E-03  1.416119E-17  4.332793E-02  5.636278E-02  1.526743E-05  6.802728E-01  0.000000E+00
  1.215943E-04  2.016835E-03  1.000000E-01  1.060951E-04  3.422015E-04 -8.496716E-17  3.139207E-02  7.433327E-02  3.382358E-05  9.792768E-01  0.000000E+00
    1    2
    2    3
    3    4
    4    5
    5    6
    6    7
    7    8
    8    9
    9   10
   10   11
   11   12
   12   13
   13   14
   14   15
   15   16
   16   17
   18   19
   19   20
   20   21
   21   22
   22   23
   23   24
   24   25
   25   26
   26   27
   27   28
   28   29
   29   30
   30   31
   31   32
   32   33
   33   34
   35   36
   36   37
   37   38
   38   39
   39   40
   40   41
   41   42
   42   43
   43   44
   44   45
   45   46
   46   47
   47   48
   48   49
   49   50
   50   51
   52   53
   53   54
   54   55
   55   56
   56   57
   57   58
   58   59
   59   60
   60   61
   61   62
   62   63
   63   64
   64   65
   65   66
   66   67
   67   68
   69   70
   70   71
   71   72
   72   73
   73   74
   74   75
   75   76
   76   77
   77   78
   78   79
   79   80
   80   81
   81   82
   82   83
   83   84
   84   85
   85   86
   87   88
   88   89
   89   90
   90   91
   92   93
   93   94
   94   95
   95   96
   97   98
   98   99
   99  100
  100  101
  101  102
  102  103
  103  104
  104  105
  105  106
  106  107
  107  108
  108  109
  109  110
  110  111
  111  112
  112  113
  113  114
Zone T= "Slice_0002 None Relative Regular z = 0.36666667"
 Nodes =          114  Elements=          106  ZONETYPE=FELINESEG
 DATAPACKING=POINT
  7.301402E-01  5.135049E-02  3.666667E-01  7.450327E-01  5.068332E-02 -5.664477E-17  2.666676E-02 -4.018524E-03 -2.228857E-04 -3.307556E-01  0.000000E+00
  7.043967E-01  5.512674E-02  3.666667E-01  7.187635E-01  5.453668E-02 -1.132895E-16  2.793416E-02 -3.981130E-03 -2.240819E-04 -3.631312E-01  0.000000E+00
  6.775455E-01  5.883974E-02  3.666667E-01  6.913639E-01  5.832551E-02  3.058817E-14  2.918987E-02 -3.907513E-03 -2.243657E-04 -3.958987E-01  0.000000E+00
  6.496792E-01  6.244516E-02  3.666667E-01  6.629286E-01  6.200456E-02 -1.699343E-16  3.043824E-02 -3.796709E-03 -2.236397E-04 -4.290346E-01  0.000000E+00
  6.209097E-01  6.589855E-02  3.666667E-01  6.335716E-01  6.552847E-02  0.000000E+00  3.169147E-02 -3.645636E-03 -2.218957E-04 -4.620048E-01  0.000000E+00
  5.913667E-01  6.914817E-02  3.666667E-01  6.034253E-01  6.884446E-02  1.132895E-16  3.296397E-02 -3.458186E-03 -2.191734E-04 -4.949273E-01  0.000000E+00
  5.611982E-01  7.215839E-02  3.666667E-01  5.726407E-01  7.191615E-02  2.265791E-16  3.428756E-02 -3.239003E-03 -2.155715E-04 -5.287153E-01  0.000000E+00
  5.305654E-01  7.488822E-02  3.666667E-01  5.413823E-01  7.470172E-02  1.132895E-16  3.571810E-02 -2.985069E-03 -2.112224E-04 -5.648650E-01  0.000000E+00
  4.996398E-01  7.730012E-02  3.666667E-01  5.098251E-01  7.716288E-02 -1.699343E-16  3.732235E-02 -2.678981E-03 -2.062341E-04 -6.046011E-01  0.000000E+00
  4.685986E-01  7.933531E-02  3.666667E-01  4.781500E-01  7.923963E-02  1.132895E-16  3.914646E-02 -2.280877E-03 -2.006883E-04 -6.468201E-01  0.000000E+00
  4.376215E-01  8.091564E-02  3.666667E-01  4.465404E-01  8.085223E-02 -5.664477E-17  4.115499E-02 -1.749518E-03 -1.945507E-04 -6.881306E-01  0.000000E+00
  4.068895E-01  8.196396E-02  3.666667E-01  4.151808E-01  8.192196E-02 -5.664477E-17  4.321500E-02 -1.059319E-03 -1.877378E-04 -7.231532E-01  0.000000E+00
  3.765814E-01  8.241956E-02  3.666667E-01  3.842537E-01  8.238686E-02  5.664477E-17  4.512073E-02 -2.292049E-04 -1.801651E-04 -7.474937E-01  0.000000E+00
  3.468696E-01  8.227555E-02  3.666667E-01  3.539352E-01  8.223991E-02 -5.664477E-17  4.668215E-02  6.708506E-04 -1.718026E-04 -7.610800E-01  0.000000E+00
  3.179133E-01  8.157976E-02  3.666667E-01  3.243876E-01  8.152992E-02  0.000000E+00  4.784465E-02  1.560763E-03 -1.627521E-04 -7.686224E-01  0.000000E+00
  2.898519E-01  8.041540E-02  3.666667E-01  2.957531E-01  8.034177E-02  5.664477E-17  4.874444E-02  2.413570E-03 -1.532585E-04 -7.767347E-01  0.000000E+00
  2.628044E-01  7.884918E-02  3.666667E-01  2.681533E-01  7.874357E-02  5.664477E-17  4.963348E-02  3.269455E-03 -1.435513E-04 -7.904566E-01  0.000000E+00
  9.800000E-01  4.776033E-03  3.666667E-01  9.999950E-01  3.157747E-03  5.664477E-17  1.109615E-02 -1.091983E-02 -2.145883E-04 -2.969391E-02  0.000000E+00
  9.720124E-01  6.483606E-03  3.666667E-01  9.918443E-01  4.900191E-03  0.000000E+00  1.432222E-02 -3.143232E-03 -2.186864E-04  9.217955E-02  0.000000E+00
  9.632634E-01  8.377008E-03  3.666667E-01  9.829167E-01  6.832259E-03  1.132895E-16  1.281360E-02 -2.718694E-03 -1.947136E-04  4.549402E-02  0.000000E+00
  9.536907E-01  1.044423E-02  3.666667E-01  9.731485E-01  8.941695E-03 -5.664477E-17  1.180415E-02 -2.536840E-03 -1.771775E-04  2.648045E-02  0.000000E+00
  9.432303E-01  1.266962E-02  3.666667E-01  9.624744E-01  1.121254E-02 -1.699343E-16  1.176105E-02 -2.484591E-03 -1.703282E-04  6.599362E-03  0.000000E+00
  9.318220E-01  1.505774E-02  3.666667E-01  9.508331E-01  1.364942E-02 -5.664477E-17  1.251427E-02 -2.598555E-03 -1.713068E-04 -1.727154E-02  0.000000E+00
  9.194070E-01  1.761380E-02  3.666667E-01  9.381646E-01  1.625768E-02  0.000000E+00  1.371777E-02 -2.799984E-03 -1.766497E-04 -4.157143E-02  0.000000E+00
  9.059278E-01  2.033916E-02  3.666667E-01  9.244101E-01  1.903869E-02 -1.132895E-16  1.508249E-02 -3.020736E-03 -1.838120E-04 -6.624836E-02  0.000000E+00
  8.913299E-01  2.323245E-02  3.666667E-01  9.095141E-01  2.199107E-02  0.000000E+00  1.645201E-02 -3.229632E-03 -1.910821E-04 -9.188631E-02  0.000000E+00
  8.755643E-01  2.629452E-02  3.666667E-01  8.934266E-01  2.511567E-02 -1.132895E-16  1.777218E-02 -3.417186E-03 -1.975096E-04 -1.188009E-01  0.000000E+00
  8.585885E-01  2.952246E-02  3.666667E-01  8.761041E-01  2.840953E-02  3.098469E-14  1.905049E-02 -3.580120E-03 -2.029058E-04 -1.468033E-01  0.000000E+00
  8.403666E-01  3.290358E-02  3.666667E-01  8.575101E-01  3.185970E-02  3.098469E-14  2.031175E-02 -3.717724E-03 -2.075001E-04 -1.755597E-01  0.000000E+00
  8.208730E-01  3.641970E-02  3.666667E-01  8.376185E-01  3.544763E-02 -5.664477E-17  2.157167E-02 -3.831972E-03 -2.115380E-04 -2.051015E-01  0.000000E+00
  8.000947E-01  4.005120E-02  3.666667E-01  8.164158E-01  3.915329E-02 -5.664477E-17  2.283714E-02 -3.923104E-03 -2.151335E-04 -2.355582E-01  0.000000E+00
  7.780326E-01  4.377266E-02  3.666667E-01  7.939032E-01  4.295075E-02 -1.132895E-16  2.411036E-02 -3.987772E-03 -2.182804E-04 -2.668684E-01  0.000000E+00
  7.547032E-01  4.755236E-02  3.666667E-01  7.700973E-01  4.680762E-02  3.075811E-14  2.538937E-02 -4.020672E-03 -2.209041E-04 -2.986906E-01  0.000000E+00
  7.301402E-01  5.135049E-02  3.666667E-01  7.450327E-01  5.068332E-02 -5.664477E-17  2.666676E-02 -4.018524E-03 -2.228857E-04 -3.307556E-01  0.000000E+00
  2.444131E-01 -2.225223E-02  3.666667E-01  2.493863E-01 -2.442248E-02  3.092804E-14  3.078739E-02  8.813733E-04  1.281846E-04 -7.043363E-02  0.000000E+00
  2.700250E-01 -2.143427E-02  3.666667E-01  2.755213E-01 -2.358781E-02  5.664477E-17  3.072221E-02  1.071298E-03  1.325712E-04 -6.320793E-02  0.000000E+00
  2.967058E-01 -2.043223E-02  3.666667E-01  3.027470E-01 -2.256531E-02 -5.664477E-17  3.069307E-02  1.295334E-03  1.369422E-04 -6.053378E-02  0.000000E+00
  3.243554E-01 -1.914330E-02  3.666667E-01  3.309612E-01 -2.125005E-02  3.070146E-14  3.033224E-02  1.610208E-03  1.409424E-04 -6.079203E-02  0.000000E+00
  3.528511E-01 -1.744801E-02  3.666667E-01  3.600389E-01 -1.952014E-02 -5.664477E-17  2.926355E-02  1.996040E-03  1.440990E-04 -5.694347E-02  0.000000E+00
  3.820469E-01 -1.519435E-02  3.666667E-01  3.898308E-01 -1.722046E-02 -1.132895E-16  2.725356E-02  2.392152E-03  1.457876E-04 -4.261739E-02  0.000000E+00
  4.117740E-01 -1.224565E-02  3.666667E-01  4.201650E-01 -1.421154E-02  1.132895E-16  2.440644E-02  2.700882E-03  1.455934E-04 -1.291928E-02  0.000000E+00
  4.418498E-01 -8.533602E-03  3.666667E-01  4.508550E-01 -1.042369E-02 -1.699343E-16  2.123666E-02  2.808121E-03  1.438249E-04  3.273408E-02  0.000000E+00
  4.721105E-01 -4.221250E-03  3.666667E-01  4.817337E-01 -6.023274E-03 -1.132895E-16  1.861053E-02  2.567935E-03  1.421958E-04  1.000306E-01  0.000000E+00
  5.024968E-01 -1.862567E-04  3.666667E-01  5.127405E-01 -1.905880E-03  5.664477E-17  1.704001E-02  2.102377E-03  1.418038E-04  1.682129E-01  0.000000E+00
  5.328693E-01  3.228692E-03  3.666667E-01  5.437332E-01  1.578807E-03 -2.265791E-16  1.631159E-02  1.708118E-03  1.423273E-04  2.046708E-01  0.000000E+00
  5.630297E-01  6.134266E-03  3.666667E-01  5.745096E-01  4.543717E-03  1.132895E-16  1.602207E-02  1.449386E-03  1.436232E-04  2.181857E-01  0.000000E+00
  5.927917E-01  8.647529E-03  3.666667E-01  6.048793E-01  7.108305E-03  0.000000E+00  1.586025E-02  1.278667E-03  1.452487E-04  2.281123E-01  0.000000E+00
  6.219828E-01  1.088242E-02  3.666667E-01  6.346666E-01  9.388836E-03  5.664477E-17  1.565489E-02  1.146636E-03  1.465006E-04  2.404657E-01  0.000000E+00
  6.504533E-01  1.286466E-02  3.666667E-01  6.637185E-01  1.141155E-02 -1.132895E-16  1.538047E-02  1.005822E-03  1.471144E-04  2.554571E-01  0.000000E+00
  6.780742E-01  1.454380E-02  3.666667E-01  6.919035E-01  1.312498E-02  3.092804E-14  1.509049E-02  8.393170E-04  1.472195E-04  2.708376E-01  0.000000E+00
  7.047326E-01  1.587752E-02  3.666667E-01  7.191063E-01  1.448595E-02 -5.664477E-17  1.485877E-02  6.522503E-04  1.471098E-04  2.843218E-01  0.000000E+00
  1.215943E-04  1.336163E-03  3.666667E-01  1.060951E-04 -3.523702E-04 -2.265791E-16  2.200831E-02 -4.592202E-02  1.117898E-04  1.080332E+00  0.000000E+00
  4.902502E-03 -4.676959E-03  3.666667E-01  4.984635E-03 -6.488289E-03  5.664477E-17  4.058438E-02 -3.490333E-02  7.314710E-05  7.015083E-01  0.000000E+00
  1.254908E-02 -8.861778E-03  3.666667E-01  1.278737E-02 -1.075857E-02  2.265791E-16  4.274881E-02 -1.934305E-02  5.914420E-05  1.063685E-01  0.000000E+00
  2.163699E-02 -1.188402E-02  3.666667E-01  2.206087E-02 -1.384253E-02  5.664477E-17  3.826728E-02 -1.089807E-02  6.108806E-05 -4.027182E-02  0.000000E+00
  3.184423E-02 -1.425575E-02  3.666667E-01  3.247655E-02 -1.626269E-02  0.000000E+00  3.579568E-02 -7.182370E-03  6.850017E-05 -2.046997E-02  0.000000E+00
  4.311596E-02 -1.617710E-02  3.666667E-01  4.397847E-02 -1.822328E-02 -1.132895E-16  3.486008E-02 -5.098931E-03  7.529067E-05 -3.006785E-02  0.000000E+00
  5.546913E-02 -1.768519E-02  3.666667E-01  5.658390E-02 -1.976217E-02 -5.664477E-17  3.425994E-02 -3.755764E-03  8.126229E-05 -5.153307E-02  0.000000E+00
  6.891473E-02 -1.898599E-02  3.666667E-01  7.030408E-02 -2.108953E-02  1.699343E-16  3.399382E-02 -3.028799E-03  8.708369E-05 -5.317193E-02  0.000000E+00
  8.348882E-02 -2.017839E-02  3.666667E-01  8.517580E-02 -2.230628E-02  2.832238E-16  3.399148E-02 -2.536019E-03  9.253092E-05 -5.630490E-02  0.000000E+00
  9.923792E-02 -2.124718E-02  3.666667E-01  1.012465E-01 -2.339689E-02 -1.132895E-16  3.400001E-02 -2.027456E-03  9.757413E-05 -7.044101E-02  0.000000E+00
  1.162051E-01 -2.212284E-02  3.666667E-01  1.185602E-01 -2.429044E-02  5.664477E-17  3.386175E-02 -1.485669E-03  1.024426E-04 -8.512357E-02  0.000000E+00
  1.344203E-01 -2.278262E-02  3.666667E-01  1.371474E-01 -2.496369E-02  0.000000E+00  3.353837E-02 -9.685152E-04  1.071896E-04 -9.223408E-02  0.000000E+00
  1.539027E-01 -2.320497E-02  3.666667E-01  1.570277E-01 -2.539467E-02  3.064482E-14  3.301044E-02 -4.769333E-04  1.116594E-04 -9.427331E-02  0.000000E+00
  1.746592E-01 -2.335672E-02  3.666667E-01  1.782080E-01 -2.554952E-02  3.109798E-14  3.233767E-02 -3.241356E-05  1.158631E-04 -9.241989E-02  0.000000E+00
  1.966815E-01 -2.324096E-02  3.666667E-01  2.006800E-01 -2.543140E-02 -1.132895E-16  3.165548E-02  3.386779E-04  1.199389E-04 -8.646708E-02  0.000000E+00
  2.199461E-01 -2.286780E-02  3.666667E-01  2.244198E-01 -2.505061E-02 -1.699343E-16  3.110136E-02  6.428064E-04  1.239986E-04 -7.862867E-02  0.000000E+00
  2.444131E-01 -2.225223E-02  3.666667E-01  2.493863E-01 -2.442248E-02  3.092804E-14  3.078739E-02  8.813733E-04  1.281846E-04 -7.043363E-02  0.000000E+00
  7.047326E-01  1.587752E-02  3.666667E-01  7.191063E-01  1.448595E-02 -5.664477E-17  1.485877E-02  6.522503E-04  1.471098E-04  2.843218E-01  0.000000E+00