 Title= "ADflow Lift Distribution Data"
Variables = "eta" "CoordinateX" "CoordinateY" "CoordinateZ" "Lift" "Drag" "Moment" "Normalized Lift" "Normalized Drag" "Normalized Moment" "CL" "CD" "CM" "CLp" "CDp" "CMp" "CLv" "CDv" "CMv" "Elliptical" "thickness" "twist" "chord" "fx" "fy" "fz" 
Zone T= "LiftDist_01 allWalls: : z normal"
 I=          150
 DATAPACKING=BLOCK
  0.000000E+00
  6.711405E-03
  1.342281E-02
  2.013422E-02
  2.684563E-02
  3.355704E-02
  4.026845E-02
  4.697986E-02
  5.369127E-02
  6.040268E-02
  6.711409E-02
  7.382550E-02
  8.053691E-02
  8.724832E-02
  9.395973E-02
  1.006711E-01
  1.073825E-01
  1.140940E-01
  1.208054E-01
  1.275168E-01
  1.342282E-01
  1.409396E-01
  1.476510E-01
  1.543624E-01
  1.610738E-01
  1.677852E-01
  1.744966E-01
  1.812081E-01
  1.879195E-01
  1.946309E-01
  2.013423E-01
  2.080537E-01
  2.147651E-01
  2.214765E-01
  2.281879E-01
  2.348993E-01
  2.416107E-01
  2.483221E-01
  2.550336E-01
  2.617450E-01
  2.684564E-01
  2.751678E-01
  2.818792E-01
  2.885906E-01
  2.953020E-01
  3.020134E-01
  3.087248E-01
  3.154362E-01
  3.221476E-01
  3.288591E-01
  3.355705E-01
  3.422819E-01
  3.489933E-01
  3.557047E-01
  3.624161E-01
  3.691275E-01
  3.758389E-01
  3.825503E-01
  3.892617E-01
  3.959732E-01
  4.026846E-01
  4.093960E-01
  4.161074E-01
  4.228188E-01
  4.295302E-01
  4.362416E-01
  4.429530E-01
  4.496644E-01
  4.563758E-01
  4.630872E-01
  4.697987E-01
  4.765101E-01
  4.832215E-01
  4.899329E-01
  4.966443E-01
  5.033557E-01
  5.100671E-01
  5.167785E-01
  5.234899E-01
  5.302013E-01
  5.369128E-01
  5.436242E-01
  5.503356E-01
  5.570470E-01
  5.637584E-01
  5.704698E-01
  5.771812E-01
  5.838926E-01
  5.906040E-01
  5.973154E-01
  6.040268E-01
  6.107383E-01
  6.174497E-01
  6.241611E-01
  6.308725E-01
  6.375839E-01
  6.442953E-01
  6.510067E-01
  6.577181E-01
  6.644295E-01
  6.711409E-01
  6.778524E-01
  6.845638E-01
  6.912752E-01
  6.979866E-01
  7.046980E-01
  7.114094E-01
  7.181208E-01
  7.248322E-01
  7.315436E-01
  7.382550E-01
  7.449664E-01
  7.516779E-01
  7.583893E-01
  7.651007E-01
  7.718121E-01
  7.785235E-01
  7.852349E-01
  7.919463E-01
  7.986577E-01
  8.053691E-01
  8.120805E-01
  8.187919E-01
  8.255034E-01
  8.322148E-01
  8.389262E-01
  8.456376E-01
  8.523490E-01
  8.590604E-01
  8.657718E-01
  8.724832E-01
  8.791946E-01
  8.859060E-01
  8.926175E-01
  8.993289E-01
  9.060403E-01
  9.127517E-01
  9.194631E-01
  9.261745E-01
  9.328859E-01
  9.395973E-01
  9.463087E-01
  9.530201E-01
  9.597315E-01
  9.664430E-01
  9.731544E-01
  9.798658E-01
  9.865772E-01
  9.932886E-01
  1.000000E+00
  0.000000E+00
  0.000000E+00
  0.000000E+00
  0.000000E+00
  0.000000E+00
  0.000000E+00
  0.000000E+00
  0.000000E+00
  0.000000E+00
  0.000000E+00
  0.000000E+00
  0.000000E+00
  0.000000E+00
  0.000000E+00
  0.000000E+00
  0.000000E+00
  0.000000E+00
  0.000000E+00
  0.000000E+00
  0.000000E+00
  0.000000E+00
  0.000000E+00
  0.000000E+00
  0.000000E+00
  0.000000E+00
  0.000000E+00
  0.000000E+00
  0.000000E+00
  0.000000E+00
  0.000000E+00
  0.000000E+00
  0.000000E+00
  0.000000E+00
  0.000000E+00
  0.000000E+00
  0.000000E+00
  0.000000E+00
  0.000000E+00
  0.000000E+00
  0.000000E+00
  0.000000E+00
  0.000000E+00
  0.000000E+00
  0.000000E+00
  0.000000E+00
  0.000000E+00
  0.000000E+00
  0.000000E+00
  0.000000E+00
  0.000000E+00
  0.000000E+00
  0.000000E+00
  0.000000E+00
  0.000000E+00
  0.000000E+00
  0.000000E+00
  0.000000E+00
  0.000000E+00
  0.000000E+00
  0.000000E+00
  0.000000E+00
  0.000000E+00
  0.000000E+00
  0.000000E+00
  0.000000E+00
  0.000000E+00
  0.000000E+00
  0.000000E+00
  0.000000E+00
  0.000000E+00
  0.000000E+00
  0.000000E+00
  0.000000E+00
  0.000000E+00
  0.000000E+00
  0.000000E+00
  0.000000E+00
  0.000000E+00
  0.000000E+00
  0.000000E+00
  0.000000E+00
  0.000000E+00
  0.000000E+00
  0.000000E+00
  0.000000E+00
  0.000000E+00
  0.000000E+00
  0.000000E+00
  0.000000E+00
  0.000000E+00
  0.000000E+00
  0.000000E+00
  0.000000E+00
  0.000000E+00
  0.000000E+00
  0.000000E+00
  0.000000E+00
  0.000000E+00
  0.000000E+00
  0.000000E+00
  0.000000E+00
  0.000000E+00
  0.000000E+00
  0.000000E+00
  0.000000E+00
  0.000000E+00
  0.000000E+00
  0.000000E+00
  0.000000E+00
  0.000000E+00
  0.000000E+00
  0.000000E+00
  0.000000E+00
  0.000000E+00
  0.000000E+00
  0.000000E+00
  0.000000E+00
  0.000000E+00
  0.000000E+00
  0.000000E+00
  0.000000E+00
  0.000000E+00
  0.000000E+00
  0.000000E+00
  0.000000E+00
  0.000000E+00
  0.000000E+00
  0.000000E+00
  0.000000E+00
  0.000000E+00
  0.000000E+00
  0.000000E+00
  0.000000E+00
  0.000000E+00
  0.000000E+00
  0.000000E+00
  0.000000E+00
  0.000000E+00
  0.000000E+00
  0.000000E+00
  0.000000E+00
  0.000000E+00
  0.000000E+00
  0.000000E+00
  0.000000E+00
  0.000000E+00
  0.000000E+00
  0.000000E+00
  0.000000E+00
  0.000000E+00
  0.000000E+00
  0.000000E+00
  0.000000E+00
  0.000000E+00
  0.000000E+00
  0.000000E+00
  0.000000E+00
  0.000000E+00
  0.000000E+00
  0.000000E+00
  0.000000E+00
  0.000000E+00
  0.000000E+00
  0.000000E+00
  0.000000E+00
  0.000000E+00
  0.000000E+00
  0.000000E+00
  0.000000E+00
  0.000000E+00
  0.000000E+00
  0.000000E+00
  0.000000E+00
  0.000000E+00
  0.000000E+00
  0.000000E+00
  0.000000E+00
  0.000000E+00
  0.000000E+00
  0.000000E+00
  0.000000E+00
  0.000000E+00
  0.000000E+00
  0.000000E+00
  0.000000E+00
  0.000000E+00
  0.000000E+00
  0.000000E+00
  0.000000E+00
  0.000000E+00
  0.000000E+00
  0.000000E+00
  0.000000E+00
  0.000000E+00
  0.000000E+00
  0.000000E+00
  0.000000E+00
  0.000000E+00
  0.000000E+00
  0.000000E+00
  0.000000E+00
  0.000000E+00
  0.000000E+00
  0.000000E+00
  0.000000E+00
  0.000000E+00
  0.000000E+00
  0.000000E+00
  0.000000E+00
  0.000000E+00
  0.000000E+00
  0.000000E+00
  0.000000E+00
  0.000000E+00
  0.000000E+00
  0.000000E+00
  0.000000E+00
  0.000000E+00
  0.000000E+00
  0.000000E+00
  0.000000E+00
  0.000000E+00
  0.000000E+00
  0.000000E+00
  0.000000E+00
  0.000000E+00
  0.000000E+00
  0.000000E+00
  0.000000E+00
  0.000000E+00
  0.000000E+00
  0.000000E+00
  0.000000E+00
  0.000000E+00
  0.000000E+00
  0.000000E+00
  0.000000E+00
  0.000000E+00
  0.000000E+00
  0.000000E+00
  0.000000E+00
  0.000000E+00
  0.000000E+00
  0.000000E+00
  0.000000E+00
  0.000000E+00
  0.000000E+00
  0.000000E+00
  0.000000E+00
  0.000000E+00
  0.000000E+00
  0.000000E+00
  0.000000E+00
  0.000000E+00
  0.000000E+00
  0.000000E+00
  0.000000E+00
  0.000000E+00
  0.000000E+00
  0.000000E+00
  0.000000E+00
  0.000000E+00
  0.000000E+00
  0.000000E+00
  0.000000E+00
  0.000000E+00
  0.000000E+00
  0.000000E+00
  0.000000E+00
  0.000000E+00
  0.000000E+00
  0.000000E+00
  0.000000E+00
  0.000000E+00
  0.000000E+00
  0.000000E+00
  0.000000E+00
  0.000000E+00
  0.000000E+00
  0.000000E+00
  0.000000E+00
  0.000000E+00
  0.000000E+00
  0.000000E+00
  0.000000E+00
  0.000000E+00
  0.000000E+00
  0.000000E+00
  0.000000E+00
  0.000000E+00
  0.000000E+00
  0.000000E+00
  0.000000E+00
  0.000000E+00
  0.000000E+00
  0.000000E+00
  0.000000E+00
  0.000000E+00
  0.000000E+00
  0.000000E+00
  1.000000E-08
  1.695085E-02
  3.390169E-02
  5.085254E-02
  6.780338E-02
  8.475423E-02
  1.017051E-01
  1.186559E-01
  1.356068E-01
  1.525576E-01
  1.695085E-01
  1.864593E-01
  2.034101E-01
  2.203610E-01
  2.373118E-01
  2.542627E-01
  2.712135E-01
  2.881644E-01
  3.051152E-01
  3.220661E-01
  3.390169E-01
  3.559678E-01
  3.729186E-01
  3.898694E-01
  4.068203E-01
  4.237711E-01
  4.407220E-01
  4.576728E-01
  4.746237E-01
  4.915745E-01
  5.085254E-01
  5.254762E-01
  5.424271E-01
  5.593779E-01
  5.763287E-01
  5.932796E-01
  6.102304E-01
  6.271813E-01
  6.441321E-01
  6.610830E-01
  6.780338E-01
  6.949847E-01
  7.119355E-01
  7.288864E-01
  7.458372E-01
  7.627880E-01
  7.797389E-01
  7.966897E-01
  8.136406E-01
  8.305914E-01
  8.475423E-01
  8.644931E-01
  8.814440E-01
  8.983948E-01
  9.153457E-01
  9.322965E-01
  9.492473E-01
  9.661982E-01
  9.831490E-01
  1.000100E+00
  1.017051E+00
  1.034002E+00
  1.050952E+00
  1.067903E+00
  1.084854E+00
  1.101805E+00
  1.118756E+00
  1.135707E+00
  1.152657E+00
  1.169608E+00
  1.186559E+00
  1.203510E+00
  1.220461E+00
  1.237412E+00
  1.254363E+00
  1.271313E+00
  1.288264E+00
  1.305215E+00
  1.322166E+00
  1.339117E+00
  1.356068E+00
  1.373018E+00
  1.389969E+00
  1.406920E+00
  1.423871E+00
  1.440822E+00
  1.457773E+00
  1.474724E+00
  1.491674E+00
  1.508625E+00
  1.525576E+00
  1.542527E+00
  1.559478E+00
  1.576429E+00
  1.593379E+00
  1.610330E+00
  1.627281E+00
  1.644232E+00
  1.661183E+00
  1.678134E+00
  1.695085E+00
  1.712035E+00
  1.728986E+00
  1.745937E+00
  1.762888E+00
  1.779839E+00
  1.796790E+00
  1.813740E+00
  1.830691E+00
  1.847642E+00
  1.864593E+00
  1.881544E+00
  1.898495E+00
  1.915446E+00
  1.932396E+00
  1.949347E+00
  1.966298E+00
  1.983249E+00
  2.000200E+00
  2.017151E+00
  2.034101E+00
  2.051052E+00
  2.068003E+00
  2.084954E+00
  2.101905E+00
  2.118856E+00
  2.135807E+00
  2.152757E+00
  2.169708E+00
  2.186659E+00
  2.203610E+00
  2.220561E+00
  2.237512E+00
  2.254462E+00
  2.271413E+00
  2.288364E+00
  2.305315E+00
  2.322266E+00
  2.339217E+00
  2.356168E+00
  2.373118E+00
  2.390069E+00
  2.407020E+00
  2.423971E+00
  2.440922E+00
  2.457873E+00
  2.474823E+00
  2.491774E+00
  2.508725E+00
  2.525676E+00
  1.105212E+04
  1.105027E+04
  1.104843E+04
  1.104658E+04
  1.104473E+04
  1.104288E+04
  1.104104E+04
  1.103919E+04
  1.103734E+04
  1.103183E+04
  1.102623E+04
  1.102063E+04
  1.101503E+04
  1.100943E+04
  1.100382E+04
  1.099822E+04
  1.099143E+04
  1.098244E+04
  1.097346E+04
  1.096447E+04
  1.095549E+04
  1.094650E+04
  1.093752E+04
  1.092818E+04
  1.091599E+04
  1.090381E+04
  1.089163E+04
  1.087945E+04
  1.086726E+04
  1.085508E+04
  1.084213E+04
  1.082659E+04
  1.081106E+04
  1.079554E+04
  1.078001E+04
  1.076448E+04
  1.074895E+04
  1.073108E+04
  1.071219E+04
  1.069330E+04
  1.067441E+04
  1.065552E+04
  1.063663E+04
  1.061618E+04
  1.059408E+04
  1.057198E+04
  1.054989E+04
  1.052779E+04
  1.050570E+04
  1.048177E+04
  1.045655E+04
  1.043134E+04
  1.040613E+04
  1.038092E+04
  1.035571E+04
  1.032748E+04
  1.029920E+04
  1.027093E+04
  1.024265E+04
  1.021439E+04
  1.018414E+04
  1.015288E+04
  1.012162E+04
  1.009036E+04
  1.005912E+04
  1.002598E+04
  9.991614E+03
  9.957250E+03
  9.922890E+03
  9.888535E+03
  9.851371E+03
  9.813506E+03
  9.775644E+03
  9.737786E+03
  9.699022E+03
  9.657304E+03
  9.615589E+03
  9.573875E+03
  9.532164E+03
  9.486822E+03
  9.441075E+03
  9.395330E+03
  9.349585E+03
  9.300680E+03
  9.250886E+03
  9.201092E+03
  9.151300E+03
  9.098334E+03
  9.044882E+03
  8.991433E+03
  8.937527E+03
  8.881026E+03
  8.824529E+03
  8.768035E+03
  8.709845E+03
  8.650613E+03
  8.591391E+03
  8.531479E+03
  8.469623E+03
  8.407792E+03
  8.345802E+03
  8.281611E+03
  8.217459E+03
  8.153221E+03
  8.086520E+03
  8.019865E+03
  7.952682E+03
  7.882763E+03
  7.812890E+03
  7.741328E+03
  7.667583E+03
  7.593880E+03
  7.516632E+03
  7.438747E+03
  7.359269E+03
  7.277118E+03
  7.194853E+03
  7.108476E+03
  7.022118E+03
  6.932404E+03
  6.841898E+03
  6.748550E+03
  6.653947E+03
  6.556547E+03
  6.457858E+03
  6.356085E+03
  6.253428E+03
  6.147198E+03
  6.040025E+03
  5.930285E+03
  5.818689E+03
  5.705732E+03
  5.590041E+03
  5.472724E+03
  5.353687E+03
  5.232183E+03
  5.108026E+03
  4.981554E+03
  4.852947E+03
  4.723496E+03
  4.597507E+03
  4.485319E+03
  4.404618E+03
  4.390628E+03
  4.480543E+03
  4.443391E+03
  4.003119E+03
  4.499909E+03
  1.342235E+03
 -1.116757E-04
  6.302124E+02
  6.301664E+02
  6.301205E+02
  6.300745E+02
  6.300285E+02
  6.299826E+02
  6.299366E+02
  6.298907E+02
  6.298447E+02
  6.297278E+02
  6.296092E+02
  6.294905E+02
  6.293719E+02
  6.292533E+02
  6.291347E+02
  6.290160E+02
  6.288922E+02
  6.287587E+02
  6.286253E+02
  6.284918E+02
  6.283583E+02
  6.282249E+02
  6.280914E+02
  6.279554E+02
  6.277988E+02
  6.276423E+02
  6.274857E+02
  6.273291E+02
  6.271725E+02
  6.270159E+02
  6.268387E+02
  6.265928E+02
  6.263470E+02
  6.261011E+02
  6.258551E+02
  6.256092E+02
  6.253632E+02
  6.250387E+02
  6.246797E+02
  6.243206E+02
  6.239615E+02
  6.236024E+02
  6.232432E+02
  6.228090E+02
  6.222956E+02
  6.217822E+02
  6.212686E+02
  6.207550E+02
  6.202413E+02
  6.195716E+02
  6.187926E+02
  6.180136E+02
  6.172344E+02
  6.164551E+02
  6.156757E+02
  6.145370E+02
  6.133927E+02
  6.122482E+02
  6.111037E+02
  6.099591E+02
  6.085830E+02
  6.070881E+02
  6.055931E+02
  6.040982E+02
  6.026032E+02
  6.009457E+02
  5.991816E+02
  5.974174E+02
  5.956530E+02
  5.938886E+02
  5.920067E+02
  5.900950E+02
  5.881831E+02
  5.862708E+02
  5.843670E+02
  5.824913E+02
  5.806152E+02
  5.787386E+02
  5.768615E+02
  5.750563E+02
  5.732587E+02
  5.714607E+02
  5.696624E+02
  5.677809E+02
  5.658758E+02
  5.639703E+02
  5.620645E+02
  5.599078E+02
  5.577124E+02
  5.555166E+02
  5.532607E+02
  5.506642E+02
  5.480678E+02
  5.454716E+02
  5.424813E+02
  5.392488E+02
  5.360182E+02
  5.325786E+02
  5.285511E+02
  5.245292E+02
  5.204685E+02
  5.158745E+02
  5.112895E+02
  5.067012E+02
  5.018812E+02
  4.970715E+02
  4.922635E+02
  4.874263E+02
  4.825981E+02
  4.778378E+02
  4.731607E+02
  4.684901E+02
  4.640791E+02
  4.597194E+02
  4.555188E+02
  4.515778E+02
  4.476538E+02
  4.441990E+02
  4.407429E+02
  4.377257E+02
  4.348109E+02
  4.322784E+02
  4.299132E+02
  4.279020E+02
  4.260530E+02
  4.245951E+02
  4.232501E+02
  4.224119E+02
  4.217342E+02
  4.214990E+02
  4.216664E+02
  4.221428E+02
  4.233593E+02
  4.251115E+02
  4.274543E+02
  4.307104E+02
  4.350720E+02
  4.406047E+02
  4.477074E+02
  4.571113E+02
  4.702843E+02
  4.900579E+02
  5.210705E+02
  5.714804E+02
  6.492589E+02
  7.178305E+02
  7.309446E+02
  8.826900E+02
  2.118519E+02
  3.891652E-04
  1.781570E+03
  1.781061E+03
  1.780552E+03
  1.780043E+03
  1.779534E+03
  1.779025E+03
  1.778516E+03
  1.778007E+03
  1.777498E+03
  1.776154E+03
  1.774789E+03
  1.773424E+03
  1.772059E+03
  1.770694E+03
  1.769330E+03
  1.767965E+03
  1.766401E+03
  1.764472E+03
  1.762543E+03
  1.760614E+03
  1.758685E+03
  1.756756E+03
  1.754827E+03
  1.752835E+03
  1.750345E+03
  1.747854E+03
  1.745363E+03
  1.742873E+03
  1.740382E+03
  1.737892E+03
  1.735259E+03
  1.732155E+03
  1.729050E+03
  1.725946E+03
  1.722842E+03
  1.719738E+03
  1.716633E+03
  1.713136E+03
  1.709466E+03
  1.705796E+03
  1.702127E+03
  1.698457E+03
  1.694788E+03
  1.690900E+03
  1.686781E+03
  1.682663E+03
  1.678545E+03
  1.674427E+03
  1.670310E+03
  1.666005E+03
  1.661570E+03
  1.657136E+03
  1.652702E+03
  1.648268E+03
  1.643835E+03
  1.639233E+03
  1.634629E+03
  1.630026E+03
  1.625424E+03
  1.620822E+03
  1.616156E+03
  1.611458E+03
  1.606760E+03
  1.602064E+03
  1.597369E+03
  1.592530E+03
  1.587597E+03
  1.582665E+03
  1.577734E+03
  1.572804E+03
  1.567542E+03
  1.562197E+03
  1.556853E+03
  1.551509E+03
  1.546088E+03
  1.540410E+03
  1.534733E+03
  1.529056E+03
  1.523380E+03
  1.517430E+03
  1.511450E+03
  1.505470E+03
  1.499491E+03
  1.493081E+03
  1.486550E+03
  1.480019E+03
  1.473488E+03
  1.466518E+03
  1.459480E+03
  1.452443E+03
  1.445385E+03
  1.438207E+03
  1.431030E+03
  1.423854E+03
  1.416562E+03
  1.409200E+03
  1.401843E+03
  1.394334E+03
  1.386397E+03
  1.378470E+03
  1.370506E+03
  1.361986E+03
  1.353482E+03
  1.344967E+03
  1.335911E+03
  1.326876E+03
  1.317692E+03
  1.307712E+03
  1.297752E+03
  1.287198E+03
  1.275873E+03
  1.264567E+03
  1.251951E+03
  1.239100E+03
  1.225658E+03
  1.211222E+03
  1.196744E+03
  1.180747E+03
  1.164757E+03
  1.147619E+03
  1.130208E+03
  1.112004E+03
  1.093449E+03
  1.074320E+03
  1.054927E+03
  1.035137E+03
  1.015235E+03
  9.952025E+02
  9.752358E+02
  9.554841E+02
  9.361561E+02
  9.171625E+02
  8.991883E+02
  8.820035E+02
  8.656813E+02
  8.506889E+02
  8.372311E+02
  8.253710E+02
  8.157550E+02
  8.098006E+02
  8.107914E+02
  8.258168E+02
  8.667780E+02
  9.521410E+02
  1.096299E+03
  1.206595E+03
  1.138980E+03
  1.290860E+03
  2.074244E+02
 -8.104256E-11
  1.243697E+00
  1.243489E+00
  1.243281E+00
  1.243073E+00
  1.242865E+00
  1.242657E+00
  1.242450E+00
  1.242242E+00
  1.242034E+00
  1.241414E+00
  1.240783E+00
  1.240153E+00
  1.239523E+00
  1.238892E+00
  1.238262E+00
  1.237632E+00
  1.236867E+00
  1.235856E+00
  1.234845E+00
  1.233834E+00
  1.232823E+00
  1.231811E+00
  1.230800E+00
  1.229749E+00
  1.228378E+00
  1.227007E+00
  1.225637E+00
  1.224266E+00
  1.222895E+00
  1.221524E+00
  1.220066E+00
  1.218318E+00
  1.216571E+00
  1.214823E+00
  1.213076E+00
  1.211328E+00
  1.209581E+00
  1.207570E+00
  1.205444E+00
  1.203319E+00
  1.201193E+00
  1.199067E+00
  1.196942E+00
  1.194641E+00
  1.192154E+00
  1.189667E+00
  1.187180E+00
  1.184694E+00
  1.182208E+00
  1.179515E+00
  1.176677E+00
  1.173840E+00
  1.171003E+00
  1.168167E+00
  1.165330E+00
  1.162153E+00
  1.158971E+00
  1.155789E+00
  1.152607E+00
  1.149426E+00
  1.146022E+00
  1.142505E+00
  1.138987E+00
  1.135470E+00
  1.131954E+00
  1.128225E+00
  1.124358E+00
  1.120491E+00
  1.116624E+00
  1.112758E+00
  1.108576E+00
  1.104315E+00
  1.100055E+00
  1.095795E+00
  1.091432E+00
  1.086738E+00
  1.082044E+00
  1.077350E+00
  1.072656E+00
  1.067554E+00
  1.062406E+00
  1.057258E+00
  1.052110E+00
  1.046607E+00
  1.041004E+00
  1.035400E+00
  1.029797E+00
  1.023837E+00
  1.017822E+00
  1.011807E+00
  1.005741E+00
  9.993832E-01
  9.930256E-01
  9.866684E-01
  9.801202E-01
  9.734548E-01
  9.667905E-01
  9.600486E-01
  9.530880E-01
  9.461301E-01
  9.391544E-01
  9.319310E-01
  9.247120E-01
  9.174832E-01
  9.099773E-01
  9.024767E-01
  8.949166E-01
  8.870485E-01
  8.791857E-01
  8.711328E-01
  8.628343E-01
  8.545405E-01
  8.458478E-01
  8.370834E-01
  8.281397E-01
  8.188953E-01
  8.096379E-01
  7.999179E-01
  7.902001E-01
  7.801045E-01
  7.699199E-01
  7.594154E-01
  7.487697E-01
  7.378092E-01
  7.267037E-01
  7.152513E-01
  7.036992E-01
  6.917452E-01
  6.796850E-01
  6.673359E-01
  6.547779E-01
  6.420669E-01
  6.290482E-01
  6.158465E-01
  6.024513E-01
  5.887783E-01
  5.748070E-01
  5.605750E-01
  5.461029E-01
  5.315358E-01
  5.173582E-01
  5.047336E-01
  4.956523E-01
  4.940780E-01
  5.041962E-01
  5.000154E-01
  4.504716E-01
  5.063755E-01
  1.510420E-01
 -1.256689E-08
  1.125228E+00
  1.125146E+00
  1.125064E+00
  1.124982E+00
  1.124900E+00
  1.124818E+00
  1.124736E+00
  1.124654E+00
  1.124572E+00
  1.124363E+00
  1.124151E+00
  1.123940E+00
  1.123728E+00
  1.123516E+00
  1.123304E+00
  1.123092E+00
  1.122871E+00
  1.122633E+00
  1.122395E+00
  1.122156E+00
  1.121918E+00
  1.121680E+00
  1.121441E+00
  1.121199E+00
  1.120919E+00
  1.120639E+00
  1.120360E+00
  1.120080E+00
  1.119801E+00
  1.119521E+00
  1.119205E+00
  1.118766E+00
  1.118327E+00
  1.117888E+00
  1.117449E+00
  1.117009E+00
  1.116570E+00
  1.115991E+00
  1.115350E+00
  1.114709E+00
  1.114068E+00
  1.113426E+00
  1.112785E+00
  1.112010E+00
  1.111093E+00
  1.110176E+00
  1.109260E+00
  1.108342E+00
  1.107425E+00
  1.106229E+00
  1.104839E+00
  1.103448E+00
  1.102056E+00
  1.100665E+00
  1.099273E+00
  1.097240E+00
  1.095197E+00
  1.093154E+00
  1.091110E+00
  1.089067E+00
  1.086610E+00
  1.083940E+00
  1.081271E+00
  1.078602E+00
  1.075933E+00
  1.072973E+00
  1.069824E+00
  1.066674E+00
  1.063524E+00
  1.060373E+00
  1.057013E+00
  1.053600E+00
  1.050186E+00
  1.046772E+00
  1.043373E+00
  1.040024E+00
  1.036674E+00
  1.033323E+00
  1.029972E+00
  1.026748E+00
  1.023539E+00
  1.020329E+00
  1.017118E+00
  1.013759E+00
  1.010357E+00
  1.006955E+00
  1.003552E+00
  9.997013E-01
  9.957814E-01
  9.918610E-01
  9.878331E-01
  9.831970E-01
  9.785612E-01
  9.739258E-01
  9.685868E-01
  9.628152E-01
  9.570471E-01
  9.509056E-01
  9.437147E-01
  9.365336E-01
  9.292834E-01
  9.210809E-01
  9.128945E-01
  9.047023E-01
  8.960963E-01
  8.875086E-01
  8.789241E-01
  8.702873E-01
  8.616667E-01
  8.531674E-01
  8.448164E-01
  8.364773E-01
  8.286015E-01
  8.208174E-01
  8.133173E-01
  8.062807E-01
  7.992745E-01
  7.931061E-01
  7.869353E-01
  7.815482E-01
  7.763439E-01
  7.718222E-01
  7.675992E-01
  7.640083E-01
  7.607068E-01
  7.581038E-01
  7.557024E-01
  7.542059E-01
  7.529958E-01
  7.525758E-01
  7.528747E-01
  7.537254E-01
  7.558974E-01
  7.590258E-01
  7.632088E-01
  7.690225E-01
  7.768101E-01
  7.866886E-01
  7.993702E-01
  8.161607E-01
  8.396808E-01
  8.749860E-01
  9.303582E-01
  1.020364E+00
  1.159235E+00
  1.281668E+00
  1.305083E+00
  1.576021E+00
  3.782562E-01
  6.948447E-07
  1.230049E+00
  1.229697E+00
  1.229346E+00
  1.228994E+00
  1.228643E+00
  1.228292E+00
  1.227940E+00
  1.227589E+00
  1.227237E+00
  1.226309E+00
  1.225367E+00
  1.224424E+00
  1.223482E+00
  1.222540E+00
  1.221597E+00
  1.220655E+00
  1.219575E+00
  1.218243E+00
  1.216912E+00
  1.215580E+00
  1.214248E+00
  1.212916E+00
  1.211584E+00
  1.210209E+00
  1.208490E+00
  1.206770E+00
  1.205050E+00
  1.203331E+00
  1.201611E+00
  1.199892E+00
  1.198074E+00
  1.195931E+00
  1.193788E+00
  1.191644E+00
  1.189501E+00
  1.187358E+00
  1.185214E+00
  1.182800E+00
  1.180266E+00
  1.177732E+00
  1.175198E+00
  1.172665E+00
  1.170132E+00
  1.167447E+00
  1.164604E+00
  1.161760E+00
  1.158917E+00
  1.156074E+00
  1.153231E+00
  1.150259E+00
  1.147197E+00
  1.144135E+00
  1.141074E+00
  1.138013E+00
  1.134952E+00
  1.131775E+00
  1.128596E+00
  1.125418E+00
  1.122241E+00
  1.119064E+00
  1.115842E+00
  1.112598E+00
  1.109355E+00
  1.106113E+00
  1.102871E+00
  1.099530E+00
  1.096124E+00
  1.092719E+00
  1.089314E+00
  1.085911E+00
  1.082277E+00
  1.078587E+00
  1.074897E+00
  1.071208E+00
  1.067465E+00
  1.063545E+00
  1.059625E+00
  1.055706E+00
  1.051786E+00
  1.047679E+00
  1.043550E+00
  1.039421E+00
  1.035293E+00
  1.030867E+00
  1.026358E+00
  1.021849E+00
  1.017340E+00
  1.012527E+00
  1.007668E+00
  1.002810E+00
  9.979368E-01
  9.929805E-01
  9.880252E-01
  9.830710E-01
  9.780363E-01
  9.729537E-01
  9.678738E-01
  9.626895E-01
  9.572096E-01
  9.517365E-01
  9.462378E-01
  9.403554E-01
  9.344842E-01
  9.286049E-01
  9.223527E-01
  9.161146E-01
  9.097738E-01
  9.028831E-01
  8.960066E-01
  8.887194E-01
  8.809007E-01
  8.730946E-01
  8.643838E-01
  8.555113E-01
  8.462306E-01
  8.362635E-01
  8.262674E-01
  8.152229E-01
  8.041826E-01
  7.923498E-01
  7.803292E-01
  7.677607E-01
  7.549496E-01
  7.417424E-01
  7.283530E-01
  7.146894E-01
  7.009481E-01
  6.871172E-01
  6.733317E-01
  6.596944E-01
  6.463498E-01
  6.332361E-01
  6.208262E-01
  6.089613E-01
  5.976920E-01
  5.873408E-01
  5.780491E-01
  5.698605E-01
  5.632213E-01
  5.591102E-01
  5.597943E-01
  5.701684E-01
  5.984492E-01
  6.573863E-01
  7.569170E-01
  8.330688E-01
  7.863853E-01
  8.912478E-01
  1.432120E-01
 -5.595418E-14
  9.882312E-01
  9.880661E-01
  9.879009E-01
  9.877357E-01
  9.875705E-01
  9.874053E-01
  9.872402E-01
  9.870750E-01
  9.869098E-01
  9.864171E-01
  9.859163E-01
  9.854155E-01
  9.849146E-01
  9.844138E-01
  9.839130E-01
  9.834122E-01
  9.828047E-01
  9.820012E-01
  9.811978E-01
  9.803944E-01
  9.795910E-01
  9.787877E-01
  9.779843E-01
  9.771492E-01
  9.760599E-01
  9.749705E-01
  9.738813E-01
  9.727920E-01
  9.717028E-01
  9.706136E-01
  9.694551E-01
  9.680665E-01
  9.666779E-01
  9.652893E-01
  9.639008E-01
  9.625123E-01
  9.611239E-01
  9.595263E-01
  9.578371E-01
  9.561480E-01
  9.544590E-01
  9.527701E-01
  9.510812E-01
  9.492526E-01
  9.472765E-01
  9.453006E-01
  9.433248E-01
  9.413491E-01
  9.393735E-01
  9.372338E-01
  9.349792E-01
  9.327248E-01
  9.304706E-01
  9.282165E-01
  9.259627E-01
  9.234381E-01
  9.209095E-01
  9.183812E-01
  9.158532E-01
  9.133255E-01
  9.106207E-01
  9.078253E-01
  9.050303E-01
  9.022357E-01
  8.994414E-01
  8.964786E-01
  8.934054E-01
  8.903325E-01
  8.872600E-01
  8.841879E-01
  8.808647E-01
  8.774788E-01
  8.740932E-01
  8.707079E-01
  8.672416E-01
  8.635113E-01
  8.597811E-01
  8.560512E-01
  8.523214E-01
  8.482672E-01
  8.441767E-01
  8.400864E-01
  8.359961E-01
  8.316233E-01
  8.271709E-01
  8.227186E-01
  8.182664E-01
  8.135304E-01
  8.087509E-01
  8.039716E-01
  7.991515E-01
  7.940991E-01
  7.890471E-01
  7.839954E-01
  7.787918E-01
  7.734948E-01
  7.681987E-01
  7.628407E-01
  7.573085E-01
  7.517783E-01
  7.462338E-01
  7.404920E-01
  7.347535E-01
  7.290071E-01
  7.230401E-01
  7.170770E-01
  7.110666E-01
  7.048115E-01
  6.985604E-01
  6.921583E-01
  6.855613E-01
  6.789678E-01
  6.720581E-01
  6.650915E-01
  6.579828E-01
  6.506357E-01
  6.432784E-01
  6.355546E-01
  6.278325E-01
  6.198111E-01
  6.117193E-01
  6.033741E-01
  5.949170E-01
  5.862103E-01
  5.773887E-01
  5.682920E-01
  5.591162E-01
  5.496215E-01
  5.400424E-01
  5.302338E-01
  5.202593E-01
  5.101629E-01
  4.998219E-01
  4.893353E-01
  4.786946E-01
  4.678328E-01
  4.567335E-01
  4.454266E-01
  4.339285E-01
  4.223544E-01
  4.110890E-01
  4.010569E-01
  3.938397E-01
  3.925869E-01
  4.006241E-01
  3.972990E-01
  3.579293E-01
  4.023438E-01
  1.648454E-01
 -2.429078E-03
  5.635077E-02
  5.634666E-02
  5.634255E-02
  5.633844E-02
  5.633434E-02
  5.633023E-02
  5.632612E-02
  5.632201E-02
  5.631791E-02
  5.630746E-02
  5.629685E-02
  5.628624E-02
  5.627563E-02
  5.626503E-02
  5.625442E-02
  5.624382E-02
  5.623274E-02
  5.622081E-02
  5.620888E-02
  5.619695E-02
  5.618502E-02
  5.617308E-02
  5.616115E-02
  5.614899E-02
  5.613500E-02
  5.612100E-02
  5.610700E-02
  5.609300E-02
  5.607900E-02
  5.606500E-02
  5.604915E-02
  5.602717E-02
  5.600519E-02
  5.598321E-02
  5.596122E-02
  5.593923E-02
  5.591723E-02
  5.588822E-02
  5.585612E-02
  5.582402E-02
  5.579191E-02
  5.575980E-02
  5.572768E-02
  5.568886E-02
  5.564296E-02
  5.559705E-02
  5.555113E-02
  5.550520E-02
  5.545927E-02
  5.539939E-02
  5.532974E-02
  5.526008E-02
  5.519040E-02
  5.512072E-02
  5.505103E-02
  5.494921E-02
  5.484689E-02
  5.474455E-02
  5.464221E-02
  5.453987E-02
  5.441681E-02
  5.428314E-02
  5.414946E-02
  5.401578E-02
  5.388209E-02
  5.373388E-02
  5.357614E-02
  5.341838E-02
  5.326061E-02
  5.310282E-02
  5.293454E-02
  5.276360E-02
  5.259263E-02
  5.242163E-02
  5.225139E-02
  5.208367E-02
  5.191591E-02
  5.174810E-02
  5.158026E-02
  5.141884E-02
  5.125811E-02
  5.109734E-02
  5.093654E-02
  5.076831E-02
  5.059796E-02
  5.042759E-02
  5.025718E-02
  5.006433E-02
  4.986802E-02
  4.967168E-02
  4.946996E-02
  4.923777E-02
  4.900560E-02
  4.877344E-02
  4.850603E-02
  4.821695E-02
  4.792804E-02
  4.762042E-02
  4.726022E-02
  4.690050E-02
  4.653732E-02
  4.612640E-02
  4.571629E-02
  4.530587E-02
  4.487471E-02
  4.444445E-02
  4.401435E-02
  4.358163E-02
  4.314970E-02
  4.272386E-02
  4.230546E-02
  4.188765E-02
  4.149306E-02
  4.110309E-02
  4.072735E-02
  4.037486E-02
  4.002389E-02
  3.971494E-02
  3.940587E-02
  3.913610E-02
  3.887550E-02
  3.864913E-02
  3.843774E-02
  3.825803E-02
  3.809285E-02
  3.796267E-02
  3.784261E-02
  3.776789E-02
  3.770751E-02
  3.768673E-02
  3.770194E-02
  3.774478E-02
  3.785380E-02
  3.801070E-02
  3.822039E-02
  3.851174E-02
  3.890191E-02
  3.939676E-02
  4.003196E-02
  4.087289E-02
  4.205077E-02
  4.381876E-02
  4.659161E-02
  5.109879E-02
  5.805296E-02
  6.418372E-02
  6.535565E-02
  7.892268E-02
  2.601839E-02
  8.464800E-03
  1.593000E-01
  1.592545E-01
  1.592090E-01
  1.591635E-01
  1.591180E-01
  1.590725E-01
  1.590270E-01
  1.589815E-01
  1.589360E-01
  1.588158E-01
  1.586937E-01
  1.585717E-01
  1.584497E-01
  1.583276E-01
  1.582056E-01
  1.580835E-01
  1.579437E-01
  1.577712E-01
  1.575987E-01
  1.574263E-01
  1.572538E-01
  1.570813E-01
  1.569088E-01
  1.567308E-01
  1.565081E-01
  1.562854E-01
  1.560627E-01
  1.558400E-01
  1.556173E-01
  1.553946E-01
  1.551592E-01
  1.548817E-01
  1.546041E-01
  1.543265E-01
  1.540489E-01
  1.537714E-01
  1.534938E-01
  1.531811E-01
  1.528530E-01
  1.525248E-01
  1.521967E-01
  1.518686E-01
  1.515405E-01
  1.511929E-01
  1.508246E-01
  1.504564E-01
  1.500882E-01
  1.497200E-01
  1.493518E-01
  1.489669E-01
  1.485704E-01
  1.481738E-01
  1.477774E-01
  1.473809E-01
  1.469846E-01
  1.465731E-01
  1.461614E-01
  1.457498E-01
  1.453383E-01
  1.449268E-01
  1.445096E-01
  1.440895E-01
  1.436694E-01
  1.432495E-01
  1.428296E-01
  1.423969E-01
  1.419558E-01
  1.415148E-01
  1.410739E-01
  1.406330E-01
  1.401625E-01
  1.396845E-01
  1.392066E-01
  1.387288E-01
  1.382440E-01
  1.377363E-01
  1.372287E-01
  1.367211E-01
  1.362135E-01
  1.356815E-01
  1.351468E-01
  1.346121E-01
  1.340775E-01
  1.335043E-01
  1.329203E-01
  1.323363E-01
  1.317524E-01
  1.311291E-01
  1.304999E-01
  1.298706E-01
  1.292395E-01
  1.285976E-01
  1.279558E-01
  1.273142E-01
  1.266620E-01
  1.260037E-01
  1.253457E-01
  1.246741E-01
  1.239642E-01
  1.232552E-01
  1.225428E-01
  1.217806E-01
  1.210199E-01
  1.202580E-01
  1.194479E-01
  1.186395E-01
  1.178178E-01
  1.169248E-01
  1.160337E-01
  1.150894E-01
  1.140763E-01
  1.130648E-01
  1.119363E-01
  1.107868E-01
  1.095845E-01
  1.082935E-01
  1.069986E-01
  1.055683E-01
  1.041384E-01
  1.026061E-01
  1.010495E-01
  9.942203E-02
  9.776323E-02
  9.605324E-02
  9.431970E-02
  9.255072E-02
  9.077169E-02
  8.898114E-02
  8.719644E-02
  8.543097E-02
  8.370337E-02
  8.200566E-02
  8.039906E-02
  7.886300E-02
  7.740403E-02
  7.606389E-02
  7.486091E-02
  7.380071E-02
  7.294110E-02
  7.240882E-02
  7.249742E-02
  7.384080E-02
  7.750312E-02
  8.513546E-02
  9.802467E-02
  1.078858E-01
  1.018391E-01
  1.154178E-01
  2.547464E-02
 -1.762771E-09
  9.883631E-01
  9.881980E-01
  9.880329E-01
  9.878677E-01
  9.877026E-01
  9.875375E-01
  9.873723E-01
  9.872072E-01
  9.870421E-01
  9.865496E-01
  9.860489E-01
  9.855482E-01
  9.850476E-01
  9.845469E-01
  9.840463E-01
  9.835457E-01
  9.829383E-01
  9.821351E-01
  9.813320E-01
  9.805289E-01
  9.797258E-01
  9.789227E-01
  9.781196E-01
  9.772848E-01
  9.761959E-01