 Title = "ADflow Slice Data"
Variables =  "CoordinateX"  "CoordinateY"  "CoordinateZ"  "XoC"  "YoC"  "ZoC" "VelocityX" "VelocityY" "VelocityZ" "CoefPressure" "Mach" 
Zone T= "Slice_0001 None Relative Regular z = 0.10000000"
 Nodes =          114  Elements=          106  ZONETYPE=FELINESEG
 DATAPACKING=POINT
  7.301402E-01  6.736586E-02  1.000000E-01  7.450343E-01  5.886242E-02  1.416122E-17  2.555721E-02 -4.235687E-03 -1.858335E-04 -4.351429E-01  0.000000E+00
  7.043967E-01  7.148609E-02  1.000000E-01  7.187649E-01  6.306681E-02 -4.248366E-17  2.688619E-02 -4.148664E-03 -1.846507E-04 -4.697812E-01  0.000000E+00
  6.775455E-01  7.547871E-02  1.000000E-01  6.913654E-01  6.714097E-02  3.965142E-16  2.802324E-02 -4.019482E-03 -1.820223E-04 -5.022710E-01  0.000000E+00
  6.496792E-01  7.932948E-02  1.000000E-01  6.629299E-01  7.107039E-02  4.248366E-17  2.900504E-02 -3.879585E-03 -1.779645E-04 -5.358255E-01  0.000000E+00
  6.209097E-01  8.304798E-02  1.000000E-01  6.335729E-01  7.486483E-02 -2.832244E-17  2.994016E-02 -3.740019E-03 -1.726037E-04 -5.726992E-01  0.000000E+00
  5.913667E-01  8.660801E-02  1.000000E-01  6.034265E-01  7.849757E-02 -2.832244E-17  3.096154E-02 -3.590492E-03 -1.661049E-04 -6.132636E-01  0.000000E+00
  5.611982E-01  8.996714E-02  1.000000E-01  5.726419E-01  8.192531E-02  0.000000E+00  3.216888E-02 -3.422973E-03 -1.585257E-04 -6.584307E-01  0.000000E+00
  5.305654E-01  9.307265E-02  1.000000E-01  5.413834E-01  8.509424E-02 -5.664489E-17  3.363420E-02 -3.228291E-03 -1.498531E-04 -7.099773E-01  0.000000E+00
  4.996398E-01  9.587140E-02  1.000000E-01  5.098262E-01  8.795015E-02  0.000000E+00  3.542389E-02 -2.981767E-03 -1.401008E-04 -7.690056E-01  0.000000E+00
  4.685986E-01  9.828701E-02  1.000000E-01  4.781510E-01  9.041509E-02  1.416122E-17  3.759017E-02 -2.636738E-03 -1.293705E-04 -8.339246E-01  0.000000E+00
  4.376215E-01  1.002242E-01  1.000000E-01  4.465413E-01  9.239181E-02 -8.496733E-17  4.011539E-02 -2.143463E-03 -1.178192E-04 -9.009130E-01  0.000000E+00
  4.068895E-01  1.015914E-01  1.000000E-01  4.151816E-01  9.378695E-02  0.000000E+00  4.288055E-02 -1.464387E-03 -1.056691E-04 -9.652514E-01  0.000000E+00
  3.765814E-01  1.023180E-01  1.000000E-01  3.842545E-01  9.452843E-02 -5.664489E-17  4.568216E-02 -6.020260E-04 -9.324045E-05 -1.024271E+00  0.000000E+00
  3.468696E-01  1.023906E-01  1.000000E-01  3.539359E-01  9.460248E-02 -5.664489E-17  4.834949E-02  4.223917E-04 -8.103367E-05 -1.076752E+00  0.000000E+00
  3.179133E-01  1.018128E-01  1.000000E-01  3.243883E-01  9.401285E-02 -2.832244E-17  5.082104E-02  1.596643E-03 -6.964616E-05 -1.122359E+00  0.000000E+00
  2.898519E-01  1.006047E-01  1.000000E-01  2.957537E-01  9.278009E-02 -4.248366E-17  5.310810E-02  2.897307E-03 -5.948497E-05 -1.164287E+00  0.000000E+00
  2.628044E-01  9.880908E-02  1.000000E-01  2.681538E-01  9.094783E-02  0.000000E+00  5.528769E-02  4.312317E-03 -5.064939E-05 -1.206642E+00  0.000000E+00
  9.800000E-01  1.204826E-02  1.000000E-01  9.999971E-01  2.415040E-03 -2.832244E-17  1.060257E-02 -1.315898E-02 -1.926518E-04 -5.637479E-02  0.000000E+00
  9.720124E-01  1.417562E-02  1.000000E-01  9.918464E-01  4.585855E-03 -2.832244E-17  1.212194E-02 -3.300109E-03 -1.835049E-04  6.898222E-02  0.000000E+00
  9.632634E-01  1.651962E-02  1.000000E-01  9.829187E-01  6.977725E-03 -2.832244E-17  9.081756E-03 -2.370810E-03 -1.556718E-04  2.217892E-02  0.000000E+00
  9.536907E-01  1.906877E-02  1.000000E-01  9.731505E-01  9.578940E-03 -2.832244E-17  7.178056E-03 -1.901287E-03 -1.362220E-04  4.299620E-03  0.000000E+00
  9.432303E-01  2.180740E-02  1.000000E-01  9.624764E-01  1.237350E-02  1.416122E-17  6.745035E-03 -1.750542E-03 -1.292578E-04 -1.550763E-02  0.000000E+00
  9.318220E-01  2.473890E-02  1.000000E-01  9.508351E-01  1.536487E-02  1.416122E-17  7.457049E-03 -1.895216E-03 -1.312661E-04 -4.129789E-02  0.000000E+00
  9.194070E-01  2.786636E-02  1.000000E-01  9.381666E-01  1.855621E-02 -8.496733E-17  8.819006E-03 -2.195482E-03 -1.377316E-04 -6.904936E-02  0.000000E+00
  9.059278E-01  3.118790E-02  1.000000E-01  9.244121E-01  2.194558E-02 -5.664489E-17  1.042027E-02 -2.534764E-03 -1.455147E-04 -9.862300E-02  0.000000E+00
  8.913299E-01  3.469754E-02  1.000000E-01  9.095160E-01  2.552690E-02  0.000000E+00  1.205641E-02 -2.859631E-03 -1.530606E-04 -1.305534E-01  0.000000E+00
  8.755643E-01  3.838988E-02  1.000000E-01  8.934285E-01  2.929465E-02 -2.832244E-17  1.369475E-02 -3.160829E-03 -1.599455E-04 -1.649559E-01  0.000000E+00
  8.585885E-01  4.225400E-02  1.000000E-01  8.761059E-01  3.323769E-02  4.106754E-16  1.537847E-02 -3.441983E-03 -1.662912E-04 -2.014048E-01  0.000000E+00
  8.403666E-01  4.626739E-02  1.000000E-01  8.575119E-01  3.733305E-02  3.965142E-16  1.712775E-02 -3.699559E-03 -1.721102E-04 -2.392911E-01  0.000000E+00
  8.208730E-01  5.040012E-02  1.000000E-01  8.376202E-01  4.155019E-02 -8.496733E-17  1.891137E-02 -3.922116E-03 -1.771401E-04 -2.782835E-01  0.000000E+00
  8.000947E-01  5.461913E-02  1.000000E-01  8.164175E-01  4.585536E-02 -2.832244E-17  2.068491E-02 -4.096883E-03 -1.811398E-04 -3.180992E-01  0.000000E+00
  7.780326E-01  5.888453E-02  1.000000E-01  7.939048E-01  5.020787E-02 -2.832244E-17  2.241101E-02 -4.212589E-03 -1.839864E-04 -3.582209E-01  0.000000E+00
  7.547032E-01  6.315046E-02  1.000000E-01  7.700989E-01  5.456093E-02  4.389979E-16  2.405088E-02 -4.259840E-03 -1.855862E-04 -3.976612E-01  0.000000E+00
  7.301402E-01  6.736586E-02  1.000000E-01  7.450343E-01  5.886242E-02  2.832244E-17  2.555721E-02 -4.235687E-03 -1.858335E-04 -4.351429E-01  0.000000E+00
  2.444131E-01 -2.563305E-03  1.000000E-01  2.493869E-01 -1.249494E-02  3.681918E-16  2.786930E-02  1.276542E-03  4.670665E-05  1.676331E-01  0.000000E+00
  2.700250E-01 -1.393887E-03  1.000000E-01  2.755219E-01 -1.130164E-02 -4.248366E-17  2.811725E-02  1.263650E-03  4.934074E-05  1.659021E-01  0.000000E+00
  2.967058E-01 -2.152355E-04  1.000000E-01  3.027476E-01 -1.009892E-02 -2.832244E-17  2.848924E-02  1.295211E-03  5.279385E-05  1.580296E-01  0.000000E+00
  3.243554E-01  1.075592E-03  1.000000E-01  3.309619E-01 -8.781725E-03  4.248366E-16  2.863155E-02  1.448420E-03  5.711263E-05  1.452349E-01  0.000000E+00
  3.528511E-01  2.628364E-03  1.000000E-01  3.600396E-01 -7.197240E-03 -4.248366E-17  2.814832E-02  1.742239E-03  6.212985E-05  1.338042E-01  0.000000E+00
  3.820469E-01  4.658770E-03  1.000000E-01  3.898316E-01 -5.125366E-03  5.664489E-17  2.678251E-02  2.126662E-03  6.742233E-05  1.314595E-01  0.000000E+00
  4.117740E-01  7.334684E-03  1.000000E-01  4.201659E-01 -2.394800E-03 -5.664489E-17  2.460916E-02  2.484044E-03  7.245538E-05  1.452143E-01  0.000000E+00
  4.418498E-01  1.073139E-02  1.000000E-01  4.508559E-01  1.071277E-03 -2.832244E-17  2.206561E-02  2.677881E-03  7.686361E-05  1.753365E-01  0.000000E+00
  4.721105E-01  1.469661E-02  1.000000E-01  4.817347E-01  5.117484E-03 -5.664489E-17  1.992154E-02  2.511983E-03  8.086815E-05  2.273521E-01  0.000000E+00
  5.024968E-01  1.836568E-02  1.000000E-01  5.127416E-01  8.861488E-03  1.416122E-17  1.863508E-02  2.070195E-03  8.484110E-05  2.822846E-01  0.000000E+00
  5.328693E-01  2.141183E-02  1.000000E-01  5.437343E-01  1.196985E-02 -4.248366E-17  1.800113E-02  1.668165E-03  8.892804E-05  3.090496E-01  0.000000E+00
  5.630297E-01  2.396232E-02  1.000000E-01  5.745108E-01  1.457243E-02  1.416122E-17  1.765987E-02  1.396231E-03  9.321071E-05  3.161539E-01  0.000000E+00
  5.927917E-01  2.614834E-02  1.000000E-01  6.048806E-01  1.680309E-02  5.664489E-17  1.733912E-02  1.216694E-03  9.741073E-05  3.217639E-01  0.000000E+00
  6.219828E-01  2.809392E-02  1.000000E-01  6.346680E-01  1.878841E-02 -4.248366E-17  1.689789E-02  1.080995E-03  1.010527E-04  3.311502E-01  0.000000E+00
  6.504533E-01  2.982976E-02  1.000000E-01  6.637199E-01  2.055971E-02  5.664489E-17  1.635191E-02  9.304839E-04  1.039468E-04  3.447748E-01  0.000000E+00
  6.780742E-01  3.127721E-02  1.000000E-01  6.919049E-01  2.203672E-02  4.531591E-16  1.580951E-02  7.337006E-04  1.062294E-04  3.606789E-01  0.000000E+00
  7.047326E-01  3.233962E-02  1.000000E-01  7.191078E-01  2.312083E-02  0.000000E+00  1.538670E-02  4.962627E-04  1.081849E-04  3.752219E-01  0.000000E+00
  1.215943E-04  9.343795E-03  1.000000E-01  1.060953E-04 -3.446559E-04 -5.664489E-17 -4.525288E-02  8.072381E-02  6.956277E-05  7.526468E-01  0.000000E+00
  4.902502E-03  3.676460E-03  1.000000E-01  4.984646E-03 -6.127738E-03 -8.496733E-17 -1.670952E-02  1.948617E-02  5.515486E-05  9.379928E-01  0.000000E+00
  1.254908E-02  3.699486E-05  1.000000E-01  1.278739E-02 -9.841534E-03 -2.832244E-17  7.920500E-03 -2.070867E-03  4.142600E-05  5.426935E-01  0.000000E+00
  2.163699E-02 -2.349674E-03  1.000000E-01  2.206092E-02 -1.227695E-02  1.416122E-17  2.166732E-02 -4.464122E-03  3.549162E-05  3.413289E-01  0.000000E+00
  3.184423E-02 -4.024265E-03  1.000000E-01  3.247662E-02 -1.398574E-02 -2.832244E-17  2.740865E-02 -3.594602E-03  3.476927E-05  3.074293E-01  0.000000E+00
  4.311596E-02 -5.196960E-03  1.000000E-01  4.397856E-02 -1.518238E-02 -8.496733E-17  2.960071E-02 -2.378530E-03  3.534902E-05  2.722114E-01  0.000000E+00
  5.546913E-02 -5.910959E-03  1.000000E-01  5.658402E-02 -1.591097E-02  1.416122E-17  3.026559E-02 -1.404959E-03  3.614644E-05  2.396834E-01  0.000000E+00
  6.891473E-02 -6.379969E-03  1.000000E-01  7.030423E-02 -1.638955E-02 -8.496733E-17  3.050259E-02 -8.730844E-04  3.701978E-05  2.277019E-01  0.000000E+00
  8.348882E-02 -6.710632E-03  1.000000E-01  8.517597E-02 -1.672697E-02  5.664489E-17  3.062765E-02 -5.237444E-04  3.782919E-05  2.156521E-01  0.000000E+00
  9.923792E-02 -6.896861E-03  1.000000E-01  1.012467E-01 -1.691700E-02 -9.912855E-17  3.059817E-02 -1.655616E-04  3.858427E-05  1.967502E-01  0.000000E+00
  1.162051E-01 -6.880920E-03  1.000000E-01  1.185604E-01 -1.690074E-02 -8.496733E-17  3.037763E-02  2.018620E-04  3.936854E-05  1.799156E-01  0.000000E+00
  1.344203E-01 -6.655284E-03  1.000000E-01  1.371476E-01 -1.667049E-02 -8.496733E-17  2.998977E-02  5.235390E-04  4.021129E-05  1.706265E-01  0.000000E+00
  1.539027E-01 -6.217111E-03  1.000000E-01  1.570280E-01 -1.622337E-02  4.389979E-16  2.945441E-02  8.006006E-04  4.110033E-05  1.656110E-01  0.000000E+00
  1.746592E-01 -5.555564E-03  1.000000E-01  1.782084E-01 -1.554831E-02  3.257081E-16  2.884634E-02  1.019974E-03  4.208407E-05  1.636999E-01  0.000000E+00
  1.966815E-01 -4.699479E-03  1.000000E-01  2.006804E-01 -1.467474E-02 -2.832244E-17  2.829622E-02  1.165862E-03  4.325913E-05  1.649105E-01  0.000000E+00
  2.199461E-01 -3.687333E-03  1.000000E-01  2.244202E-01 -1.364193E-02 -4.248366E-17  2.793432E-02  1.249840E-03  4.474415E-05  1.668088E-01  0.000000E+00
  2.444131E-01 -2.563305E-03  1.000000E-01  2.493869E-01 -1.249494E-02  3.823530E-16  2.786930E-02  1.276542E-03  4.670665E-05  1.676331E-01  0.000000E+00
  7.047326E-01  3.233962E-02  1.000000E-01  7.191078E-01  2.312083E-02 -2.832244E-17  1.538670E-02  4.962627E-04  1.081849E-04  3.752219E-01  0.000000E+00
  7.303325E-01  3.295609E-02  1.000000E-01  7.452305E-01  2.374989E-02 -2.832244E-17  1.517497E-02  2.318834E-04  1.101248E-04  3.860338E-01  0.000000E+00
  7.547951E-01  3.310405E-02  1.000000E-01  7.701927E-01  2.390087E-02  4.389979E-16  1.524877E-02 -6.220097E-05  1.123359E-04  3.929390E-01  0.000000E+00
  7.780600E-01  3.276818E-02  1.000000E-01  7.939328E-01  2.355813E-02  1.416122E-17  1.566251E-02 -4.004439E-04  1.150304E-04  3.957045E-01  0.000000E+00
  8.000833E-01  3.196051E-02  1.000000E-01  8.164058E-01  2.273397E-02 -4.248366E-17  1.642766E-02 -7.968508E-04  1.182960E-04  3.936319E-01  0.000000E+00
  8.208376E-01  3.071352E-02  1.000000E-01  8.375840E-01  2.146152E-02 -2.832244E-17  1.747714E-02 -1.235368E-03  1.220026E-04  3.856670E-01  0.000000E+00
  8.403144E-01  2.913499E-02  1.000000E-01  8.574587E-01  1.985075E-02  4.389979E-16  1.865009E-02 -1.650962E-03  1.257672E-04  3.709924E-01  0.000000E+00
  8.585258E-01  2.738760E-02  1.000000E-01  8.760419E-01  1.806767E-02  3.965142E-16  1.974978E-02 -1.977157E-03  1.290968E-04  3.521167E-01  0.000000E+00
  8.754993E-01  2.561489E-02  1.000000E-01  8.933621E-01  1.625875E-02 -2.832244E-17  2.063190E-02 -2.196213E-03  1.315199E-04  3.332729E-01  0.000000E+00
  8.912718E-01  2.389994E-02  1.000000E-01  9.094568E-01  1.450877E-02 -2.832244E-17  2.128106E-02 -2.366041E-03  1.327691E-04  3.181533E-01  0.000000E+00
  9.058836E-01  2.223576E-02  1.000000E-01  9.243670E-01  1.281061E-02 -4.248366E-17  2.182220E-02 -2.572369E-03  1.329705E-04  3.073682E-01  0.000000E+00
  9.193796E-01  2.058651E-02  1.000000E-01  9.381386E-01  1.112768E-02 -5.664489E-17  2.244800E-02 -2.843229E-03  1.328056E-04  2.962502E-01  0.000000E+00
  9.318118E-01  1.895265E-02  1.000000E-01  9.508247E-01  9.460446E-03  4.248366E-17  2.336191E-02 -3.194929E-03  1.336677E-04  2.821235E-01  0.000000E+00
  9.432349E-01  1.732867E-02  1.000000E-01  9.624811E-01  7.803300E-03 -2.832244E-17  2.460368E-02 -3.643727E-03  1.365901E-04  2.655252E-01  0.000000E+00
  9.537058E-01  1.571422E-02  1.000000E-01  9.731659E-01  6.155873E-03  0.000000E+00  2.553380E-02 -4.089085E-03  1.392134E-04  2.408875E-01  0.000000E+00
  9.632829E-01  1.411354E-02  1.000000E-01  9.829386E-01  4.522502E-03 -2.832244E-17  2.455311E-02 -4.278494E-03  1.338720E-04  2.061484E-01  0.000000E+00
  9.720275E-01  1.255916E-02  1.000000E-01  9.918618E-01  2.936375E-03  0.000000E+00  2.087102E-02 -3.729652E-03  1.151411E-04  2.036571E-01  0.000000E+00
  9.800000E-01  1.107304E-02  1.000000E-01  9.999971E-01  1.419904E-03  1.416122E-17  1.389455E-02  4.372437E-03  7.094630E-05 -1.002691E-02  0.000000E+00
  1.215943E-04  1.002447E-02  1.000000E-01  1.060953E-04  3.499171E-04 -9.912855E-17  2.284910E-02  5.299228E-02  3.295308E-05  4.600935E-01  0.000000E+00
  7.278129E-05  9.909806E-03  1.000000E-01  5.628531E-05  2.329151E-04  1.416122E-17  1.553344E-02  7.596708E-02  4.580352E-05  3.005230E-01  0.000000E+00
  1.762252E-05  9.681553E-03  1.000000E-01  0.000000E+00  0.000000E+00  0.000000E+00 -1.208338E-02  1.216879E-01  6.647454E-05  3.405730E-01  0.000000E+00
  8.694958E-05  9.456387E-03  1.000000E-01  7.074296E-05 -2.297644E-04  0.000000E+00 -5.068803E-02  1.316236E-01  7.606104E-05  3.896342E-01  0.000000E+00
  1.215943E-04  9.343795E-03  1.000000E-01  1.060953E-04 -3.446559E-04 -4.248366E-17 -4.525288E-02  8.072381E-02  6.956277E-05  7.526468E-01  0.000000E+00
  9.800000E-01  1.107304E-02  1.000000E-01  9.999971E-01  1.419904E-03  0.000000E+00  1.389455E-02  4.372437E-03  7.094630E-05 -1.002691E-02  0.000000E+00
  9.800000E-01  1.123557E-02  1.000000E-01  9.999971E-01  1.585760E-03  0.000000E+00  4.507662E-03 -1.548132E-03 -1.381352E-05 -2.108657E-01  0.000000E+00
  9.800000E-01  1.156065E-02  1.000000E-01  9.999971E-01  1.917472E-03 -2.832244E-17 -4.416212E-04 -1.596650E-02 -1.069479E-04 -1.752242E-01  0.000000E+00
  9.800000E-01  1.188572E-02  1.000000E-01  9.999971E-01  2.249184E-03 -5.664489E-17  3.430997E-03 -1.964732E-02 -1.669017E-04 -1.936044E-01  0.000000E+00
  9.800000E-01  1.204826E-02  1.000000E-01  9.999971E-01  2.415040E-03  0.000000E+00  1.060257E-02 -1.315898E-02 -1.926518E-04 -5.637479E-02  0.000000E+00
  2.628044E-01  9.880908E-02  1.000000E-01  2.681538E-01  9.094783E-02 -2.832244E-17  5.528769E-02  4.312317E-03 -5.064939E-05 -1.206642E+00  0.000000E+00
  2.368706E-01  9.647551E-02  1.000000E-01  2.416903E-01  8.856660E-02  3.681918E-16  5.751640E-02  5.926073E-03 -4.305899E-05 -1.246450E+00  0.000000E+00
  2.121362E-01  9.359654E-02  1.000000E-01  2.164508E-01  8.562883E-02  1.416122E-17  5.982230E-02  7.813831E-03 -3.652678E-05 -1.276915E+00  0.000000E+00
  1.886687E-01  9.018981E-02  1.000000E-01  1.925040E-01  8.215253E-02 -4.248366E-17  6.202663E-02  9.953772E-03 -3.082872E-05 -1.293154E+00  0.000000E+00
  1.665185E-01  8.628748E-02  1.000000E-01  1.699014E-01  7.817050E-02  4.814815E-16  6.390142E-02  1.227938E-02 -2.580632E-05 -1.292702E+00  0.000000E+00
  1.457161E-01  8.194645E-02  1.000000E-01  1.486742E-01  7.374081E-02  4.531591E-16  6.529364E-02  1.471703E-02 -2.135311E-05 -1.277135E+00  0.000000E+00
  1.262764E-01  7.722642E-02  1.000000E-01  1.288374E-01  6.892437E-02  0.000000E+00  6.618615E-02  1.723023E-02 -1.736252E-05 -1.251657E+00  0.000000E+00
  1.081990E-01  7.218708E-02  1.000000E-01  1.103908E-01  6.378211E-02  0.000000E+00  6.661579E-02  1.979543E-02 -1.368197E-05 -1.223367E+00  0.000000E+00
  9.146971E-02  6.689079E-02  1.000000E-01  9.331986E-02  5.837765E-02  0.000000E+00  6.669194E-02  2.256736E-02 -1.018800E-05 -1.187463E+00  0.000000E+00
  7.608258E-02  6.133318E-02  1.000000E-01  7.761847E-02  5.270654E-02  0.000000E+00  6.637257E-02  2.571735E-02 -6.832466E-06 -1.125595E+00  0.000000E+00
  6.202881E-02  5.550358E-02  1.000000E-01  6.327767E-02  4.675787E-02 -5.664489E-17  6.532039E-02  2.910629E-02 -3.622055E-06 -1.020575E+00  0.000000E+00
  4.929579E-02  4.941884E-02  1.000000E-01  5.028460E-02  4.054886E-02 -8.496733E-17  6.317812E-02  3.218577E-02 -5.596484E-07 -8.774261E-01  0.000000E+00
  3.782553E-02  4.318968E-02  1.000000E-01  3.858008E-02  3.419248E-02  4.248366E-17  6.008083E-02  3.473759E-02  2.410757E-06 -7.229291E-01  0.000000E+00
  2.757469E-02  3.686988E-02  1.000000E-01  2.811988E-02  2.774361E-02 -2.832244E-17  5.653036E-02  3.700066E-02  5.575383E-06 -6.047373E-01  0.000000E+00
  1.848362E-02  3.053614E-02  1.000000E-01  1.884314E-02  2.128051E-02  5.664489E-17  5.320189E-02  4.042508E-02  9.725713E-06 -5.070662E-01  0.000000E+00
  1.064273E-02  2.406255E-02  1.000000E-01  1.084211E-02  1.467471E-02  1.416122E-17  4.944637E-02  4.663967E-02  1.624645E-05 -2.673747E-01  0.000000E+00
  4.262692E-03  1.729914E-02  1.000000E-01  4.331769E-03  7.773163E-03  1.416122E-17  4.008894E-02  5.387972E-02  2.533108E-05  2.439371E-01  0.000000E+00
  1.215943E-04  1.002447E-02  1.000000E-01  1.060953E-04  3.499171E-04 -8.496733E-17  2.284910E-02  5.299228E-02  3.295308E-05  4.600935E-01  0.000000E+00
    1    2
    2    3
    3    4
    4    5
    5    6
    6    7
    7    8
    8    9
    9   10
   10   11
   11   12
   12   13
   13   14
   14   15
   15   16
   16   17
   18   19
   19   20
   20   21
   21   22
   22   23
   23   24
   24   25
   25   26
   26   27
   27   28
   28   29
   29   30
   30   31
   31   32
   32   33
   33   34
   35   36
   36   37
   37   38
   38   39
   39   40
   40   41
   41   42
   42   43
   43   44
   44   45
   45   46
   46   47
   47   48
   48   49
   49   50
   50   51
   52   53
   53   54
   54   55
   55   56
   56   57
   57   58
   58   59
   59   60
   60   61
   61   62
   62   63
   63   64
   64   65
   65   66
   66   67
   67   68
   69   70
   70   71
   71   72
   72   73
   73   74
   74   75
   75   76
   76   77
   77   78
   78   79
   79   80
   80   81
   81   82
   82   83
   83   84
   84   85
   85   86
   87   88
   88   89
   89   90
   90   91
   92   93
   93   94
   94   95
   95   96
   97   98
   98   99
   99  100
  100  101
  101  102
  102  103
  103  104
  104  105
  105  106
  106  107
  107  108
  108  109
  109  110
  110  111
  111  112
  112  113
  113  114
Zone T= "Slice_0002 None Relative Regular z = 0.36666667"
 Nodes =          114  Elements=          106  ZONETYPE=FELINESEG
 DATAPACKING=POINT
  7.301402E-01  6.683589E-02  3.666667E-01  7.450346E-01  5.834481E-02 -5.664491E-17  2.572182E-02 -4.239690E-03 -5.962016E-04 -4.292006E-01  0.000000E+00
  7.043967E-01  7.093443E-02  3.666667E-01  7.187652E-01  6.252706E-02 -1.132898E-16  2.704049E-02 -4.152273E-03 -5.900375E-04 -4.632087E-01  0.000000E+00
  6.775455E-01  7.490897E-02  3.666667E-01  6.913656E-01  6.658278E-02  3.058825E-14  2.816753E-02 -4.024243E-03 -5.797720E-04 -4.951320E-01  0.000000E+00
  6.496792E-01  7.874652E-02  3.666667E-01  6.629302E-01  7.049871E-02 -1.699347E-16  2.913937E-02 -3.886909E-03 -5.660117E-04 -5.281816E-01  0.000000E+00
  6.209097E-01  8.245782E-02  3.666667E-01  6.335731E-01  7.428580E-02  0.000000E+00  3.006414E-02 -3.751026E-03 -5.495108E-04 -5.645994E-01  0.000000E+00
  5.913667E-01  8.601762E-02  3.666667E-01  6.034268E-01  7.791831E-02  1.132898E-16  3.107445E-02 -3.606116E-03 -5.308007E-04 -6.047622E-01  0.000000E+00
  5.611982E-01  8.938423E-02  3.666667E-01  5.726421E-01  8.135368E-02  2.265796E-16  3.227085E-02 -3.444186E-03 -5.097874E-04 -6.495944E-01  0.000000E+00
  5.305654E-01  9.250524E-02  3.666667E-01  5.413836E-01  8.453844E-02  1.132898E-16  3.372800E-02 -3.256179E-03 -4.859852E-04 -7.008770E-01  0.000000E+00
  4.996398E-01  9.532733E-02  3.666667E-01  5.098264E-01  8.741816E-02 -1.699347E-16  3.551610E-02 -3.017435E-03 -4.589116E-04 -7.597140E-01  0.000000E+00
  4.685986E-01  9.777329E-02  3.666667E-01  4.781512E-01  8.991408E-02  1.132898E-16  3.769002E-02 -2.680941E-03 -4.283349E-04 -8.245263E-01  0.000000E+00
  4.376215E-01  9.974656E-02  3.666667E-01  4.465415E-01  9.192765E-02 -5.664491E-17  4.023191E-02 -2.196156E-03 -3.941863E-04 -8.915248E-01  0.000000E+00
  4.068895E-01  1.011541E-01  3.666667E-01  4.151818E-01  9.336392E-02 -5.664491E-17  4.302082E-02 -1.524471E-03 -3.566838E-04 -9.560452E-01  0.000000E+00
  3.765814E-01  1.019236E-01  3.666667E-01  3.842547E-01  9.414915E-02  5.664491E-17  4.585257E-02 -6.674235E-04 -3.165718E-04 -1.015478E+00  0.000000E+00
  3.468696E-01  1.020400E-01  3.666667E-01  3.539361E-01  9.426798E-02 -5.664491E-17  4.855769E-02  3.550612E-04 -2.755323E-04 -1.068589E+00  0.000000E+00
  3.179133E-01  1.015053E-01  3.666667E-01  3.243884E-01  9.372230E-02  0.000000E+00  5.107507E-02  1.532293E-03 -2.359231E-04 -1.114922E+00  0.000000E+00
  2.898519E-01  1.003376E-01  3.666667E-01  2.957538E-01  9.253080E-02  5.664491E-17  5.341271E-02  2.841195E-03 -1.996315E-04 -1.157552E+00  0.000000E+00
  2.628044E-01  9.857879E-02  3.666667E-01  2.681539E-01  9.073604E-02  5.664491E-17  5.564214E-02  4.268742E-03 -1.674917E-04 -1.200526E+00  0.000000E+00
  9.800000E-01  1.185346E-02  3.666667E-01  9.999975E-01  2.239429E-03  5.664491E-17  1.059430E-02 -1.306359E-02 -6.277367E-04 -5.707199E-02  0.000000E+00
  9.720124E-01  1.396829E-02  3.666667E-01  9.918468E-01  4.397446E-03  0.000000E+00  1.214752E-02 -3.287178E-03 -5.945567E-04  6.937008E-02  0.000000E+00
  9.632634E-01  1.629861E-02  3.666667E-01  9.829191E-01  6.775366E-03  1.132898E-16  9.188919E-03 -2.384400E-03 -5.053839E-04  2.266655E-02  0.000000E+00
  9.536907E-01  1.883289E-02  3.666667E-01  9.731509E-01  9.361408E-03 -5.664491E-17  7.345010E-03 -1.933271E-03 -4.435090E-04  4.819403E-03  0.000000E+00
  9.432303E-01  2.155538E-02  3.666667E-01  9.624768E-01  1.213950E-02 -1.699347E-16  6.943734E-03 -1.790734E-03 -4.215913E-04 -1.492196E-02  0.000000E+00
  9.318220E-01  2.446942E-02  3.666667E-01  9.508355E-01  1.511306E-02 -5.664491E-17  7.668759E-03 -1.936743E-03 -4.282929E-04 -4.057321E-02  0.000000E+00
  9.194070E-01  2.757808E-02  3.666667E-01  9.381669E-01  1.828521E-02  0.000000E+00  9.031883E-03 -2.234257E-03 -4.491144E-04 -6.812042E-02  0.000000E+00
  9.059278E-01  3.087945E-02  3.666667E-01  9.244124E-01  2.165400E-02 -1.132898E-16  1.062858E-02 -2.568995E-03 -4.741019E-04 -9.743700E-02  0.000000E+00
  8.913299E-01  3.436757E-02  3.666667E-01  9.095164E-01  2.521337E-02  0.000000E+00  1.226186E-02 -2.889765E-03 -4.984481E-04 -1.290533E-01  0.000000E+00
  8.755643E-01  3.803709E-02  3.666667E-01  8.934288E-01  2.895783E-02 -1.132898E-16  1.390415E-02 -3.188560E-03 -5.208619E-04 -1.630776E-01  0.000000E+00
  8.585885E-01  4.187720E-02  3.666667E-01  8.761062E-01  3.287637E-02  3.098476E-14  1.559492E-02 -3.467992E-03 -5.415125E-04 -1.990878E-01  0.000000E+00
  8.403666E-01  4.586554E-02  3.666667E-01  8.575122E-01  3.694617E-02  3.098476E-14  1.734522E-02 -3.722501E-03 -5.600799E-04 -2.364777E-01  0.000000E+00
  8.208730E-01  4.997244E-02  3.666667E-01  8.376205E-01  4.113695E-02 -5.664491E-17  1.912145E-02 -3.940426E-03 -5.755745E-04 -2.749192E-01  0.000000E+00
  8.000947E-01  5.416517E-02  3.666667E-01  8.164179E-01  4.541530E-02 -5.664491E-17  2.088357E-02 -4.110253E-03 -5.872553E-04 -3.141345E-01  0.000000E+00
  7.780326E-01  5.840431E-02  3.666667E-01  7.939051E-01  4.974102E-02 -1.132898E-16  2.259771E-02 -4.221676E-03 -5.947525E-04 -3.536143E-01  0.000000E+00
  7.547032E-01  6.264463E-02  3.666667E-01  7.700992E-01  5.406796E-02  3.075819E-14  2.422624E-02 -4.265729E-03 -5.978001E-04 -3.923863E-01  0.000000E+00
  7.301402E-01  6.683589E-02  3.666667E-01  7.450346E-01  5.834481E-02 -5.664491E-17  2.572182E-02 -4.239690E-03 -5.962016E-04 -4.292006E-01  0.000000E+00
  2.444131E-01 -2.771623E-03  3.666667E-01  2.493870E-01 -1.268436E-02  3.092812E-14  2.812855E-02  1.254317E-03  1.525281E-04  1.653598E-01  0.000000E+00
  2.700250E-01 -1.634816E-03  3.666667E-01  2.755220E-01 -1.152433E-02  5.664491E-17  2.839634E-02  1.239203E-03  1.627910E-04  1.634411E-01  0.000000E+00
  2.967058E-01 -4.925867E-04  3.666667E-01  3.027477E-01 -1.035878E-02 -5.664491E-17  2.879194E-02  1.269270E-03  1.757680E-04  1.553112E-01  0.000000E+00
  3.243554E-01  7.584538E-04  3.666667E-01  3.309620E-01 -9.082183E-03  3.070154E-14  2.895478E-02  1.423415E-03  1.914973E-04  1.421847E-01  0.000000E+00
  3.528511E-01  2.269121E-03  3.666667E-01  3.600398E-01 -7.540663E-03 -5.664491E-17  2.848165E-02  1.721990E-03  2.092330E-04  1.303661E-01  0.000000E+00
  3.820469E-01  4.256812E-03  3.666667E-01  3.898318E-01 -5.512374E-03 -1.132898E-16  2.711304E-02  2.115062E-03  2.273600E-04  1.276431E-01  0.000000E+00
  4.117740E-01  6.891013E-03  3.666667E-01  4.201661E-01 -2.824373E-03  1.132898E-16  2.492613E-02  2.483187E-03  2.439508E-04  1.411003E-01  0.000000E+00
  4.418498E-01  1.024854E-02  3.666667E-01  4.508561E-01  6.017258E-04 -1.699347E-16  2.236190E-02  2.686945E-03  2.577777E-04  1.710307E-01  0.000000E+00
  4.721105E-01  1.417873E-02  3.666667E-01  4.817349E-01  4.612185E-03 -1.132898E-16  2.019777E-02  2.525596E-03  2.699349E-04  2.229989E-01  0.000000E+00
  5.024968E-01  1.781833E-02  3.666667E-01  5.127418E-01  8.326125E-03  5.664491E-17  1.889770E-02  2.083129E-03  2.818501E-04  2.779826E-01  0.000000E+00
  5.328693E-01  2.084186E-02  3.666667E-01  5.437346E-01  1.141140E-02 -2.265796E-16  1.825499E-02  1.680065E-03  2.938998E-04  3.047562E-01  0.000000E+00
  5.630297E-01  2.337740E-02  3.666667E-01  5.745111E-01  1.399873E-02  1.132898E-16  1.790638E-02  1.408521E-03  3.065394E-04  3.118009E-01  0.000000E+00
  5.927917E-01  2.555642E-02  3.666667E-01  6.048808E-01  1.622226E-02  0.000000E+00  1.757745E-02  1.230458E-03  3.191319E-04  3.173687E-01  0.000000E+00
  6.219828E-01  2.750266E-02  3.666667E-01  6.346682E-01  1.820824E-02  5.664491E-17  1.712629E-02  1.096583E-03  3.302998E-04  3.267928E-01  0.000000E+00
  6.504533E-01  2.924609E-02  3.666667E-01  6.637201E-01  1.998728E-02 -1.132898E-16  1.656916E-02  9.472850E-04  3.395280E-04  3.405316E-01  0.000000E+00
  6.780742E-01  3.070707E-02  3.666667E-01  6.919052E-01  2.147811E-02  3.092812E-14  1.601544E-02  7.506561E-04  3.472333E-04  3.565986E-01  0.000000E+00
  7.047326E-01  3.178779E-02  3.666667E-01  7.191081E-01  2.258090E-02 -5.664491E-17  1.558222E-02  5.124814E-04  3.541650E-04  3.713283E-01  0.000000E+00
  1.215943E-04  9.321062E-03  3.666667E-01  1.060953E-04 -3.446924E-04 -2.265796E-16 -4.428048E-02  7.903200E-02  2.155993E-04  7.570918E-01  0.000000E+00
  4.902502E-03  3.652022E-03  3.666667E-01  4.984648E-03 -6.129517E-03  5.664491E-17 -1.601124E-02  1.885033E-02  1.689669E-04  9.356370E-01  0.000000E+00
  1.254908E-02  9.671021E-06  3.666667E-01  1.278740E-02 -9.846259E-03  2.265796E-16  8.327552E-03 -2.238479E-03  1.255082E-04  5.382655E-01  0.000000E+00
  2.163699E-02 -2.380657E-03  3.666667E-01  2.206093E-02 -1.228541E-02  5.664491E-17  2.191649E-02 -4.528095E-03  1.069035E-04  3.373892E-01  0.000000E+00
  3.184423E-02 -4.059648E-03  3.666667E-01  3.247663E-02 -1.399869E-02  0.000000E+00  2.763060E-02 -3.636849E-03  1.046929E-04  3.042283E-01  0.000000E+00
  4.311596E-02 -5.237564E-03  3.666667E-01  4.397858E-02 -1.520066E-02 -1.132898E-16  2.983249E-02 -2.411951E-03  1.065849E-04  2.694128E-01  0.000000E+00
  5.546913E-02 -5.957728E-03  3.666667E-01  5.658404E-02 -1.593554E-02 -5.664491E-17  3.050535E-02 -1.432368E-03  1.091719E-04  2.370779E-01  0.000000E+00
  6.891473E-02 -6.433989E-03  3.666667E-01  7.030426E-02 -1.642152E-02  1.699347E-16  3.074679E-02 -8.977663E-04  1.120838E-04  2.252764E-01  0.000000E+00
  8.348882E-02 -6.773169E-03  3.666667E-01  8.517601E-02 -1.676763E-02  2.832245E-16  3.087556E-02 -5.471561E-04  1.149585E-04  2.133957E-01  0.000000E+00
  9.923792E-02 -6.969396E-03  3.666667E-01  1.012468E-01 -1.696787E-02 -1.132898E-16  3.084864E-02 -1.876476E-04  1.178609E-04  1.946095E-01  0.000000E+00
  1.162051E-01 -6.965183E-03  3.666667E-01  1.185605E-01 -1.696357E-02  5.664491E-17  3.062835E-02  1.811806E-04  1.210637E-04  1.778402E-01  0.000000E+00
  1.344203E-01 -6.753281E-03  3.666667E-01  1.371477E-01 -1.674734E-02  0.000000E+00  3.023829E-02  5.038689E-04  1.246601E-04  1.685913E-01  0.000000E+00
  1.539027E-01 -6.331160E-03  3.666667E-01  1.570280E-01 -1.631660E-02  3.064490E-14  2.969900E-02  7.815606E-04  1.286033E-04  1.635973E-01  0.000000E+00
  1.746592E-01 -5.688322E-03  3.666667E-01  1.782084E-01 -1.566063E-02  3.109805E-14  2.908736E-02  1.001064E-03  1.330296E-04  1.616798E-01  0.000000E+00
  1.966815E-01 -4.853959E-03  3.666667E-01  2.006805E-01 -1.480922E-02 -1.132898E-16  2.853705E-02  1.146443E-03  1.382243E-04  1.628489E-01  0.000000E+00
  2.199461E-01 -3.866898E-03  3.666667E-01  2.244203E-01 -1.380200E-02 -1.699347E-16  2.818077E-02  1.229335E-03  1.445470E-04  1.646655E-01  0.000000E+00
  2.444131E-01 -2.771623E-03  3.666667E-01  2.493870E-01 -1.268436E-02  3.092812E-14  2.812855E-02  1.254317E-03  1.525281E-04  1.653598E-01  0.000000E+00
  7.047326E-01  3.178779E-02  3.666667E-01  7.191081E-01  2.258090E-02 -5.664491E-17  1.558222E-02  5.124814E-04  3.541650E-04  3.713283E-01  0.000000E+00