 Title= "ADflow Lift Distribution Data"
Variables = "eta" "CoordinateX" "CoordinateY" "CoordinateZ" "Lift" "Drag" "Moment" "Normalized Lift" "Normalized Drag" "Normalized Moment" "CL" "CD" "CM" "CLp" "CDp" "CMp" "CLv" "CDv" "CMv" "Elliptical" "thickness" "twist" "chord" "fx" "fy" "fz" 
Zone T= "LiftDist_01 allWalls: : z normal"
 I=          150
 DATAPACKING=BLOCK
  0.000000E+00
  6.711405E-03
  1.342281E-02
  2.013422E-02
  2.684563E-02
  3.355704E-02
  4.026845E-02
  4.697986E-02
  5.369127E-02
  6.040268E-02
  6.711409E-02
  7.382550E-02
  8.053691E-02
  8.724832E-02
  9.395973E-02
  1.006711E-01
  1.073825E-01
  1.140940E-01
  1.208054E-01
  1.275168E-01
  1.342282E-01
  1.409396E-01
  1.476510E-01
  1.543624E-01
  1.610738E-01
  1.677852E-01
  1.744966E-01
  1.812081E-01
  1.879195E-01
  1.946309E-01
  2.013423E-01
  2.080537E-01
  2.147651E-01
  2.214765E-01
  2.281879E-01
  2.348993E-01
  2.416107E-01
  2.483221E-01
  2.550336E-01
  2.617450E-01
  2.684564E-01
  2.751678E-01
  2.818792E-01
  2.885906E-01
  2.953020E-01
  3.020134E-01
  3.087248E-01
  3.154362E-01
  3.221476E-01
  3.288591E-01
  3.355705E-01
  3.422819E-01
  3.489933E-01
  3.557047E-01
  3.624161E-01
  3.691275E-01
  3.758389E-01
  3.825503E-01
  3.892617E-01
  3.959732E-01
  4.026846E-01
  4.093960E-01
  4.161074E-01
  4.228188E-01
  4.295302E-01
  4.362416E-01
  4.429530E-01
  4.496644E-01
  4.563758E-01
  4.630872E-01
  4.697987E-01
  4.765101E-01
  4.832215E-01
  4.899329E-01
  4.966443E-01
  5.033557E-01
  5.100671E-01
  5.167785E-01
  5.234899E-01
  5.302013E-01
  5.369128E-01
  5.436242E-01
  5.503356E-01
  5.570470E-01
  5.637584E-01
  5.704698E-01
  5.771812E-01
  5.838926E-01
  5.906040E-01
  5.973154E-01
  6.040268E-01
  6.107383E-01
  6.174497E-01
  6.241611E-01
  6.308725E-01
  6.375839E-01
  6.442953E-01
  6.510067E-01
  6.577181E-01
  6.644295E-01
  6.711409E-01
  6.778524E-01
  6.845638E-01
  6.912752E-01
  6.979866E-01
  7.046980E-01
  7.114094E-01
  7.181208E-01
  7.248322E-01
  7.315436E-01
  7.382550E-01
  7.449664E-01
  7.516779E-01
  7.583893E-01
  7.651007E-01
  7.718121E-01
  7.785235E-01
  7.852349E-01
  7.919463E-01
  7.986577E-01
  8.053691E-01
  8.120805E-01
  8.187919E-01
  8.255034E-01
  8.322148E-01
  8.389262E-01
  8.456376E-01
  8.523490E-01
  8.590604E-01
  8.657718E-01
  8.724832E-01
  8.791946E-01
  8.859060E-01
  8.926175E-01
  8.993289E-01
  9.060403E-01
  9.127517E-01
  9.194631E-01
  9.261745E-01
  9.328859E-01
  9.395973E-01
  9.463087E-01
  9.530201E-01
  9.597315E-01
  9.664430E-01
  9.731544E-01
  9.798658E-01
  9.865772E-01
  9.932886E-01
  1.000000E+00
  0.000000E+00
  0.000000E+00
  0.000000E+00
  0.000000E+00
  0.000000E+00
  0.000000E+00
  0.000000E+00
  0.000000E+00
  0.000000E+00
  0.000000E+00
  0.000000E+00
  0.000000E+00
  0.000000E+00
  0.000000E+00
  0.000000E+00
  0.000000E+00
  0.000000E+00
  0.000000E+00
  0.000000E+00
  0.000000E+00
  0.000000E+00
  0.000000E+00
  0.000000E+00
  0.000000E+00
  0.000000E+00
  0.000000E+00
  0.000000E+00
  0.000000E+00
  0.000000E+00
  0.000000E+00
  0.000000E+00
  0.000000E+00
  0.000000E+00
  0.000000E+00
  0.000000E+00
  0.000000E+00
  0.000000E+00
  0.000000E+00
  0.000000E+00
  0.000000E+00
  0.000000E+00
  0.000000E+00
  0.000000E+00
  0.000000E+00
  0.000000E+00
  0.000000E+00
  0.000000E+00
  0.000000E+00
  0.000000E+00
  0.000000E+00
  0.000000E+00
  0.000000E+00
  0.000000E+00
  0.000000E+00
  0.000000E+00
  0.000000E+00
  0.000000E+00
  0.000000E+00
  0.000000E+00
  0.000000E+00
  0.000000E+00
  0.000000E+00
  0.000000E+00
  0.000000E+00
  0.000000E+00
  0.000000E+00
  0.000000E+00
  0.000000E+00
  0.000000E+00
  0.000000E+00
  0.000000E+00
  0.000000E+00
  0.000000E+00
  0.000000E+00
  0.000000E+00
  0.000000E+00
  0.000000E+00
  0.000000E+00
  0.000000E+00
  0.000000E+00
  0.000000E+00
  0.000000E+00
  0.000000E+00
  0.000000E+00
  0.000000E+00
  0.000000E+00
  0.000000E+00
  0.000000E+00
  0.000000E+00
  0.000000E+00
  0.000000E+00
  0.000000E+00
  0.000000E+00
  0.000000E+00
  0.000000E+00
  0.000000E+00
  0.000000E+00
  0.000000E+00
  0.000000E+00
  0.000000E+00
  0.000000E+00
  0.000000E+00
  0.000000E+00
  0.000000E+00
  0.000000E+00
  0.000000E+00
  0.000000E+00
  0.000000E+00
  0.000000E+00
  0.000000E+00
  0.000000E+00
  0.000000E+00
  0.000000E+00
  0.000000E+00
  0.000000E+00
  0.000000E+00
  0.000000E+00
  0.000000E+00
  0.000000E+00
  0.000000E+00
  0.000000E+00
  0.000000E+00
  0.000000E+00
  0.000000E+00
  0.000000E+00
  0.000000E+00
  0.000000E+00
  0.000000E+00
  0.000000E+00
  0.000000E+00
  0.000000E+00
  0.000000E+00
  0.000000E+00
  0.000000E+00
  0.000000E+00
  0.000000E+00
  0.000000E+00
  0.000000E+00
  0.000000E+00
  0.000000E+00
  0.000000E+00
  0.000000E+00
  0.000000E+00
  0.000000E+00
  0.000000E+00
  0.000000E+00
  0.000000E+00
  0.000000E+00
  0.000000E+00
  0.000000E+00
  0.000000E+00
  0.000000E+00
  0.000000E+00
  0.000000E+00
  0.000000E+00
  0.000000E+00
  0.000000E+00
  0.000000E+00
  0.000000E+00
  0.000000E+00
  0.000000E+00
  0.000000E+00
  0.000000E+00
  0.000000E+00
  0.000000E+00
  0.000000E+00
  0.000000E+00
  0.000000E+00
  0.000000E+00
  0.000000E+00
  0.000000E+00
  0.000000E+00
  0.000000E+00
  0.000000E+00
  0.000000E+00
  0.000000E+00
  0.000000E+00
  0.000000E+00
  0.000000E+00
  0.000000E+00
  0.000000E+00
  0.000000E+00
  0.000000E+00
  0.000000E+00
  0.000000E+00
  0.000000E+00
  0.000000E+00
  0.000000E+00
  0.000000E+00
  0.000000E+00
  0.000000E+00
  0.000000E+00
  0.000000E+00
  0.000000E+00
  0.000000E+00
  0.000000E+00
  0.000000E+00
  0.000000E+00
  0.000000E+00
  0.000000E+00
  0.000000E+00
  0.000000E+00
  0.000000E+00
  0.000000E+00
  0.000000E+00
  0.000000E+00
  0.000000E+00
  0.000000E+00
  0.000000E+00
  0.000000E+00
  0.000000E+00
  0.000000E+00
  0.000000E+00
  0.000000E+00
  0.000000E+00
  0.000000E+00
  0.000000E+00
  0.000000E+00
  0.000000E+00
  0.000000E+00
  0.000000E+00
  0.000000E+00
  0.000000E+00
  0.000000E+00
  0.000000E+00
  0.000000E+00
  0.000000E+00
  0.000000E+00
  0.000000E+00
  0.000000E+00
  0.000000E+00
  0.000000E+00
  0.000000E+00
  0.000000E+00
  0.000000E+00
  0.000000E+00
  0.000000E+00
  0.000000E+00
  0.000000E+00
  0.000000E+00
  0.000000E+00
  0.000000E+00
  0.000000E+00
  0.000000E+00
  0.000000E+00
  0.000000E+00
  0.000000E+00
  0.000000E+00
  0.000000E+00
  0.000000E+00
  0.000000E+00
  0.000000E+00
  0.000000E+00
  0.000000E+00
  0.000000E+00
  0.000000E+00
  0.000000E+00
  0.000000E+00
  0.000000E+00
  0.000000E+00
  0.000000E+00
  0.000000E+00
  0.000000E+00
  0.000000E+00
  0.000000E+00
  0.000000E+00
  0.000000E+00
  0.000000E+00
  0.000000E+00
  0.000000E+00
  0.000000E+00
  0.000000E+00
  0.000000E+00
  0.000000E+00
  0.000000E+00
  0.000000E+00
  0.000000E+00
  0.000000E+00
  0.000000E+00
  0.000000E+00
  0.000000E+00
  0.000000E+00
  0.000000E+00
  0.000000E+00
  0.000000E+00
  0.000000E+00
  0.000000E+00
  0.000000E+00
  0.000000E+00
  0.000000E+00
  0.000000E+00
  0.000000E+00
  0.000000E+00
  0.000000E+00
  0.000000E+00
  0.000000E+00
  0.000000E+00
  0.000000E+00
  0.000000E+00
  0.000000E+00
  1.000000E-08
  1.695085E-02
  3.390169E-02
  5.085254E-02
  6.780338E-02
  8.475423E-02
  1.017051E-01
  1.186559E-01
  1.356068E-01
  1.525576E-01
  1.695085E-01
  1.864593E-01
  2.034101E-01
  2.203610E-01
  2.373118E-01
  2.542627E-01
  2.712135E-01
  2.881644E-01
  3.051152E-01
  3.220661E-01
  3.390169E-01
  3.559678E-01
  3.729186E-01
  3.898694E-01
  4.068203E-01
  4.237711E-01
  4.407220E-01
  4.576728E-01
  4.746237E-01
  4.915745E-01
  5.085254E-01
  5.254762E-01
  5.424271E-01
  5.593779E-01
  5.763287E-01
  5.932796E-01
  6.102304E-01
  6.271813E-01
  6.441321E-01
  6.610830E-01
  6.780338E-01
  6.949847E-01
  7.119355E-01
  7.288864E-01
  7.458372E-01
  7.627880E-01
  7.797389E-01
  7.966897E-01
  8.136406E-01
  8.305914E-01
  8.475423E-01
  8.644931E-01
  8.814440E-01
  8.983948E-01
  9.153457E-01
  9.322965E-01
  9.492473E-01
  9.661982E-01
  9.831490E-01
  1.000100E+00
  1.017051E+00
  1.034002E+00
  1.050952E+00
  1.067903E+00
  1.084854E+00
  1.101805E+00
  1.118756E+00
  1.135707E+00
  1.152657E+00
  1.169608E+00
  1.186559E+00
  1.203510E+00
  1.220461E+00
  1.237412E+00
  1.254363E+00
  1.271313E+00
  1.288264E+00
  1.305215E+00
  1.322166E+00
  1.339117E+00
  1.356068E+00
  1.373018E+00
  1.389969E+00
  1.406920E+00
  1.423871E+00
  1.440822E+00
  1.457773E+00
  1.474724E+00
  1.491674E+00
  1.508625E+00
  1.525576E+00
  1.542527E+00
  1.559478E+00
  1.576429E+00
  1.593379E+00
  1.610330E+00
  1.627281E+00
  1.644232E+00
  1.661183E+00
  1.678134E+00
  1.695085E+00
  1.712035E+00
  1.728986E+00
  1.745937E+00
  1.762888E+00
  1.779839E+00
  1.796790E+00
  1.813740E+00
  1.830691E+00
  1.847642E+00
  1.864593E+00
  1.881544E+00
  1.898495E+00
  1.915446E+00
  1.932396E+00
  1.949347E+00
  1.966298E+00
  1.983249E+00
  2.000200E+00
  2.017151E+00
  2.034101E+00
  2.051052E+00
  2.068003E+00
  2.084954E+00
  2.101905E+00
  2.118856E+00
  2.135807E+00
  2.152757E+00
  2.169708E+00
  2.186659E+00
  2.203610E+00
  2.220561E+00
  2.237512E+00
  2.254462E+00
  2.271413E+00
  2.288364E+00
  2.305315E+00
  2.322266E+00
  2.339217E+00
  2.356168E+00
  2.373118E+00
  2.390069E+00
  2.407020E+00
  2.423971E+00
  2.440922E+00
  2.457873E+00
  2.474823E+00
  2.491774E+00
  2.508725E+00
  2.525676E+00
  1.129093E+04
  1.128921E+04
  1.128748E+04
  1.128576E+04
  1.128404E+04
  1.128231E+04
  1.128059E+04
  1.127887E+04
  1.127715E+04
  1.127239E+04
  1.126756E+04
  1.126273E+04
  1.125790E+04
  1.125307E+04
  1.124824E+04
  1.124340E+04
  1.123763E+04
  1.123012E+04
  1.122262E+04
  1.121511E+04
  1.120761E+04
  1.120010E+04
  1.119260E+04
  1.118475E+04
  1.117422E+04
  1.116369E+04
  1.115316E+04
  1.114263E+04
  1.113210E+04
  1.112157E+04
  1.111025E+04
  1.109632E+04
  1.108240E+04
  1.106847E+04
  1.105454E+04
  1.104061E+04
  1.102669E+04
  1.101021E+04
  1.099262E+04
  1.097503E+04
  1.095744E+04
  1.093985E+04
  1.092227E+04
  1.090273E+04
  1.088115E+04
  1.085957E+04
  1.083798E+04
  1.081640E+04
  1.079482E+04
  1.077055E+04
  1.074439E+04
  1.071824E+04
  1.069209E+04
  1.066593E+04
  1.063978E+04
  1.060838E+04
  1.057690E+04
  1.054541E+04
  1.051393E+04
  1.048244E+04
  1.044691E+04
  1.040931E+04
  1.037170E+04
  1.033410E+04
  1.029649E+04
  1.025468E+04
  1.021010E+04
  1.016553E+04
  1.012097E+04
  1.007640E+04
  1.002565E+04
  9.973358E+03
  9.921075E+03
  9.868803E+03
  9.814699E+03
  9.754631E+03
  9.694591E+03
  9.634578E+03
  9.574592E+03
  9.508401E+03
  9.441562E+03
  9.374774E+03
  9.308035E+03
  9.236910E+03
  9.164600E+03
  9.092354E+03
  9.020171E+03
  8.944528E+03
  8.868411E+03
  8.792357E+03
  8.716086E+03
  8.638273E+03
  8.560516E+03
  8.482811E+03
  8.405024E+03
  8.327194E+03
  8.249401E+03
  8.171773E+03
  8.094533E+03
  8.017313E+03
  7.940179E+03
  7.863856E+03
  7.787547E+03
  7.711293E+03
  7.635918E+03
  7.560554E+03
  7.485246E+03
  7.410168E+03
  7.335102E+03
  7.259815E+03
  7.184242E+03
  7.108680E+03
  7.032160E+03
  6.955469E+03
  6.878151E+03
  6.799786E+03
  6.721359E+03
  6.640875E+03
  6.560397E+03
  6.477978E+03
  6.395098E+03
  6.310427E+03
  6.224962E+03
  6.137670E+03
  6.049532E+03
  5.959339E+03
  5.868549E+03
  5.775235E+03
  5.681186E+03
  5.585132E+03
  5.487463E+03
  5.388598E+03
  5.287143E+03
  5.184087E+03
  5.079364E+03
  4.972334E+03
  4.863155E+03
  4.752468E+03
  4.640958E+03
  4.530637E+03
  4.426781E+03
  4.340893E+03
  4.292079E+03
  4.317939E+03
  4.454248E+03
  4.445334E+03
  4.005490E+03
  4.510071E+03
  1.261287E+03
 -6.035510E-04
  6.560734E+02
  6.559472E+02
  6.558210E+02
  6.556947E+02
  6.555685E+02
  6.554423E+02
  6.553161E+02
  6.551899E+02
  6.550637E+02
  6.548432E+02
  6.546204E+02
  6.543975E+02
  6.541747E+02
  6.539519E+02
  6.537291E+02
  6.535063E+02
  6.533021E+02
  6.531319E+02
  6.529617E+02
  6.527915E+02
  6.526213E+02
  6.524511E+02
  6.522809E+02
  6.521043E+02
  6.518760E+02
  6.516478E+02
  6.514195E+02
  6.511913E+02
  6.509630E+02
  6.507348E+02
  6.504619E+02
  6.500407E+02
  6.496196E+02
  6.491984E+02
  6.487772E+02
  6.483561E+02
  6.479349E+02
  6.473120E+02
  6.466008E+02
  6.458896E+02
  6.451784E+02
  6.444672E+02
  6.437560E+02
  6.428538E+02
  6.417502E+02
  6.406465E+02
  6.395428E+02
  6.384391E+02
  6.373354E+02
  6.359282E+02
  6.343085E+02
  6.326888E+02
  6.310690E+02
  6.294492E+02
  6.278294E+02
  6.256072E+02
  6.233754E+02
  6.211437E+02
  6.189118E+02
  6.166800E+02
  6.140696E+02
  6.112651E+02
  6.084606E+02
  6.056561E+02
  6.028515E+02
  5.998310E+02
  5.966689E+02
  5.935071E+02
  5.903455E+02
  5.871843E+02
  5.839904E+02
  5.807894E+02
  5.775897E+02
  5.743912E+02
  5.712687E+02
  5.683915E+02
  5.655177E+02
  5.626475E+02
  5.597808E+02
  5.574986E+02
  5.552880E+02
  5.530844E+02
  5.508878E+02
  5.491482E+02
  5.475446E+02
  5.459508E+02
  5.443669E+02
  5.428907E+02
  5.414404E+02
  5.400010E+02
  5.385214E+02
  5.367591E+02
  5.350071E+02
  5.332654E+02
  5.310641E+02
  5.285806E+02
  5.261050E+02
  5.233448E+02
  5.197701E+02
  5.162006E+02
  5.125569E+02
  5.079439E+02
  5.033341E+02
  4.987023E+02
  4.935629E+02
  4.884252E+02
  4.832788E+02
  4.780826E+02
  4.728868E+02
  4.677958E+02
  4.628383E+02
  4.578799E+02
  4.532944E+02
  4.487772E+02
  4.444689E+02
  4.405086E+02
  4.365661E+02
  4.332134E+02
  4.298585E+02
  4.270060E+02
  4.242724E+02
  4.219457E+02
  4.197995E+02
  4.180149E+02
  4.163984E+02
  4.151795E+02
  4.140773E+02
  4.134904E+02
  4.130664E+02
  4.130889E+02
  4.135173E+02
  4.142525E+02
  4.157331E+02
  4.177499E+02
  4.203589E+02
  4.239035E+02
  4.286193E+02
  4.346044E+02
  4.423237E+02
  4.526073E+02
  4.670538E+02
  4.886196E+02
  5.219969E+02
  5.753474E+02
  6.553686E+02
  7.197400E+02
  7.222151E+02
  8.623385E+02
  1.938637E+02
  3.338425E-04
  1.869627E+03
  1.869431E+03
  1.869234E+03
  1.869038E+03
  1.868841E+03
  1.868645E+03
  1.868449E+03
  1.868252E+03
  1.868056E+03
  1.867590E+03
  1.867118E+03
  1.866646E+03
  1.866174E+03
  1.865701E+03
  1.865229E+03
  1.864757E+03
  1.864193E+03
  1.863460E+03
  1.862728E+03
  1.861995E+03
  1.861263E+03
  1.860530E+03
  1.859797E+03
  1.859008E+03
  1.857763E+03
  1.856518E+03
  1.855273E+03
  1.854028E+03
  1.852783E+03
  1.851538E+03
  1.850120E+03
  1.848129E+03
  1.846137E+03
  1.844146E+03
  1.842154E+03
  1.840163E+03
  1.838171E+03
  1.835509E+03
  1.832553E+03
  1.829597E+03
  1.826641E+03
  1.823685E+03
  1.820729E+03
  1.817174E+03
  1.812989E+03
  1.808803E+03
  1.804617E+03
  1.800431E+03
  1.796245E+03
  1.791139E+03
  1.785388E+03
  1.779638E+03
  1.773887E+03
  1.768137E+03
  1.762386E+03
  1.754561E+03
  1.746703E+03
  1.738845E+03
  1.730987E+03
  1.723128E+03
  1.713294E+03
  1.702446E+03
  1.691598E+03
  1.680750E+03
  1.669902E+03
  1.656593E+03
  1.641739E+03
  1.626815E+03
  1.611893E+03
  1.596971E+03
  1.577917E+03
  1.557830E+03
  1.537747E+03
  1.517666E+03
  1.496207E+03
  1.470269E+03
  1.444340E+03
  1.418420E+03
  1.392507E+03
  1.361916E+03
  1.330817E+03
  1.299734E+03
  1.268667E+03
  1.235153E+03
  1.200965E+03
  1.166799E+03
  1.132653E+03
  1.097821E+03
  1.062904E+03
  1.028007E+03
  9.933214E+02
  9.597340E+02
  9.261653E+02
  8.926148E+02
  8.609814E+02
  8.305373E+02
  8.001069E+02
  7.708007E+02
  7.446223E+02
  7.184526E+02
  6.926230E+02
  6.708613E+02
  6.491050E+02
  6.275376E+02
  6.096555E+02
  5.917769E+02
  5.744375E+02
  5.596993E+02
  5.449633E+02
  5.313034E+02
  5.190219E+02
  5.067418E+02
  4.960185E+02
  4.855876E+02
  4.756587E+02
  4.665624E+02
  4.574980E+02
  4.493579E+02
  4.412178E+02
  4.336801E+02
  4.262863E+02
  4.193647E+02
  4.126525E+02
  4.064330E+02
  4.004411E+02
  3.950965E+02
  3.899391E+02
  3.857309E+02
  3.818357E+02
  3.788144E+02
  3.765889E+02
  3.749591E+02
  3.747424E+02
  3.754880E+02
  3.772817E+02
  3.806903E+02
  3.860990E+02
  3.937363E+02
  4.045768E+02
  4.205147E+02
  4.454848E+02
  4.872837E+02
  5.585762E+02
  6.780131E+02
  8.572925E+02
  9.985856E+02
  9.571350E+02
  1.111870E+03
  1.532817E+02
 -5.552351E-10
  1.272039E+00
  1.271845E+00
  1.271651E+00
  1.271457E+00
  1.271263E+00
  1.271069E+00
  1.270875E+00
  1.270681E+00
  1.270486E+00
  1.269951E+00
  1.269406E+00
  1.268862E+00
  1.268318E+00
  1.267774E+00
  1.267229E+00
  1.266685E+00
  1.266035E+00
  1.265189E+00
  1.264343E+00
  1.263498E+00
  1.262652E+00
  1.261807E+00
  1.260961E+00
  1.260078E+00
  1.258891E+00
  1.257705E+00
  1.256518E+00
  1.255332E+00
  1.254145E+00
  1.252959E+00
  1.251684E+00
  1.250115E+00
  1.248546E+00
  1.246977E+00
  1.245408E+00
  1.243839E+00
  1.242270E+00
  1.240414E+00
  1.238432E+00
  1.236450E+00
  1.234469E+00
  1.232487E+00
  1.230506E+00
  1.228305E+00
  1.225873E+00
  1.223442E+00
  1.221010E+00
  1.218579E+00
  1.216147E+00
  1.213413E+00
  1.210466E+00
  1.207520E+00
  1.204574E+00
  1.201627E+00
  1.198681E+00
  1.195143E+00
  1.191596E+00
  1.188049E+00
  1.184502E+00
  1.180955E+00
  1.176952E+00
  1.172715E+00
  1.168479E+00
  1.164242E+00
  1.160006E+00
  1.155295E+00
  1.150273E+00
  1.145252E+00
  1.140231E+00
  1.135210E+00
  1.129493E+00
  1.123601E+00
  1.117711E+00
  1.111822E+00
  1.105727E+00
  1.098960E+00
  1.092195E+00
  1.085434E+00
  1.078676E+00
  1.071219E+00
  1.063689E+00
  1.056165E+00
  1.048646E+00
  1.040633E+00
  1.032486E+00
  1.024347E+00
  1.016215E+00
  1.007693E+00
  9.991177E-01
  9.905495E-01
  9.819567E-01
  9.731903E-01
  9.644301E-01
  9.556759E-01
  9.469124E-01
  9.381441E-01
  9.293799E-01
  9.206343E-01
  9.119324E-01
  9.032328E-01
  8.945428E-01
  8.859443E-01
  8.773473E-01
  8.687565E-01
  8.602647E-01
  8.517741E-01
  8.432899E-01
  8.348317E-01
  8.263747E-01
  8.178928E-01
  8.093787E-01
  8.008659E-01
  7.922452E-01
  7.836051E-01
  7.748945E-01
  7.660658E-01
  7.572302E-01
  7.481628E-01
  7.390962E-01
  7.298109E-01
  7.204735E-01
  7.109345E-01
  7.013060E-01
  6.914716E-01
  6.815419E-01
  6.713808E-01
  6.611524E-01
  6.506396E-01
  6.400441E-01
  6.292225E-01
  6.182192E-01
  6.070810E-01
  5.956510E-01
  5.840407E-01
  5.722426E-01
  5.601846E-01
  5.478844E-01
  5.354144E-01
  5.228516E-01
  5.104229E-01
  4.987224E-01
  4.890462E-01
  4.835469E-01
  4.864603E-01
  5.018168E-01
  5.008125E-01
  4.512596E-01
  5.081058E-01
  1.420970E-01
 -6.799622E-08
  1.165312E+00
  1.165088E+00
  1.164864E+00
  1.164640E+00
  1.164415E+00
  1.164191E+00
  1.163967E+00
  1.163743E+00
  1.163519E+00
  1.163127E+00
  1.162731E+00
  1.162336E+00
  1.161940E+00
  1.161544E+00
  1.161148E+00
  1.160753E+00
  1.160390E+00
  1.160087E+00
  1.159785E+00
  1.159483E+00
  1.159181E+00
  1.158878E+00
  1.158576E+00
  1.158262E+00
  1.157857E+00
  1.157451E+00
  1.157046E+00
  1.156641E+00
  1.156235E+00
  1.155830E+00
  1.155345E+00
  1.154597E+00
  1.153849E+00
  1.153101E+00
  1.152353E+00
  1.151605E+00
  1.150857E+00
  1.149750E+00
  1.148487E+00
  1.147224E+00
  1.145961E+00
  1.144697E+00
  1.143434E+00
  1.141832E+00
  1.139871E+00
  1.137911E+00
  1.135951E+00
  1.133990E+00
  1.132030E+00
  1.129531E+00
  1.126654E+00
  1.123777E+00
  1.120900E+00
  1.118023E+00
  1.115145E+00
  1.111198E+00
  1.107234E+00
  1.103270E+00
  1.099306E+00
  1.095342E+00
  1.090705E+00
  1.085724E+00
  1.080743E+00
  1.075761E+00
  1.070780E+00
  1.065415E+00
  1.059798E+00
  1.054182E+00
  1.048567E+00
  1.042952E+00
  1.037279E+00
  1.031593E+00
  1.025910E+00
  1.020229E+00
  1.014683E+00
  1.009572E+00
  1.004468E+00
  9.993699E-01
  9.942781E-01
  9.902244E-01
  9.862980E-01
  9.823840E-01
  9.784824E-01
  9.753924E-01
  9.725442E-01
  9.697133E-01
  9.669000E-01
  9.642780E-01
  9.617019E-01
  9.591454E-01
  9.565173E-01
  9.533871E-01
  9.502751E-01
  9.471817E-01
  9.432718E-01
  9.388605E-01
  9.344634E-01
  9.295608E-01
  9.232114E-01
  9.168713E-01
  9.103994E-01
  9.022058E-01
  8.940180E-01
  8.857909E-01
  8.766623E-01
  8.675368E-01
  8.583959E-01
  8.491664E-01
  8.399376E-01
  8.308951E-01
  8.220896E-01
  8.132826E-01
  8.051378E-01
  7.971143E-01
  7.894620E-01
  7.824277E-01
  7.754252E-01
  7.694701E-01
  7.635112E-01
  7.584445E-01
  7.535892E-01
  7.494564E-01
  7.456445E-01
  7.424747E-01
  7.396033E-01
  7.374384E-01
  7.354807E-01
  7.344382E-01
  7.336851E-01
  7.337251E-01
  7.344860E-01
  7.357918E-01
  7.384216E-01
  7.420040E-01
  7.466381E-01
  7.529339E-01
  7.613100E-01
  7.719407E-01
  7.856518E-01
  8.039175E-01
  8.295771E-01
  8.678821E-01
  9.271665E-01
  1.021927E+00
  1.164060E+00
  1.278396E+00
  1.282793E+00
  1.531679E+00
  3.443392E-01
  5.929683E-07
  1.500768E+00
  1.500610E+00
  1.500452E+00
  1.500294E+00
  1.500137E+00
  1.499979E+00
  1.499821E+00
  1.499664E+00
  1.499506E+00
  1.499132E+00
  1.498753E+00
  1.498374E+00
  1.497995E+00
  1.497616E+00
  1.497237E+00
  1.496858E+00
  1.496406E+00
  1.495818E+00
  1.495229E+00
  1.494641E+00
  1.494053E+00
  1.493465E+00
  1.492877E+00
  1.492243E+00
  1.491244E+00
  1.490245E+00
  1.489245E+00
  1.488246E+00
  1.487246E+00
  1.486247E+00
  1.485109E+00
  1.483511E+00
  1.481912E+00
  1.480313E+00
  1.478715E+00
  1.477116E+00
  1.475517E+00
  1.473380E+00
  1.471008E+00
  1.468635E+00
  1.466262E+00
  1.463889E+00
  1.461516E+00
  1.458663E+00
  1.455303E+00
  1.451943E+00
  1.448583E+00
  1.445223E+00
  1.441863E+00
  1.437764E+00
  1.433148E+00
  1.428532E+00
  1.423916E+00
  1.419300E+00
  1.414684E+00
  1.408403E+00
  1.402095E+00
  1.395787E+00
  1.389480E+00
  1.383172E+00
  1.375277E+00
  1.366570E+00
  1.357862E+00
  1.349154E+00
  1.340446E+00
  1.329763E+00
  1.317839E+00
  1.305860E+00
  1.293882E+00
  1.281904E+00
  1.266609E+00
  1.250485E+00
  1.234364E+00
  1.218245E+00
  1.201020E+00
  1.180199E+00
  1.159386E+00
  1.138579E+00
  1.117779E+00
  1.093223E+00
  1.068260E+00
  1.043309E+00
  1.018371E+00
  9.914687E-01
  9.640262E-01
  9.366005E-01
  9.091911E-01
  8.812316E-01
  8.532029E-01
  8.251914E-01
  7.973486E-01
  7.703877E-01
  7.434418E-01
  7.165104E-01
  6.911180E-01
  6.666803E-01
  6.422534E-01
  6.187291E-01
  5.977154E-01
  5.767088E-01
  5.559751E-01
  5.385067E-01
  5.210428E-01
  5.037304E-01
  4.893763E-01
  4.750250E-01
  4.611065E-01
  4.492760E-01
  4.374473E-01
  4.264824E-01
  4.166238E-01
  4.067665E-01
  3.981588E-01
  3.897858E-01
  3.818158E-01
  3.745141E-01
  3.672380E-01
  3.607038E-01
  3.541697E-01
  3.481192E-01
  3.421841E-01
  3.366280E-01
  3.312401E-01
  3.262476E-01
  3.214379E-01
  3.171477E-01
  3.130079E-01
  3.096299E-01
  3.065031E-01
  3.040779E-01
  3.022915E-01
  3.009832E-01
  3.008093E-01
  3.014078E-01
  3.028477E-01
  3.055837E-01
  3.099254E-01
  3.160559E-01
  3.247577E-01
  3.375512E-01
  3.575949E-01
  3.911473E-01
  4.483744E-01
  5.442476E-01
  6.881569E-01
  8.015742E-01
  7.683014E-01
  8.925086E-01
  1.230407E-01
 -4.456925E-13
  1.009585E+00
  1.009431E+00
  1.009277E+00
  1.009123E+00
  1.008969E+00
  1.008815E+00
  1.008661E+00
  1.008507E+00
  1.008353E+00
  1.007928E+00
  1.007496E+00
  1.007064E+00
  1.006632E+00
  1.006200E+00
  1.005768E+00
  1.005336E+00
  1.004819E+00
  1.004148E+00
  1.003477E+00
  1.002806E+00
  1.002135E+00
  1.001464E+00
  1.000792E+00
  1.000091E+00
  9.991497E-01
  9.982080E-01
  9.972664E-01
  9.963247E-01
  9.953831E-01
  9.944415E-01
  9.934296E-01
  9.921842E-01
  9.909389E-01
  9.896936E-01
  9.884482E-01
  9.872029E-01
  9.859575E-01
  9.844844E-01
  9.829117E-01
  9.813389E-01
  9.797662E-01
  9.781934E-01
  9.766207E-01
  9.748741E-01
  9.729443E-01
  9.710144E-01
  9.690846E-01
  9.671547E-01
  9.652248E-01
  9.630547E-01
  9.607162E-01
  9.583778E-01
  9.560393E-01
  9.537009E-01
  9.513624E-01
  9.485547E-01
  9.457396E-01
  9.429245E-01
  9.401094E-01
  9.372942E-01
  9.341172E-01
  9.307547E-01
  9.273923E-01
  9.240299E-01
  9.206675E-01
  9.169288E-01
  9.129432E-01
  9.089578E-01
  9.049727E-01
  9.009880E-01
  8.964497E-01
  8.917735E-01
  8.870983E-01
  8.824240E-01
  8.775859E-01
  8.722141E-01
  8.668448E-01
  8.614778E-01
  8.561132E-01
  8.501932E-01
  8.442152E-01
  8.382415E-01
  8.322721E-01
  8.259102E-01
  8.194421E-01
  8.129795E-01
  8.065223E-01
  7.997558E-01
  7.929466E-01
  7.861431E-01
  7.793199E-01
  7.723594E-01
  7.654036E-01
  7.584524E-01
  7.514944E-01
  7.445330E-01
  7.375748E-01
  7.306317E-01
  7.237243E-01
  7.168188E-01
  7.099210E-01
  7.030969E-01
  6.962741E-01
  6.894562E-01
  6.827177E-01
  6.759801E-01
  6.692476E-01
  6.625361E-01
  6.558255E-01
  6.490952E-01
  6.423393E-01
  6.355845E-01
  6.287438E-01
  6.218879E-01
  6.149758E-01
  6.079698E-01
  6.009584E-01
  5.937627E-01
  5.865676E-01
  5.791987E-01
  5.717884E-01
  5.642180E-01
  5.565764E-01
  5.487713E-01
  5.408905E-01
  5.328259E-01
  5.247079E-01
  5.163642E-01
  5.079547E-01
  4.993659E-01
  4.906327E-01
  4.817926E-01
  4.727208E-01
  4.635060E-01
  4.541421E-01
  4.445719E-01
  4.348096E-01
  4.249125E-01
  4.149418E-01
  4.050775E-01
  3.957911E-01
  3.881113E-01
  3.837463E-01
  3.860577E-01
  3.982440E-01
  3.974463E-01
  3.581202E-01
  4.032328E-01
  1.549045E-01
 -1.310291E-02
  5.866321E-02
  5.865192E-02
  5.864063E-02
  5.862935E-02
  5.861806E-02
  5.860677E-02
  5.859549E-02
  5.858420E-02
  5.857292E-02
  5.855320E-02
  5.853327E-02
  5.851335E-02
  5.849343E-02
  5.847350E-02
  5.845358E-02
  5.843366E-02
  5.841539E-02
  5.840017E-02
  5.838495E-02
  5.836973E-02
  5.835452E-02
  5.833930E-02
  5.832408E-02
  5.830829E-02
  5.828787E-02
  5.826746E-02
  5.824705E-02
  5.822664E-02
  5.820623E-02
  5.818583E-02
  5.816143E-02
  5.812377E-02
  5.808611E-02
  5.804845E-02
  5.801079E-02
  5.797313E-02
  5.793547E-02
  5.787978E-02
  5.781619E-02
  5.775259E-02
  5.768900E-02
  5.762541E-02
  5.756182E-02
  5.748115E-02
  5.738246E-02
  5.728378E-02
  5.718509E-02
  5.708641E-02
  5.698772E-02
  5.686190E-02
  5.671707E-02
  5.657224E-02
  5.642741E-02
  5.628258E-02
  5.613774E-02
  5.593905E-02
  5.573950E-02
  5.553995E-02
  5.534039E-02
  5.514083E-02
  5.490742E-02
  5.465666E-02
  5.440589E-02
  5.415513E-02
  5.390437E-02
  5.363428E-02
  5.335154E-02
  5.306882E-02
  5.278612E-02
  5.250346E-02
  5.221786E-02
  5.193162E-02
  5.164550E-02
  5.135948E-02
  5.108025E-02
  5.082294E-02
  5.056594E-02
  5.030924E-02
  5.005286E-02
  4.984871E-02
  4.965095E-02
  4.945381E-02
  4.925729E-02
  4.910160E-02
  4.895806E-02
  4.881539E-02
  4.867359E-02
  4.854141E-02
  4.841153E-02
  4.828262E-02
  4.815011E-02
  4.799233E-02
  4.783547E-02
  4.767953E-02
  4.748252E-02
  4.726030E-02
  4.703878E-02
  4.679185E-02
  4.647214E-02
  4.615290E-02
  4.582704E-02
  4.541459E-02
  4.500243E-02
  4.458829E-02
  4.412883E-02
  4.366951E-02
  4.320943E-02
  4.274491E-02
  4.228042E-02
  4.182531E-02
  4.138214E-02
  4.093888E-02
  4.052895E-02
  4.012513E-02
  3.973998E-02
  3.938594E-02
  3.903349E-02
  3.873375E-02
  3.843382E-02
  3.817878E-02
  3.793438E-02
  3.772634E-02
  3.753444E-02
  3.737487E-02
  3.723031E-02
  3.712130E-02
  3.702272E-02
  3.697021E-02
  3.693226E-02
  3.693423E-02
  3.697248E-02
  3.703816E-02
  3.717049E-02
  3.735076E-02
  3.758397E-02
  3.790083E-02
  3.832240E-02
  3.885745E-02
  3.954757E-02
  4.046694E-02
  4.175850E-02
  4.368658E-02
  4.667070E-02
  5.144058E-02
  5.859500E-02
  6.435018E-02
  6.457135E-02
  7.709927E-02
  2.380930E-02
  7.247622E-03
  1.671739E-01
  1.671563E-01
  1.671387E-01
  1.671212E-01
  1.671036E-01
  1.670860E-01
  1.670685E-01
  1.670509E-01
  1.670333E-01
  1.669917E-01
  1.669495E-01
  1.669073E-01
  1.668650E-01
  1.668228E-01
  1.667806E-01
  1.667384E-01
  1.666879E-01
  1.666224E-01
  1.665569E-01
  1.664914E-01
  1.664259E-01
  1.663604E-01
  1.662949E-01
  1.662243E-01
  1.661129E-01
  1.660016E-01
  1.658903E-01
  1.657790E-01
  1.656676E-01
  1.655563E-01
  1.654296E-01
  1.652515E-01
  1.650734E-01
  1.648953E-01
  1.647173E-01
  1.645392E-01
  1.643611E-01
  1.641231E-01
  1.638588E-01
  1.635945E-01
  1.633301E-01
  1.630658E-01
  1.628015E-01
  1.624837E-01
  1.621094E-01
  1.617351E-01
  1.613609E-01
  1.609866E-01
  1.606123E-01
  1.601557E-01
  1.596416E-01
  1.591274E-01
  1.586132E-01
  1.580990E-01
  1.575848E-01
  1.568851E-01
  1.561825E-01
  1.554799E-01
  1.547773E-01
  1.540746E-01
  1.531952E-01
  1.522253E-01
  1.512553E-01
  1.502854E-01
  1.493154E-01
  1.481253E-01
  1.467971E-01
  1.454628E-01
  1.441284E-01
  1.427941E-01
  1.410904E-01
  1.392943E-01
  1.374984E-01
  1.357028E-01
  1.337840E-01
  1.314647E-01
  1.291461E-01
  1.268283E-01
  1.245112E-01
  1.217757E-01
  1.189947E-01
  1.162152E-01
  1.134371E-01
  1.104401E-01
  1.073829E-01
  1.043276E-01
  1.012741E-01
  9.815933E-02
  9.503686E-02
  9.191629E-02
  8.881455E-02
  8.581108E-02
  8.280929E-02
  7.980914E-02
  7.698047E-02
  7.425820E-02
  7.153715E-02
  6.891668E-02
  6.657596E-02
  6.423603E-02
  6.192651E-02
  5.998081E-02
  5.803560E-02
  5.610728E-02
  5.450852E-02
  5.291007E-02
  5.135983E-02
  5.004218E-02
  4.872472E-02
  4.750348E-02
  4.640548E-02
  4.530760E-02
  4.434890E-02
  4.341634E-02
  4.252866E-02
  4.171541E-02
  4.090501E-02
  4.017723E-02
  3.944945E-02
  3.877552E-02
  3.811444E-02
  3.749557E-02
  3.689543E-02
  3.633932E-02
  3.580357E-02
  3.532567E-02
  3.486452E-02
  3.448823E-02
  3.413992E-02
  3.386975E-02
  3.367072E-02
  3.352495E-02
  3.350554E-02
  3.357214E-02
  3.373247E-02
  3.403717E-02
  3.452071E-02
  3.520349E-02
  3.617266E-02
  3.759759E-02
  3.983006E-02
  4.356715E-02
  4.994119E-02
  6.061969E-02
  7.664855E-02
  8.928107E-02
  8.557491E-02
  9.940917E-02
  1.882523E-02
 -1.205399E-08
  1.009716E+00
  1.009562E+00
  1.009408E+00
  1.009254E+00
  1.009100E+00
  1.008946E+00
  1.008792E+00
  1.008638E+00
  1.008484E+00
  1.008058E+00
  1.007626E+00
  1.007195E+00
  1.006763E+00
  1.006331E+00
  1.005899E+00
  1.005467E+00
  1.004950E+00
  1.004279E+00
  1.003608E+00
  1.002937E+00
  1.002266E+00
  1.001595E+00
  1.000924E+00
  1.000223E+00
  9.992815E-01