 Title= "ADflow Lift Distribution Data"
Variables = "eta" "CoordinateX" "CoordinateY" "CoordinateZ" "Lift" "Drag" "Moment" "Normalized Lift" "Normalized Drag" "Normalized Moment" "CL" "CD" "CM" "CLp" "CDp" "CMp" "CLv" "CDv" "CMv" "Elliptical" "thickness" "twist" "chord" "fx" "fy" "fz" 
Zone T= "LiftDist_01 allWalls: : z normal"
 I=          150
 DATAPACKING=BLOCK
  0.000000E+00
  6.711405E-03
  1.342281E-02
  2.013422E-02
  2.684563E-02
  3.355704E-02
  4.026845E-02
  4.697986E-02
  5.369127E-02
  6.040268E-02
  6.711409E-02
  7.382550E-02
  8.053691E-02
  8.724832E-02
  9.395973E-02
  1.006711E-01
  1.073825E-01
  1.140940E-01
  1.208054E-01
  1.275168E-01
  1.342282E-01
  1.409396E-01
  1.476510E-01
  1.543624E-01
  1.610738E-01
  1.677852E-01
  1.744966E-01
  1.812081E-01
  1.879195E-01
  1.946309E-01
  2.013423E-01
  2.080537E-01
  2.147651E-01
  2.214765E-01
  2.281879E-01
  2.348993E-01
  2.416107E-01
  2.483221E-01
  2.550336E-01
  2.617450E-01
  2.684564E-01
  2.751678E-01
  2.818792E-01
  2.885906E-01
  2.953020E-01
  3.020134E-01
  3.087248E-01
  3.154362E-01
  3.221476E-01
  3.288591E-01
  3.355705E-01
  3.422819E-01
  3.489933E-01
  3.557047E-01
  3.624161E-01
  3.691275E-01
  3.758389E-01
  3.825503E-01
  3.892617E-01
  3.959732E-01
  4.026846E-01
  4.093960E-01
  4.161074E-01
  4.228188E-01
  4.295302E-01
  4.362416E-01
  4.429530E-01
  4.496644E-01
  4.563758E-01
  4.630872E-01
  4.697987E-01
  4.765101E-01
  4.832215E-01
  4.899329E-01
  4.966443E-01
  5.033557E-01
  5.100671E-01
  5.167785E-01
  5.234899E-01
  5.302013E-01
  5.369128E-01
  5.436242E-01
  5.503356E-01
  5.570470E-01
  5.637584E-01
  5.704698E-01
  5.771812E-01
  5.838926E-01
  5.906040E-01
  5.973154E-01
  6.040268E-01
  6.107383E-01
  6.174497E-01
  6.241611E-01
  6.308725E-01
  6.375839E-01
  6.442953E-01
  6.510067E-01
  6.577181E-01
  6.644295E-01
  6.711409E-01
  6.778524E-01
  6.845638E-01
  6.912752E-01
  6.979866E-01
  7.046980E-01
  7.114094E-01
  7.181208E-01
  7.248322E-01
  7.315436E-01
  7.382550E-01
  7.449664E-01
  7.516779E-01
  7.583893E-01
  7.651007E-01
  7.718121E-01
  7.785235E-01
  7.852349E-01
  7.919463E-01
  7.986577E-01
  8.053691E-01
  8.120805E-01
  8.187919E-01
  8.255034E-01
  8.322148E-01
  8.389262E-01
  8.456376E-01
  8.523490E-01
  8.590604E-01
  8.657718E-01
  8.724832E-01
  8.791946E-01
  8.859060E-01
  8.926175E-01
  8.993289E-01
  9.060403E-01
  9.127517E-01
  9.194631E-01
  9.261745E-01
  9.328859E-01
  9.395973E-01
  9.463087E-01
  9.530201E-01
  9.597315E-01
  9.664430E-01
  9.731544E-01
  9.798658E-01
  9.865772E-01
  9.932886E-01
  1.000000E+00
  0.000000E+00
  0.000000E+00
  0.000000E+00
  0.000000E+00
  0.000000E+00
  0.000000E+00
  0.000000E+00
  0.000000E+00
  0.000000E+00
  0.000000E+00
  0.000000E+00
  0.000000E+00
  0.000000E+00
  0.000000E+00
  0.000000E+00
  0.000000E+00
  0.000000E+00
  0.000000E+00
  0.000000E+00
  0.000000E+00
  0.000000E+00
  0.000000E+00
  0.000000E+00
  0.000000E+00
  0.000000E+00
  0.000000E+00
  0.000000E+00
  0.000000E+00
  0.000000E+00
  0.000000E+00
  0.000000E+00
  0.000000E+00
  0.000000E+00
  0.000000E+00
  0.000000E+00
  0.000000E+00
  0.000000E+00
  0.000000E+00
  0.000000E+00
  0.000000E+00
  0.000000E+00
  0.000000E+00
  0.000000E+00
  0.000000E+00
  0.000000E+00
  0.000000E+00
  0.000000E+00
  0.000000E+00
  0.000000E+00
  0.000000E+00
  0.000000E+00
  0.000000E+00
  0.000000E+00
  0.000000E+00
  0.000000E+00
  0.000000E+00
  0.000000E+00
  0.000000E+00
  0.000000E+00
  0.000000E+00
  0.000000E+00
  0.000000E+00
  0.000000E+00
  0.000000E+00
  0.000000E+00
  0.000000E+00
  0.000000E+00
  0.000000E+00
  0.000000E+00
  0.000000E+00
  0.000000E+00
  0.000000E+00
  0.000000E+00
  0.000000E+00
  0.000000E+00
  0.000000E+00
  0.000000E+00
  0.000000E+00
  0.000000E+00
  0.000000E+00
  0.000000E+00
  0.000000E+00
  0.000000E+00
  0.000000E+00
  0.000000E+00
  0.000000E+00
  0.000000E+00
  0.000000E+00
  0.000000E+00
  0.000000E+00
  0.000000E+00
  0.000000E+00
  0.000000E+00
  0.000000E+00
  0.000000E+00
  0.000000E+00
  0.000000E+00
  0.000000E+00
  0.000000E+00
  0.000000E+00
  0.000000E+00
  0.000000E+00
  0.000000E+00
  0.000000E+00
  0.000000E+00
  0.000000E+00
  0.000000E+00
  0.000000E+00
  0.000000E+00
  0.000000E+00
  0.000000E+00
  0.000000E+00
  0.000000E+00
  0.000000E+00
  0.000000E+00
  0.000000E+00
  0.000000E+00
  0.000000E+00
  0.000000E+00
  0.000000E+00
  0.000000E+00
  0.000000E+00
  0.000000E+00
  0.000000E+00
  0.000000E+00
  0.000000E+00
  0.000000E+00
  0.000000E+00
  0.000000E+00
  0.000000E+00
  0.000000E+00
  0.000000E+00
  0.000000E+00
  0.000000E+00
  0.000000E+00
  0.000000E+00
  0.000000E+00
  0.000000E+00
  0.000000E+00
  0.000000E+00
  0.000000E+00
  0.000000E+00
  0.000000E+00
  0.000000E+00
  0.000000E+00
  0.000000E+00
  0.000000E+00
  0.000000E+00
  0.000000E+00
  0.000000E+00
  0.000000E+00
  0.000000E+00
  0.000000E+00
  0.000000E+00
  0.000000E+00
  0.000000E+00
  0.000000E+00
  0.000000E+00
  0.000000E+00
  0.000000E+00
  0.000000E+00
  0.000000E+00
  0.000000E+00
  0.000000E+00
  0.000000E+00
  0.000000E+00
  0.000000E+00
  0.000000E+00
  0.000000E+00
  0.000000E+00
  0.000000E+00
  0.000000E+00
  0.000000E+00
  0.000000E+00
  0.000000E+00
  0.000000E+00
  0.000000E+00
  0.000000E+00
  0.000000E+00
  0.000000E+00
  0.000000E+00
  0.000000E+00
  0.000000E+00
  0.000000E+00
  0.000000E+00
  0.000000E+00
  0.000000E+00
  0.000000E+00
  0.000000E+00
  0.000000E+00
  0.000000E+00
  0.000000E+00
  0.000000E+00
  0.000000E+00
  0.000000E+00
  0.000000E+00
  0.000000E+00
  0.000000E+00
  0.000000E+00
  0.000000E+00
  0.000000E+00
  0.000000E+00
  0.000000E+00
  0.000000E+00
  0.000000E+00
  0.000000E+00
  0.000000E+00
  0.000000E+00
  0.000000E+00
  0.000000E+00
  0.000000E+00
  0.000000E+00
  0.000000E+00
  0.000000E+00
  0.000000E+00
  0.000000E+00
  0.000000E+00
  0.000000E+00
  0.000000E+00
  0.000000E+00
  0.000000E+00
  0.000000E+00
  0.000000E+00
  0.000000E+00
  0.000000E+00
  0.000000E+00
  0.000000E+00
  0.000000E+00
  0.000000E+00
  0.000000E+00
  0.000000E+00
  0.000000E+00
  0.000000E+00
  0.000000E+00
  0.000000E+00
  0.000000E+00
  0.000000E+00
  0.000000E+00
  0.000000E+00
  0.000000E+00
  0.000000E+00
  0.000000E+00
  0.000000E+00
  0.000000E+00
  0.000000E+00
  0.000000E+00
  0.000000E+00
  0.000000E+00
  0.000000E+00
  0.000000E+00
  0.000000E+00
  0.000000E+00
  0.000000E+00
  0.000000E+00
  0.000000E+00
  0.000000E+00
  0.000000E+00
  0.000000E+00
  0.000000E+00
  0.000000E+00
  0.000000E+00
  0.000000E+00
  0.000000E+00
  0.000000E+00
  0.000000E+00
  0.000000E+00
  0.000000E+00
  0.000000E+00
  0.000000E+00
  0.000000E+00
  0.000000E+00
  0.000000E+00
  0.000000E+00
  0.000000E+00
  0.000000E+00
  0.000000E+00
  0.000000E+00
  0.000000E+00
  0.000000E+00
  0.000000E+00
  0.000000E+00
  0.000000E+00
  0.000000E+00
  0.000000E+00
  0.000000E+00
  0.000000E+00
  0.000000E+00
  0.000000E+00
  0.000000E+00
  0.000000E+00
  0.000000E+00
  0.000000E+00
  0.000000E+00
  0.000000E+00
  0.000000E+00
  0.000000E+00
  0.000000E+00
  0.000000E+00
  0.000000E+00
  0.000000E+00
  1.000000E-08
  1.695085E-02
  3.390169E-02
  5.085254E-02
  6.780338E-02
  8.475423E-02
  1.017051E-01
  1.186559E-01
  1.356068E-01
  1.525576E-01
  1.695085E-01
  1.864593E-01
  2.034101E-01
  2.203610E-01
  2.373118E-01
  2.542627E-01
  2.712135E-01
  2.881644E-01
  3.051152E-01
  3.220661E-01
  3.390169E-01
  3.559678E-01
  3.729186E-01
  3.898694E-01
  4.068203E-01
  4.237711E-01
  4.407220E-01
  4.576728E-01
  4.746237E-01
  4.915745E-01
  5.085254E-01
  5.254762E-01
  5.424271E-01
  5.593779E-01
  5.763287E-01
  5.932796E-01
  6.102304E-01
  6.271813E-01
  6.441321E-01
  6.610830E-01
  6.780338E-01
  6.949847E-01
  7.119355E-01
  7.288864E-01
  7.458372E-01
  7.627880E-01
  7.797389E-01
  7.966897E-01
  8.136406E-01
  8.305914E-01
  8.475423E-01
  8.644931E-01
  8.814440E-01
  8.983948E-01
  9.153457E-01
  9.322965E-01
  9.492473E-01
  9.661982E-01
  9.831490E-01
  1.000100E+00
  1.017051E+00
  1.034002E+00
  1.050952E+00
  1.067903E+00
  1.084854E+00
  1.101805E+00
  1.118756E+00
  1.135707E+00
  1.152657E+00
  1.169608E+00
  1.186559E+00
  1.203510E+00
  1.220461E+00
  1.237412E+00
  1.254363E+00
  1.271313E+00
  1.288264E+00
  1.305215E+00
  1.322166E+00
  1.339117E+00
  1.356068E+00
  1.373018E+00
  1.389969E+00
  1.406920E+00
  1.423871E+00
  1.440822E+00
  1.457773E+00
  1.474724E+00
  1.491674E+00
  1.508625E+00
  1.525576E+00
  1.542527E+00
  1.559478E+00
  1.576429E+00
  1.593379E+00
  1.610330E+00
  1.627281E+00
  1.644232E+00
  1.661183E+00
  1.678134E+00
  1.695085E+00
  1.712035E+00
  1.728986E+00
  1.745937E+00
  1.762888E+00
  1.779839E+00
  1.796790E+00
  1.813740E+00
  1.830691E+00
  1.847642E+00
  1.864593E+00
  1.881544E+00
  1.898495E+00
  1.915446E+00
  1.932396E+00
  1.949347E+00
  1.966298E+00
  1.983249E+00
  2.000200E+00
  2.017151E+00
  2.034101E+00
  2.051052E+00
  2.068003E+00
  2.084954E+00
  2.101905E+00
  2.118856E+00
  2.135807E+00
  2.152757E+00
  2.169708E+00
  2.186659E+00
  2.203610E+00
  2.220561E+00
  2.237512E+00
  2.254462E+00
  2.271413E+00
  2.288364E+00
  2.305315E+00
  2.322266E+00
  2.339217E+00
  2.356168E+00
  2.373118E+00
  2.390069E+00
  2.407020E+00
  2.423971E+00
  2.440922E+00
  2.457873E+00
  2.474823E+00
  2.491774E+00
  2.508725E+00
  2.525676E+00
  1.106910E+04
  1.106722E+04
  1.106534E+04
  1.106345E+04
  1.106157E+04
  1.105969E+04
  1.105781E+04
  1.105592E+04
  1.105404E+04
  1.104863E+04
  1.104313E+04
  1.103764E+04
  1.103214E+04
  1.102664E+04
  1.102115E+04
  1.101565E+04
  1.100897E+04
  1.100012E+04
  1.099127E+04
  1.098241E+04
  1.097356E+04
  1.096471E+04
  1.095586E+04
  1.094665E+04
  1.093452E+04
  1.092239E+04
  1.091027E+04
  1.089814E+04
  1.088602E+04
  1.087389E+04
  1.086097E+04
  1.084538E+04
  1.082979E+04
  1.081420E+04
  1.079861E+04
  1.078302E+04
  1.076743E+04
  1.074938E+04
  1.073026E+04
  1.071114E+04
  1.069202E+04
  1.067290E+04
  1.065378E+04
  1.063298E+04
  1.061042E+04
  1.058785E+04
  1.056529E+04
  1.054272E+04
  1.052016E+04
  1.049560E+04
  1.046965E+04
  1.044370E+04
  1.041776E+04
  1.039181E+04
  1.036587E+04
  1.033664E+04
  1.030736E+04
  1.027808E+04
  1.024881E+04
  1.021954E+04
  1.018816E+04
  1.015570E+04
  1.012325E+04
  1.009080E+04
  1.005836E+04
  1.002400E+04
  9.988379E+03
  9.952765E+03
  9.917154E+03
  9.881547E+03
  9.843228E+03
  9.804230E+03
  9.765236E+03
  9.726245E+03
  9.686410E+03
  9.643824E+03
  9.601240E+03
  9.558658E+03
  9.516078E+03
  9.470180E+03
  9.423912E+03
  9.377645E+03
  9.331380E+03
  9.282236E+03
  9.232284E+03
  9.182333E+03
  9.132384E+03
  9.079512E+03
  9.026195E+03
  8.972880E+03
  8.919137E+03
  8.862951E+03
  8.806771E+03
  8.750596E+03
  8.692782E+03
  8.633962E+03
  8.575155E+03
  8.515668E+03
  8.454265E+03
  8.392887E+03
  8.331350E+03
  8.267605E+03
  8.203898E+03
  8.140103E+03
  8.073807E+03
  8.007557E+03
  7.940767E+03
  7.871192E+03
  7.801661E+03
  7.730408E+03
  7.656930E+03
  7.583491E+03
  7.506437E+03
  7.428730E+03
  7.349394E+03
  7.267327E+03
  7.185141E+03
  7.098758E+03
  7.012393E+03
  6.922616E+03
  6.832035E+03
  6.738579E+03
  6.643854E+03
  6.546324E+03
  6.447502E+03
  6.345624E+03
  6.242870E+03
  6.136604E+03
  6.029414E+03
  5.919708E+03
  5.808185E+03
  5.695330E+03
  5.579794E+03
  5.462662E+03
  5.343838E+03
  5.222585E+03
  5.098724E+03
  4.972595E+03
  4.844404E+03
  4.715481E+03
  4.590190E+03
  4.478955E+03
  4.399583E+03
  4.387461E+03
  4.479727E+03
  4.444367E+03
  4.003891E+03
  4.498483E+03
  1.347320E+03
 -1.203042E-04
  6.314641E+02
  6.313502E+02
  6.312363E+02
  6.311224E+02
  6.310086E+02
  6.308947E+02
  6.307808E+02
  6.306670E+02
  6.305531E+02
  6.303347E+02
  6.301137E+02
  6.298927E+02
  6.296717E+02
  6.294507E+02
  6.292297E+02
  6.290086E+02
  6.288036E+02
  6.286278E+02
  6.284520E+02
  6.282762E+02
  6.281003E+02
  6.279245E+02
  6.277486E+02
  6.275702E+02
  6.273717E+02
  6.271732E+02
  6.269746E+02
  6.267761E+02
  6.265775E+02
  6.263789E+02
  6.261598E+02
  6.258728E+02
  6.255857E+02
  6.252986E+02
  6.250116E+02
  6.247244E+02
  6.244373E+02
  6.240880E+02
  6.237114E+02
  6.233348E+02
  6.229582E+02
  6.225815E+02
  6.222049E+02
  6.217755E+02
  6.212905E+02
  6.208055E+02
  6.203204E+02
  6.198353E+02
  6.193502E+02
  6.187439E+02
  6.180528E+02
  6.173615E+02
  6.166702E+02
  6.159789E+02
  6.152875E+02
  6.142918E+02
  6.132912E+02
  6.122906E+02
  6.112898E+02
  6.102891E+02
  6.090849E+02
  6.077764E+02
  6.064678E+02
  6.051592E+02
  6.038505E+02
  6.023878E+02
  6.008242E+02
  5.992604E+02
  5.976966E+02
  5.961326E+02
  5.944201E+02
  5.926702E+02
  5.909201E+02
  5.891697E+02
  5.874041E+02
  5.855898E+02
  5.837750E+02
  5.819599E+02
  5.801445E+02
  5.782799E+02
  5.764096E+02
  5.745389E+02
  5.726679E+02
  5.706230E+02
  5.685289E+02
  5.664345E+02
  5.643398E+02
  5.619306E+02
  5.594730E+02
  5.570152E+02
  5.544917E+02
  5.515950E+02
  5.486990E+02
  5.458036E+02
  5.425127E+02
  5.389791E+02
  5.354482E+02
  5.317175E+02
  5.274238E+02
  5.231364E+02
  5.188152E+02
  5.140101E+02
  5.092146E+02
  5.044196E+02
  4.994544E+02
  4.944997E+02
  4.895600E+02
  4.846529E+02
  4.797548E+02
  4.749585E+02
  4.702883E+02
  4.656244E+02
  4.612798E+02
  4.569973E+02
  4.528961E+02
  4.490920E+02
  4.453058E+02
  4.420333E+02
  4.387590E+02
  4.359464E+02
  4.332416E+02
  4.309223E+02
  4.287721E+02
  4.269621E+02
  4.253083E+02
  4.240200E+02
  4.228378E+02
  4.221263E+02
  4.215655E+02
  4.214188E+02
  4.216539E+02
  4.221829E+02
  4.234224E+02
  4.251828E+02
  4.275194E+02
  4.307518E+02
  4.350776E+02
  4.405692E+02
  4.476318E+02
  4.570069E+02
  4.701778E+02
  4.899960E+02
  5.211231E+02
  5.717653E+02
  6.499209E+02
  7.187470E+02
  7.315318E+02
  8.830634E+02
  2.139181E+02
  3.890501E-04
  1.815260E+03
  1.814578E+03
  1.813897E+03
  1.813215E+03
  1.812534E+03
  1.811852E+03
  1.811171E+03
  1.810489E+03
  1.809808E+03
  1.808292E+03
  1.806756E+03
  1.805220E+03
  1.803684E+03
  1.802148E+03
  1.800611E+03
  1.799075E+03
  1.797397E+03
  1.795458E+03
  1.793519E+03
  1.791581E+03
  1.789642E+03
  1.787703E+03
  1.785764E+03
  1.783747E+03
  1.781099E+03
  1.778451E+03
  1.775804E+03
  1.773156E+03
  1.770508E+03
  1.767861E+03
  1.765020E+03
  1.761534E+03
  1.758049E+03
  1.754563E+03
  1.751078E+03
  1.747593E+03
  1.744108E+03
  1.740078E+03
  1.735809E+03
  1.731541E+03
  1.727272E+03
  1.723004E+03
  1.718736E+03
  1.714135E+03
  1.709182E+03
  1.704229E+03
  1.699277E+03
  1.694324E+03
  1.689372E+03
  1.684068E+03
  1.678518E+03
  1.672967E+03
  1.667418E+03
  1.661868E+03
  1.656319E+03
  1.650310E+03
  1.644294E+03
  1.638279E+03
  1.632264E+03
  1.626250E+03
  1.620047E+03
  1.613747E+03
  1.607448E+03
  1.601150E+03
  1.594853E+03
  1.588409E+03
  1.581871E+03
  1.575333E+03
  1.568797E+03
  1.562261E+03
  1.555526E+03
  1.548741E+03
  1.541957E+03
  1.535174E+03
  1.528380E+03
  1.521550E+03
  1.514721E+03
  1.507892E+03
  1.501063E+03
  1.494291E+03
  1.487525E+03
  1.480759E+03
  1.473994E+03
  1.467115E+03
  1.460205E+03
  1.453294E+03
  1.446385E+03
  1.439352E+03
  1.432300E+03
  1.425250E+03
  1.418219E+03
  1.411298E+03
  1.404379E+03
  1.397462E+03
  1.390549E+03
  1.383641E+03
  1.376739E+03
  1.369721E+03
  1.362375E+03
  1.355040E+03
  1.347672E+03
  1.339792E+03
  1.331928E+03
  1.324050E+03
  1.315590E+03
  1.307150E+03
  1.298545E+03
  1.289062E+03
  1.279600E+03
  1.269489E+03
  1.258539E+03
  1.247606E+03
  1.235248E+03
  1.222633E+03
  1.209373E+03
  1.195033E+03
  1.180645E+03
  1.164617E+03
  1.148594E+03
  1.131347E+03
  1.113809E+03
  1.095439E+03
  1.076701E+03
  1.057379E+03
  1.037789E+03
  1.017821E+03
  9.977457E+02
  9.775907E+02
  9.575197E+02
  9.377147E+02
  9.183792E+02
  8.994119E+02
  8.815381E+02
  8.644981E+02
  8.483665E+02
  8.336280E+02
  8.204903E+02
  8.090148E+02
  7.998633E+02
  7.944635E+02
  7.961692E+02
  8.120737E+02
  8.541399E+02
  9.408509E+02
  1.086437E+03
  1.197842E+03
  1.130319E+03
  1.280630E+03
  2.069506E+02
 -8.932627E-11
  1.245587E+00
  1.245375E+00
  1.245163E+00
  1.244951E+00
  1.244740E+00
  1.244528E+00
  1.244316E+00
  1.244104E+00
  1.243892E+00
  1.243283E+00
  1.242665E+00
  1.242046E+00
  1.241428E+00
  1.240809E+00
  1.240191E+00
  1.239572E+00
  1.238820E+00
  1.237824E+00
  1.236828E+00
  1.235832E+00
  1.234836E+00
  1.233840E+00
  1.232844E+00
  1.231807E+00
  1.230443E+00
  1.229078E+00
  1.227714E+00
  1.226349E+00
  1.224985E+00
  1.223621E+00
  1.222166E+00
  1.220412E+00
  1.218657E+00
  1.216903E+00
  1.215148E+00
  1.213394E+00
  1.211640E+00
  1.209609E+00
  1.207457E+00
  1.205306E+00
  1.203154E+00
  1.201003E+00
  1.198851E+00
  1.196511E+00
  1.193972E+00
  1.191432E+00
  1.188893E+00
  1.186354E+00
  1.183815E+00
  1.181052E+00
  1.178132E+00
  1.175212E+00
  1.172292E+00
  1.169372E+00
  1.166453E+00
  1.163164E+00
  1.159869E+00
  1.156575E+00
  1.153281E+00
  1.149987E+00
  1.146456E+00
  1.142804E+00
  1.139152E+00
  1.135501E+00
  1.131850E+00
  1.127983E+00
  1.123975E+00
  1.119967E+00
  1.115960E+00
  1.111953E+00
  1.107641E+00
  1.103253E+00
  1.098865E+00
  1.094478E+00
  1.089995E+00
  1.085203E+00
  1.080411E+00
  1.075619E+00
  1.070828E+00
  1.065663E+00
  1.060456E+00
  1.055250E+00
  1.050044E+00
  1.044514E+00
  1.038893E+00
  1.033272E+00
  1.027651E+00
  1.021702E+00
  1.015702E+00
  1.009703E+00
  1.003655E+00
  9.973326E-01
  9.910107E-01
  9.846894E-01
  9.781837E-01
  9.715648E-01
  9.649473E-01
  9.582534E-01
  9.513438E-01
  9.444370E-01
  9.375124E-01
  9.303393E-01
  9.231705E-01
  9.159917E-01
  9.085315E-01
  9.010765E-01
  8.935607E-01
  8.857316E-01
  8.779074E-01
  8.698894E-01
  8.616210E-01
  8.533571E-01
  8.446863E-01
  8.359421E-01
  8.270146E-01
  8.177797E-01
  8.085315E-01
  7.988109E-01
  7.890925E-01
  7.789900E-01
  7.687971E-01
  7.582806E-01
  7.476214E-01
  7.366465E-01
  7.255262E-01
  7.140621E-01
  7.024993E-01
  6.905415E-01
  6.784795E-01
  6.661345E-01
  6.535850E-01
  6.408856E-01
  6.278846E-01
  6.147039E-01
  6.013329E-01
  5.876885E-01
  5.737505E-01
  5.595575E-01
  5.451324E-01
  5.306249E-01
  5.165262E-01
  5.040090E-01
  4.950774E-01
  4.937134E-01
  5.040960E-01
  5.001169E-01
  4.505509E-01
  5.062065E-01
  1.516115E-01
 -1.353762E-08
  1.127461E+00
  1.127258E+00
  1.127054E+00
  1.126851E+00
  1.126648E+00
  1.126444E+00
  1.126241E+00
  1.126038E+00
  1.125834E+00
  1.125444E+00
  1.125050E+00
  1.124655E+00
  1.124261E+00
  1.123866E+00
  1.123471E+00
  1.123077E+00
  1.122711E+00
  1.122397E+00
  1.122083E+00
  1.121769E+00
  1.121455E+00
  1.121141E+00
  1.120827E+00
  1.120508E+00
  1.120154E+00
  1.119800E+00
  1.119445E+00
  1.119090E+00
  1.118736E+00
  1.118381E+00
  1.117990E+00
  1.117478E+00
  1.116965E+00
  1.116453E+00
  1.115940E+00
  1.115427E+00
  1.114915E+00
  1.114291E+00
  1.113619E+00
  1.112946E+00
  1.112274E+00
  1.111601E+00
  1.110929E+00
  1.110162E+00
  1.109296E+00
  1.108430E+00
  1.107564E+00
  1.106698E+00
  1.105832E+00
  1.104749E+00
  1.103515E+00
  1.102281E+00
  1.101047E+00
  1.099812E+00
  1.098578E+00
  1.096800E+00
  1.095014E+00
  1.093227E+00
  1.091440E+00
  1.089653E+00
  1.087503E+00
  1.085167E+00
  1.082831E+00
  1.080494E+00
  1.078157E+00
  1.075546E+00
  1.072754E+00
  1.069962E+00
  1.067170E+00
  1.064377E+00
  1.061320E+00
  1.058195E+00
  1.055071E+00
  1.051945E+00
  1.048793E+00
  1.045554E+00
  1.042313E+00
  1.039073E+00
  1.035831E+00
  1.032502E+00
  1.029163E+00
  1.025823E+00
  1.022482E+00
  1.018831E+00
  1.015092E+00
  1.011352E+00
  1.007612E+00
  1.003311E+00
  9.989227E-01
  9.945346E-01
  9.900289E-01
  9.848569E-01
  9.796861E-01
  9.745165E-01
  9.686407E-01
  9.623315E-01
  9.560273E-01
  9.493662E-01
  9.416999E-01
  9.340449E-01
  9.263296E-01
  9.177501E-01
  9.091879E-01
  9.006266E-01
  8.917614E-01
  8.829149E-01
  8.740951E-01
  8.653337E-01
  8.565883E-01
  8.480246E-01
  8.396862E-01
  8.313589E-01
  8.236016E-01
  8.159554E-01
  8.086328E-01
  8.018407E-01
  7.950806E-01
  7.892376E-01
  7.833915E-01
  7.783697E-01
  7.735403E-01
  7.693994E-01
  7.655602E-01
  7.623284E-01
  7.593757E-01
  7.570753E-01
  7.549646E-01
  7.536942E-01
  7.526930E-01
  7.524311E-01
  7.528508E-01
  7.537954E-01
  7.560084E-01
  7.591517E-01
  7.633235E-01
  7.690948E-01
  7.768184E-01
  7.866235E-01
  7.992335E-01
  8.159725E-01
  8.394888E-01
  8.748737E-01
  9.304502E-01
  1.020870E+00
  1.160415E+00
  1.283302E+00
  1.306129E+00
  1.576684E+00
  3.819445E-01
  6.946378E-07
  1.253215E+00
  1.252744E+00
  1.252274E+00
  1.251803E+00
  1.251333E+00
  1.250862E+00
  1.250392E+00
  1.249922E+00
  1.249451E+00
  1.248405E+00
  1.247344E+00
  1.246284E+00
  1.245223E+00
  1.244163E+00
  1.243102E+00
  1.242042E+00
  1.240883E+00
  1.239544E+00
  1.238206E+00
  1.236867E+00
  1.235529E+00
  1.234190E+00
  1.232852E+00
  1.231459E+00
  1.229631E+00
  1.227803E+00
  1.225975E+00
  1.224147E+00
  1.222320E+00
  1.220492E+00
  1.218530E+00
  1.216124E+00
  1.213718E+00
  1.211311E+00
  1.208905E+00
  1.206499E+00
  1.204093E+00
  1.201311E+00
  1.198364E+00
  1.195417E+00
  1.192470E+00
  1.189524E+00
  1.186577E+00
  1.183400E+00
  1.179981E+00
  1.176562E+00
  1.173143E+00
  1.169724E+00
  1.166305E+00
  1.162643E+00
  1.158811E+00
  1.154979E+00
  1.151148E+00
  1.147317E+00
  1.143486E+00
  1.139337E+00
  1.135184E+00
  1.131031E+00
  1.126879E+00
  1.122727E+00
  1.118444E+00
  1.114095E+00
  1.109746E+00
  1.105398E+00
  1.101051E+00
  1.096602E+00
  1.092088E+00
  1.087575E+00
  1.083062E+00
  1.078550E+00
  1.073900E+00
  1.069216E+00
  1.064533E+00
  1.059850E+00
  1.055160E+00
  1.050444E+00
  1.045729E+00
  1.041015E+00
  1.036300E+00
  1.031625E+00
  1.026954E+00
  1.022283E+00
  1.017613E+00
  1.012864E+00
  1.008093E+00
  1.003322E+00
  9.985517E-01
  9.936962E-01
  9.888282E-01
  9.839608E-01
  9.791070E-01
  9.743288E-01
  9.695520E-01
  9.647765E-01
  9.600039E-01
  9.552352E-01
  9.504698E-01
  9.456249E-01
  9.405536E-01
  9.354894E-01
  9.304027E-01
  9.249622E-01
  9.195333E-01
  9.140949E-01
  9.082542E-01
  9.024274E-01
  8.964865E-01
  8.899400E-01
  8.834074E-01
  8.764269E-01
  8.688671E-01
  8.613195E-01
  8.527875E-01
  8.440784E-01
  8.349245E-01
  8.250239E-01
  8.150910E-01
  8.040255E-01
  7.929639E-01
  7.810568E-01
  7.689492E-01
  7.562669E-01
  7.433304E-01
  7.299911E-01
  7.164665E-01
  7.026808E-01
  6.888214E-01
  6.749068E-01
  6.610502E-01
  6.473774E-01
  6.340285E-01
  6.209340E-01
  6.085943E-01
  5.968302E-01
  5.856933E-01
  5.755182E-01
  5.664482E-01
  5.585258E-01
  5.522078E-01
  5.484799E-01
  5.496575E-01
  5.606376E-01
  5.896792E-01
  6.495425E-01
  7.500519E-01
  8.269636E-01
  7.803467E-01
  8.841186E-01
  1.428741E-01
 -6.166887E-14
  9.897486E-01
  9.895802E-01
  9.894118E-01
  9.892435E-01
  9.890751E-01
  9.889068E-01
  9.887385E-01
  9.885702E-01
  9.884019E-01
  9.879182E-01
  9.874266E-01
  9.869351E-01
  9.864436E-01
  9.859521E-01
  9.854607E-01
  9.849692E-01
  9.843719E-01
  9.835804E-01
  9.827890E-01
  9.819975E-01
  9.812061E-01
  9.804147E-01
  9.796233E-01
  9.787994E-01
  9.777152E-01
  9.766311E-01
  9.755469E-01
  9.744628E-01
  9.733787E-01
  9.722946E-01
  9.711389E-01
  9.697448E-01
  9.683508E-01
  9.669569E-01
  9.655629E-01
  9.641690E-01
  9.627752E-01
  9.611616E-01
  9.594519E-01
  9.577423E-01
  9.560327E-01
  9.543232E-01
  9.526137E-01
  9.507542E-01
  9.487365E-01
  9.467188E-01
  9.447013E-01
  9.426838E-01
  9.406664E-01
  9.384708E-01
  9.361504E-01
  9.338302E-01
  9.315101E-01
  9.291901E-01
  9.268703E-01
  9.242567E-01
  9.216388E-01
  9.190210E-01
  9.164035E-01
  9.137862E-01
  9.109805E-01
  9.080785E-01
  9.051769E-01
  9.022755E-01
  8.993743E-01
  8.963018E-01
  8.931169E-01
  8.899324E-01
  8.867482E-01
  8.835643E-01
  8.801379E-01
  8.766508E-01
  8.731641E-01
  8.696776E-01
  8.661157E-01
  8.623078E-01
  8.585001E-01
  8.546926E-01
  8.508852E-01
  8.467812E-01
  8.426441E-01
  8.385072E-01
  8.343703E-01
  8.299761E-01
  8.255096E-01
  8.210432E-01
  8.165770E-01
  8.118493E-01
  8.070818E-01
  8.023145E-01
  7.975090E-01
  7.924848E-01
  7.874611E-01
  7.824379E-01
  7.772679E-01
  7.720079E-01
  7.667488E-01
  7.614290E-01
  7.559372E-01
  7.504476E-01
  7.449437E-01
  7.392417E-01
  7.335430E-01
  7.278362E-01
  7.219054E-01
  7.159785E-01
  7.100032E-01
  7.037789E-01
  6.975584E-01
  6.911839E-01
  6.846107E-01
  6.780410E-01
  6.711486E-01
  6.641981E-01
  6.571022E-01
  6.497627E-01
  6.424127E-01
  6.346885E-01
  6.269660E-01
  6.189394E-01
  6.108410E-01
  6.024864E-01
  5.940186E-01
  5.853005E-01
  5.764672E-01
  5.673611E-01
  5.581766E-01
  5.486786E-01
  5.390978E-01
  5.292922E-01
  5.193239E-01
  5.092363E-01
  4.989089E-01
  4.884383E-01
  4.778162E-01
  4.669765E-01
  4.559032E-01
  4.446266E-01
  4.331653E-01
  4.216378E-01
  4.104343E-01
  4.004871E-01
  3.933885E-01
  3.923026E-01
  4.005497E-01
  3.973847E-01
  3.579968E-01
  4.022146E-01
  1.654702E-01
 -2.616751E-03
  5.646263E-02
  5.645245E-02
  5.644226E-02
  5.643208E-02
  5.642190E-02
  5.641172E-02
  5.640153E-02
  5.639135E-02
  5.638117E-02
  5.636165E-02
  5.634189E-02
  5.632213E-02
  5.630236E-02
  5.628260E-02
  5.626284E-02
  5.624308E-02
  5.622475E-02
  5.620903E-02
  5.619331E-02
  5.617759E-02
  5.616187E-02
  5.614615E-02
  5.613043E-02
  5.611448E-02
  5.609674E-02
  5.607899E-02
  5.606123E-02
  5.604348E-02
  5.602573E-02
  5.600797E-02
  5.598839E-02
  5.596273E-02
  5.593706E-02
  5.591140E-02
  5.588573E-02
  5.586006E-02
  5.583439E-02
  5.580316E-02
  5.576949E-02
  5.573582E-02
  5.570215E-02
  5.566848E-02
  5.563480E-02
  5.559641E-02
  5.555305E-02
  5.550969E-02
  5.546632E-02
  5.542295E-02
  5.537957E-02
  5.532537E-02
  5.526357E-02
  5.520176E-02
  5.513995E-02
  5.507814E-02
  5.501632E-02
  5.492728E-02
  5.483782E-02
  5.474834E-02
  5.465886E-02
  5.456938E-02
  5.446170E-02
  5.434470E-02
  5.422769E-02
  5.411068E-02
  5.399366E-02
  5.386287E-02
  5.372306E-02
  5.358323E-02
  5.344339E-02
  5.330354E-02
  5.315042E-02
  5.299394E-02
  5.283745E-02
  5.268093E-02
  5.252306E-02
  5.236083E-02
  5.219856E-02
  5.203626E-02
  5.187393E-02
  5.170721E-02
  5.153997E-02
  5.137271E-02
  5.120541E-02
  5.102256E-02
  5.083532E-02
  5.064804E-02
  5.046075E-02
  5.024531E-02
  5.002556E-02
  4.980580E-02
  4.958015E-02
  4.932112E-02
  4.906215E-02
  4.880324E-02
  4.850895E-02
  4.819295E-02
  4.787719E-02
  4.754355E-02
  4.715954E-02
  4.677610E-02
  4.638962E-02
  4.595983E-02
  4.553089E-02
  4.510199E-02
  4.465785E-02
  4.421463E-02
  4.377274E-02
  4.333378E-02
  4.289561E-02
  4.246654E-02
  4.204877E-02
  4.163155E-02
  4.124291E-02
  4.085984E-02
  4.049300E-02
  4.015276E-02
  3.981413E-02
  3.952148E-02
  3.922869E-02
  3.897723E-02
  3.873542E-02
  3.852813E-02
  3.833597E-02
  3.817427E-02
  3.802656E-02
  3.791155E-02
  3.780604E-02
  3.774264E-02
  3.769273E-02
  3.767985E-02
  3.770109E-02
  3.774862E-02
  3.785967E-02
  3.801729E-02
  3.822640E-02
  3.851559E-02
  3.890253E-02
  3.939368E-02
  4.002526E-02
  4.086357E-02
  4.204120E-02
  4.381315E-02
  4.659620E-02
  5.112410E-02
  5.811195E-02
  6.426540E-02
  6.540788E-02
  7.895572E-02
  2.627221E-02
  8.462277E-03
  1.623122E-01
  1.622513E-01
  1.621903E-01
  1.621294E-01
  1.620685E-01
  1.620075E-01
  1.619466E-01
  1.618857E-01
  1.618247E-01
  1.616892E-01
  1.615519E-01
  1.614145E-01
  1.612772E-01
  1.611398E-01
  1.610025E-01
  1.608651E-01
  1.607151E-01
  1.605417E-01
  1.603683E-01
  1.601950E-01
  1.600216E-01
  1.598483E-01
  1.596749E-01
  1.594945E-01
  1.592578E-01
  1.590211E-01
  1.587843E-01
  1.585476E-01
  1.583109E-01
  1.580741E-01
  1.578201E-01
  1.575085E-01
  1.571968E-01
  1.568852E-01
  1.565736E-01
  1.562619E-01
  1.559503E-01
  1.555900E-01
  1.552083E-01
  1.548267E-01
  1.544450E-01
  1.540634E-01
  1.536818E-01
  1.532703E-01
  1.528275E-01
  1.523847E-01
  1.519418E-01
  1.514990E-01
  1.510562E-01
  1.505820E-01
  1.500857E-01
  1.495894E-01
  1.490932E-01
  1.485970E-01
  1.481008E-01
  1.475635E-01
  1.470256E-01
  1.464877E-01
  1.459499E-01
  1.454122E-01
  1.448575E-01
  1.442942E-01
  1.437310E-01
  1.431678E-01
  1.426047E-01
  1.420286E-01
  1.414439E-01
  1.408594E-01
  1.402749E-01
  1.396905E-01
  1.390882E-01
  1.384815E-01
  1.378750E-01
  1.372684E-01
  1.366610E-01
  1.360502E-01
  1.354396E-01
  1.348289E-01
  1.342183E-01
  1.336128E-01
  1.330078E-01
  1.324029E-01
  1.317980E-01
  1.311829E-01
  1.305650E-01
  1.299471E-01
  1.293292E-01
  1.287004E-01
  1.280699E-01
  1.274394E-01
  1.268108E-01
  1.261919E-01
  1.255731E-01
  1.249546E-01
  1.243364E-01
  1.237186E-01
  1.231013E-01
  1.224737E-01
  1.218166E-01
  1.211605E-01
  1.205014E-01
  1.197965E-01
  1.190929E-01
  1.183882E-01
  1.176312E-01
  1.168760E-01
  1.161061E-01
  1.152576E-01
  1.144110E-01
  1.135064E-01
  1.125267E-01
  1.115486E-01
  1.104432E-01
  1.093148E-01
  1.081289E-01
  1.068464E-01
  1.055597E-01
  1.041265E-01
  1.026938E-01
  1.011518E-01
  9.958387E-02
  9.794162E-02
  9.626647E-02
  9.453926E-02
  9.278809E-02
  9.100318E-02
  8.920871E-02
  8.740716E-02
  8.561309E-02
  8.384282E-02
  8.211450E-02
  8.041908E-02
  7.882140E-02
  7.729821E-02
  7.585620E-02
  7.453870E-02
  7.336427E-02
  7.233840E-02
  7.152025E-02
  7.103747E-02
  7.118990E-02
  7.261182E-02
  7.637289E-02
  8.412569E-02
  9.714254E-02
  1.071028E-01
  1.010643E-01
  1.145026E-01
  2.541651E-02
 -1.942947E-09
  9.898790E-01
  9.897107E-01
  9.895424E-01
  9.893742E-01
  9.892059E-01
  9.890377E-01
  9.888695E-01
  9.887013E-01
  9.885331E-01
  9.880496E-01
  9.875584E-01
  9.870671E-01
  9.865759E-01
  9.860846E-01
  9.855934E-01
  9.851022E-01
  9.845052E-01
  9.837141E-01
  9.829229E-01
  9.821318E-01
  9.813408E-01
  9.805497E-01
  9.797587E-01
  9.789352E-01
  9.778514E-01