 Title = "ADflow Slice Data"
Variables =  "CoordinateX"  "CoordinateY"  "CoordinateZ"  "XoC"  "YoC"  "ZoC" "VelocityX" "VelocityY" "VelocityZ" "CoefPressure" "Mach" 
Zone T= "Slice_0001 None Relative Regular z = 0.10000000"
 Nodes =          114  Elements=          106  ZONETYPE=FELINESEG
 DATAPACKING=POINT
  7.301402E-01  6.740687E-02  1.000000E-01  7.450342E-01  5.890358E-02  1.416122E-17  2.557955E-02 -4.232143E-03 -1.861057E-04 -4.353849E-01  0.000000E+00
  7.043967E-01  7.151910E-02  1.000000E-01  7.187649E-01  6.309980E-02 -4.248366E-17  2.690138E-02 -4.142739E-03 -1.842065E-04 -4.698149E-01  0.000000E+00
  6.775455E-01  7.550288E-02  1.000000E-01  6.913653E-01  6.716494E-02  3.965142E-16  2.802827E-02 -4.011618E-03 -1.808686E-04 -5.020471E-01  0.000000E+00
  6.496792E-01  7.934485E-02  1.000000E-01  6.629299E-01  7.108537E-02  4.248366E-17  2.899788E-02 -3.870831E-03 -1.761912E-04 -5.353609E-01  0.000000E+00
  6.209097E-01  8.305591E-02  1.000000E-01  6.335728E-01  7.487223E-02 -2.832244E-17  2.992094E-02 -3.731603E-03 -1.703598E-04 -5.720657E-01  0.000000E+00
  5.913667E-01  8.661062E-02  1.000000E-01  6.034264E-01  7.849954E-02 -2.832244E-17  3.093283E-02 -3.583303E-03 -1.635581E-04 -6.125394E-01  0.000000E+00
  5.611982E-01  8.996661E-02  1.000000E-01  5.726418E-01  8.192407E-02  0.000000E+00  3.213466E-02 -3.417601E-03 -1.558346E-04 -6.576930E-01  0.000000E+00
  5.305654E-01  9.307101E-02  1.000000E-01  5.413833E-01  8.509187E-02 -5.664488E-17  3.359871E-02 -3.225100E-03 -1.471557E-04 -7.093025E-01  0.000000E+00
  4.996398E-01  9.587037E-02  1.000000E-01  5.098261E-01  8.794841E-02  0.000000E+00  3.539105E-02 -2.980822E-03 -1.375138E-04 -7.684627E-01  0.000000E+00
  4.685986E-01  9.828780E-02  1.000000E-01  4.781510E-01  9.041520E-02  1.416122E-17  3.756335E-02 -2.637788E-03 -1.269952E-04 -8.335703E-01  0.000000E+00
  4.376215E-01  1.002274E-01  1.000000E-01  4.465413E-01  9.239439E-02 -8.496732E-17  4.009729E-02 -2.145935E-03 -1.157483E-04 -9.007820E-01  0.000000E+00
  4.068895E-01  1.015970E-01  1.000000E-01  4.151816E-01  9.379203E-02  0.000000E+00  4.287270E-02 -1.467391E-03 -1.039881E-04 -9.653405E-01  0.000000E+00
  3.765814E-01  1.023256E-01  1.000000E-01  3.842545E-01  9.453551E-02 -5.664488E-17  4.568429E-02 -6.044990E-04 -9.201891E-05 -1.024530E+00  0.000000E+00
  3.468696E-01  1.023993E-01  1.000000E-01  3.539359E-01  9.461071E-02 -5.664488E-17  4.835929E-02  4.212712E-04 -8.030740E-05 -1.077106E+00  0.000000E+00
  3.179133E-01  1.018218E-01  1.000000E-01  3.243882E-01  9.402138E-02 -2.832244E-17  5.083483E-02  1.597059E-03 -6.940309E-05 -1.122744E+00  0.000000E+00
  2.898519E-01  1.006134E-01  1.000000E-01  2.957537E-01  9.278835E-02 -4.248366E-17  5.312230E-02  2.898965E-03 -5.966909E-05 -1.164662E+00  0.000000E+00
  2.628044E-01  9.881726E-02  1.000000E-01  2.681538E-01  9.095548E-02  0.000000E+00  5.529991E-02  4.314780E-03 -5.117872E-05 -1.206984E+00  0.000000E+00
  9.800000E-01  1.209314E-02  1.000000E-01  9.999970E-01  2.460150E-03 -2.832244E-17  1.060289E-02 -1.316282E-02 -1.969755E-04 -5.648226E-02  0.000000E+00
  9.720124E-01  1.422256E-02  1.000000E-01  9.918462E-01  4.633066E-03 -2.832244E-17  1.212106E-02 -3.302646E-03 -1.860911E-04  6.884616E-02  0.000000E+00
  9.632634E-01  1.656867E-02  1.000000E-01  9.829186E-01  7.027086E-03 -2.832244E-17  9.078867E-03 -2.371952E-03 -1.578650E-04  2.201948E-02  0.000000E+00
  9.536907E-01  1.911994E-02  1.000000E-01  9.731504E-01  9.630470E-03 -2.832244E-17  7.174969E-03 -1.901844E-03 -1.381719E-04  4.117518E-03  0.000000E+00
  9.432303E-01  2.186068E-02  1.000000E-01  9.624763E-01  1.242718E-02  1.416122E-17  6.743201E-03 -1.751200E-03 -1.311576E-04 -1.572068E-02  0.000000E+00
  9.318220E-01  2.479420E-02  1.000000E-01  9.508350E-01  1.542062E-02  1.416122E-17  7.457435E-03 -1.896386E-03 -1.332592E-04 -4.154797E-02  0.000000E+00
  9.194070E-01  2.792355E-02  1.000000E-01  9.381665E-01  1.861388E-02 -8.496732E-17  8.822198E-03 -2.197317E-03 -1.398745E-04 -6.934089E-02  0.000000E+00
  9.059278E-01  3.124674E-02  1.000000E-01  9.244120E-01  2.200494E-02 -5.664488E-17  1.042662E-02 -2.537238E-03 -1.478016E-04 -9.895942E-02  0.000000E+00
  8.913299E-01  3.475771E-02  1.000000E-01  9.095159E-01  2.558762E-02  0.000000E+00  1.206626E-02 -2.862658E-03 -1.554554E-04 -1.309361E-01  0.000000E+00
  8.755643E-01  3.845092E-02  1.000000E-01  8.934284E-01  2.935625E-02 -2.832244E-17  1.370856E-02 -3.164318E-03 -1.624004E-04 -1.653835E-01  0.000000E+00
  8.585885E-01  4.231531E-02  1.000000E-01  8.761058E-01  3.329957E-02  4.106754E-16  1.539657E-02 -3.445773E-03 -1.687465E-04 -2.018722E-01  0.000000E+00
  8.403666E-01  4.632821E-02  1.000000E-01  8.575118E-01  3.739443E-02  3.965142E-16  1.714984E-02 -3.703318E-03 -1.744860E-04 -2.397885E-01  0.000000E+00
  8.208730E-01  5.045952E-02  1.000000E-01  8.376201E-01  4.161011E-02 -8.496732E-17  1.893661E-02 -3.925377E-03 -1.793346E-04 -2.787949E-01  0.000000E+00
  8.000947E-01  5.467598E-02  1.000000E-01  8.164174E-01  4.591268E-02 -2.832244E-17  2.071217E-02 -4.099146E-03 -1.830361E-04 -3.186018E-01  0.000000E+00
  7.780326E-01  5.893753E-02  1.000000E-01  7.939047E-01  5.026126E-02 -2.832244E-17  2.243884E-02 -4.213350E-03 -1.854594E-04 -3.586839E-01  0.000000E+00
  7.547032E-01  6.319819E-02  1.000000E-01  7.700989E-01  5.460894E-02  4.389978E-16  2.407728E-02 -4.258623E-03 -1.865119E-04 -3.980426E-01  0.000000E+00
  7.301402E-01  6.740687E-02  1.000000E-01  7.450342E-01  5.890358E-02  2.832244E-17  2.557955E-02 -4.232143E-03 -1.861057E-04 -4.353849E-01  0.000000E+00
  2.444131E-01 -2.555658E-03  1.000000E-01  2.493868E-01 -1.248782E-02  3.681917E-16  2.786475E-02  1.277272E-03  4.700625E-05  1.677298E-01  0.000000E+00
  2.700250E-01 -1.385507E-03  1.000000E-01  2.755219E-01 -1.129377E-02 -4.248366E-17  2.811157E-02  1.264145E-03  4.953842E-05  1.660106E-01  0.000000E+00
  2.967058E-01 -2.063210E-04  1.000000E-01  3.027476E-01 -1.009050E-02 -2.832244E-17  2.848301E-02  1.295344E-03  5.286525E-05  1.581481E-01  0.000000E+00
  3.243554E-01  1.084671E-03  1.000000E-01  3.309618E-01 -8.773145E-03  4.248366E-16  2.862592E-02  1.448016E-03  5.703681E-05  1.453563E-01  0.000000E+00
  3.528511E-01  2.637004E-03  1.000000E-01  3.600396E-01 -7.189108E-03 -4.248366E-17  2.814488E-02  1.741170E-03  6.189982E-05  1.339142E-01  0.000000E+00
  3.820469E-01  4.666124E-03  1.000000E-01  3.898316E-01 -5.118546E-03  5.664488E-17  2.678283E-02  2.125112E-03  6.705371E-05  1.315313E-01  0.000000E+00
  4.117740E-01  7.339988E-03  1.000000E-01  4.201659E-01 -2.390073E-03 -5.664488E-17  2.461416E-02  2.482585E-03  7.198423E-05  1.452151E-01  0.000000E+00
  4.418498E-01  1.073424E-02  1.000000E-01  4.508559E-01  1.073506E-03 -2.832244E-17  2.207542E-02  2.677144E-03  7.632924E-05  1.752481E-01  0.000000E+00
  4.721105E-01  1.469711E-02  1.000000E-01  4.817347E-01  5.117307E-03 -5.664488E-17  1.993564E-02  2.512177E-03  8.029683E-05  2.271793E-01  0.000000E+00
  5.024968E-01  1.836447E-02  1.000000E-01  5.127415E-01  8.859565E-03  1.416122E-17  1.865243E-02  2.071166E-03  8.424615E-05  2.820447E-01  0.000000E+00
  5.328693E-01  2.141013E-02  1.000000E-01  5.437343E-01  1.196742E-02 -4.248366E-17  1.802016E-02  1.669854E-03  8.832261E-05  3.087588E-01  0.000000E+00
  5.630297E-01  2.396181E-02  1.000000E-01  5.745108E-01  1.457123E-02  1.416122E-17  1.767854E-02  1.398719E-03  9.261563E-05  3.158312E-01  0.000000E+00
  5.927917E-01  2.615105E-02  1.000000E-01  6.048805E-01  1.680517E-02  5.664488E-17  1.735520E-02  1.220045E-03  9.686070E-05  3.214394E-01  0.000000E+00
  6.219828E-01  2.810200E-02  1.000000E-01  6.346679E-01  1.879597E-02 -4.248366E-17  1.690929E-02  1.085170E-03  1.005976E-04  3.308592E-01  0.000000E+00
  6.504533E-01  2.984528E-02  1.000000E-01  6.637198E-01  2.057485E-02  5.664488E-17  1.635732E-02  9.352198E-04  1.036419E-04  3.445567E-01  0.000000E+00
  6.780742E-01  3.130149E-02  1.000000E-01  6.919048E-01  2.206081E-02  4.531590E-16  1.580884E-02  7.385226E-04  1.061254E-04  3.605719E-01  0.000000E+00
  7.047326E-01  3.237270E-02  1.000000E-01  7.191077E-01  2.315390E-02  0.000000E+00  1.538086E-02  5.007900E-04  1.083202E-04  3.752347E-01  0.000000E+00
  1.215943E-04  9.344468E-03  1.000000E-01  1.060953E-04 -3.446543E-04 -5.664488E-17 -4.530552E-02  8.081691E-02  6.975043E-05  7.523071E-01  0.000000E+00
  4.902502E-03  3.677203E-03  1.000000E-01  4.984645E-03 -6.127665E-03 -8.496732E-17 -1.674655E-02  1.952019E-02  5.550393E-05  9.381303E-01  0.000000E+00
  1.254908E-02  3.785567E-05  1.000000E-01  1.278739E-02 -9.841340E-03 -2.832244E-17  7.902454E-03 -2.063027E-03  4.178091E-05  5.429329E-01  0.000000E+00
  2.163699E-02 -2.348662E-03  1.000000E-01  2.206091E-02 -1.227660E-02  1.416122E-17  2.166303E-02 -4.462635E-03  3.583920E-05  3.415158E-01  0.000000E+00
  3.184423E-02 -4.023068E-03  1.000000E-01  3.247661E-02 -1.398520E-02 -2.832244E-17  2.741009E-02 -3.594223E-03  3.514341E-05  3.075760E-01  0.000000E+00
  4.311596E-02 -5.195543E-03  1.000000E-01  4.397855E-02 -1.518162E-02 -8.496732E-17  2.960390E-02 -2.378149E-03  3.575587E-05  2.723358E-01  0.000000E+00
  5.546913E-02 -5.909278E-03  1.000000E-01  5.658402E-02 -1.590993E-02  1.416122E-17  3.026906E-02 -1.404415E-03  3.658418E-05  2.397921E-01  0.000000E+00
  6.891473E-02 -6.377975E-03  1.000000E-01  7.030422E-02 -1.638820E-02 -8.496732E-17  3.050583E-02 -8.724049E-04  3.748668E-05  2.277962E-01  0.000000E+00
  8.348882E-02 -6.708271E-03  1.000000E-01  8.517596E-02 -1.672525E-02  5.664488E-17  3.063043E-02 -5.229489E-04  3.831964E-05  2.157346E-01  0.000000E+00
  9.923792E-02 -6.894071E-03  1.000000E-01  1.012467E-01 -1.691484E-02 -9.912854E-17  3.060037E-02 -1.646609E-04  3.909084E-05  1.968247E-01  0.000000E+00
  1.162051E-01 -6.877632E-03  1.000000E-01  1.185604E-01 -1.689807E-02 -8.496732E-17  3.037916E-02  2.028483E-04  3.988400E-05  1.799851E-01  0.000000E+00
  1.344203E-01 -6.651425E-03  1.000000E-01  1.371476E-01 -1.666724E-02 -8.496732E-17  2.999055E-02  5.245822E-04  4.072730E-05  1.706937E-01  0.000000E+00
  1.539027E-01 -6.212603E-03  1.000000E-01  1.570280E-01 -1.621945E-02  4.389978E-16  2.945436E-02  8.016668E-04  4.160518E-05  1.656786E-01  0.000000E+00
  1.746592E-01 -5.550335E-03  1.000000E-01  1.782083E-01 -1.554366E-02  3.257081E-16  2.884534E-02  1.021024E-03  4.256381E-05  1.637707E-01  0.000000E+00
  1.966815E-01 -4.693467E-03  1.000000E-01  2.006804E-01 -1.466929E-02 -2.832244E-17  2.829415E-02  1.166856E-03  4.369803E-05  1.649874E-01  0.000000E+00
  2.199461E-01 -3.680500E-03  1.000000E-01  2.244202E-01 -1.363564E-02 -4.248366E-17  2.793104E-02  1.250729E-03  4.512367E-05  1.668946E-01  0.000000E+00
  2.444131E-01 -2.555658E-03  1.000000E-01  2.493868E-01 -1.248782E-02  3.823529E-16  2.786475E-02  1.277272E-03  4.700625E-05  1.677298E-01  0.000000E+00
  7.047326E-01  3.237270E-02  1.000000E-01  7.191077E-01  2.315390E-02 -2.832244E-17  1.538086E-02  5.007900E-04  1.083202E-04  3.752347E-01  0.000000E+00
  7.303325E-01  3.299714E-02  1.000000E-01  7.452304E-01  2.379109E-02 -2.832244E-17  1.516529E-02  2.359927E-04  1.105199E-04  3.861440E-01  0.000000E+00
  7.547951E-01  3.315180E-02  1.000000E-01  7.701927E-01  2.394890E-02  4.389978E-16  1.523656E-02 -5.848715E-05  1.129955E-04  3.931213E-01  0.000000E+00
  7.780600E-01  3.282118E-02  1.000000E-01  7.939327E-01  2.361153E-02  1.416122E-17  1.564882E-02 -3.970671E-04  1.159483E-04  3.959405E-01  0.000000E+00
  8.000833E-01  3.201735E-02  1.000000E-01  8.164057E-01  2.279128E-02 -4.248366E-17  1.641331E-02 -7.937841E-04  1.194582E-04  3.939085E-01  0.000000E+00
  8.208376E-01  3.077292E-02  1.000000E-01  8.375839E-01  2.152144E-02 -2.832244E-17  1.746273E-02 -1.232664E-03  1.233934E-04  3.859744E-01  0.000000E+00
  8.403144E-01  2.919582E-02  1.000000E-01  8.574586E-01  1.991213E-02  4.389978E-16  1.863610E-02 -1.648768E-03  1.273746E-04  3.713233E-01  0.000000E+00
  8.585258E-01  2.744892E-02  1.000000E-01  8.760418E-01  1.812955E-02  3.965142E-16  1.973660E-02 -1.975655E-03  1.309097E-04  3.524636E-01  0.000000E+00
  8.754993E-01  2.567593E-02  1.000000E-01  8.933620E-01  1.632035E-02 -2.832244E-17  2.061989E-02 -2.195539E-03  1.335183E-04  3.336269E-01  0.000000E+00
  8.912718E-01  2.396011E-02  1.000000E-01  9.094567E-01  1.456949E-02 -2.832244E-17  2.127048E-02 -2.366242E-03  1.349139E-04  3.185044E-01  0.000000E+00
  9.058836E-01  2.229461E-02  1.000000E-01  9.243669E-01  1.286997E-02 -4.248366E-17  2.181327E-02 -2.573431E-03  1.352077E-04  3.077071E-01  0.000000E+00
  9.193796E-01  2.064370E-02  1.000000E-01  9.381385E-01  1.118535E-02 -5.664488E-17  2.244091E-02 -2.845158E-03  1.350878E-04  2.965704E-01  0.000000E+00
  9.318118E-01  1.900795E-02  1.000000E-01  9.508246E-01  9.516193E-03  4.248366E-17  2.335690E-02 -3.197799E-03  1.359663E-04  2.824203E-01  0.000000E+00
  9.432349E-01  1.738194E-02  1.000000E-01  9.624810E-01  7.856974E-03 -2.832244E-17  2.460088E-02 -3.647633E-03  1.388858E-04  2.657929E-01  0.000000E+00
  9.537058E-01  1.576538E-02  1.000000E-01  9.731658E-01  6.207398E-03  0.000000E+00  2.553277E-02 -4.093934E-03  1.414575E-04  2.411150E-01  0.000000E+00
  9.632829E-01  1.416258E-02  1.000000E-01  9.829384E-01  4.571856E-03 -2.832244E-17  2.455224E-02 -4.283630E-03  1.359428E-04  2.063275E-01  0.000000E+00
  9.720275E-01  1.260609E-02  1.000000E-01  9.918617E-01  2.983581E-03  0.000000E+00  2.086875E-02 -3.734085E-03  1.170249E-04  2.037943E-01  0.000000E+00
  9.800000E-01  1.111792E-02  1.000000E-01  9.999970E-01  1.465014E-03  1.416122E-17  1.389474E-02  4.377258E-03  7.366946E-05 -1.001651E-02  0.000000E+00
  1.215943E-04  1.002514E-02  1.000000E-01  1.060953E-04  3.499186E-04 -9.912854E-17  2.284742E-02  5.298201E-02  3.276973E-05  4.595711E-01  0.000000E+00
  7.278129E-05  9.910479E-03  1.000000E-01  5.628530E-05  2.329159E-04  1.416122E-17  1.553097E-02  7.596177E-02  4.571092E-05  2.998950E-01  0.000000E+00
  1.762252E-05  9.682224E-03  1.000000E-01  0.000000E+00  0.000000E+00  0.000000E+00 -1.210136E-02  1.217445E-01  6.641743E-05  3.398872E-01  0.000000E+00
  8.694958E-05  9.457060E-03  1.000000E-01  7.074295E-05 -2.297634E-04  0.000000E+00 -5.073504E-02  1.317399E-01  7.606943E-05  3.889600E-01  0.000000E+00
  1.215943E-04  9.344468E-03  1.000000E-01  1.060953E-04 -3.446543E-04 -4.248366E-17 -4.530552E-02  8.081691E-02  6.975043E-05  7.523071E-01  0.000000E+00
  9.800000E-01  1.111792E-02  1.000000E-01  9.999970E-01  1.465014E-03  0.000000E+00  1.389474E-02  4.377258E-03  7.366946E-05 -1.001651E-02  0.000000E+00
  9.800000E-01  1.128045E-02  1.000000E-01  9.999970E-01  1.630870E-03  0.000000E+00  4.509556E-03 -1.538998E-03 -1.336129E-05 -2.109691E-01  0.000000E+00
  9.800000E-01  1.160553E-02  1.000000E-01  9.999970E-01  1.962582E-03 -2.832244E-17 -4.414260E-04 -1.596632E-02 -1.103343E-04 -1.753299E-01  0.000000E+00
  9.800000E-01  1.193060E-02  1.000000E-01  9.999970E-01  2.294294E-03 -5.664488E-17  3.431089E-03 -1.965164E-02 -1.718490E-04 -1.937027E-01  0.000000E+00
  9.800000E-01  1.209314E-02  1.000000E-01  9.999970E-01  2.460150E-03  0.000000E+00  1.060289E-02 -1.316282E-02 -1.969755E-04 -5.648226E-02  0.000000E+00
  2.628044E-01  9.881726E-02  1.000000E-01  2.681538E-01  9.095548E-02 -2.832244E-17  5.529991E-02  4.314780E-03 -5.117872E-05 -1.206984E+00  0.000000E+00
  2.368706E-01  9.648292E-02  1.000000E-01  2.416903E-01  8.857346E-02  3.681917E-16  5.752558E-02  5.928943E-03 -4.384828E-05 -1.246748E+00  0.000000E+00
  2.121362E-01  9.360311E-02  1.000000E-01  2.164508E-01  8.563484E-02  1.416122E-17  5.982838E-02  7.816806E-03 -3.749881E-05 -1.277166E+00  0.000000E+00
  1.886687E-01  9.019556E-02  1.000000E-01  1.925040E-01  8.215769E-02 -4.248366E-17  6.203000E-02  9.956630E-03 -3.191552E-05 -1.293363E+00  0.000000E+00
  1.665185E-01  8.629245E-02  1.000000E-01  1.699013E-01  7.817487E-02  4.814815E-16  6.390261E-02  1.228197E-02 -2.695043E-05 -1.292877E+00  0.000000E+00
  1.457161E-01  8.195071E-02  1.000000E-01  1.486742E-01  7.374446E-02  4.531590E-16  6.529318E-02  1.471925E-02 -2.250769E-05 -1.277287E+00  0.000000E+00
  1.262764E-01  7.723005E-02  1.000000E-01  1.288374E-01  6.892738E-02  0.000000E+00  6.618454E-02  1.723205E-02 -1.849075E-05 -1.251798E+00  0.000000E+00
  1.081990E-01  7.219016E-02  1.000000E-01  1.103908E-01  6.378456E-02  0.000000E+00  6.661348E-02  1.979686E-02 -1.475312E-05 -1.223509E+00  0.000000E+00
  9.146971E-02  6.689338E-02  1.000000E-01  9.331985E-02  5.837961E-02  0.000000E+00  6.668933E-02  2.256845E-02 -1.117962E-05 -1.187613E+00  0.000000E+00
  7.608258E-02  6.133537E-02  1.000000E-01  7.761846E-02  5.270808E-02  0.000000E+00  6.636998E-02  2.571817E-02 -7.732777E-06 -1.125758E+00  0.000000E+00
  6.202881E-02  5.550542E-02  1.000000E-01  6.327767E-02  4.675906E-02 -5.664488E-17  6.531804E-02  2.910690E-02 -4.428024E-06 -1.020753E+00  0.000000E+00
  4.929579E-02  4.942040E-02  1.000000E-01  5.028459E-02  4.054976E-02 -8.496732E-17  6.317617E-02  3.218625E-02 -1.272257E-06 -8.776226E-01  0.000000E+00
  3.782553E-02  4.319099E-02  1.000000E-01  3.858008E-02  3.419313E-02  4.248366E-17  6.007946E-02  3.473809E-02  1.787174E-06 -7.231516E-01  0.000000E+00
  2.757469E-02  3.687100E-02  1.000000E-01  2.811988E-02  2.774406E-02 -2.832244E-17  5.652994E-02  3.700152E-02  5.039969E-06 -6.049890E-01  0.000000E+00
  1.848362E-02  3.053710E-02  1.000000E-01  1.884314E-02  2.128081E-02  5.664488E-17  5.320300E-02  4.042696E-02  9.280513E-06 -5.073377E-01  0.000000E+00
  1.064273E-02  2.406338E-02  1.000000E-01  1.084211E-02  1.467487E-02  1.416122E-17  4.944907E-02  4.664309E-02  1.588433E-05 -2.676698E-01  0.000000E+00
  4.262692E-03  1.729987E-02  1.000000E-01  4.331768E-03  7.773224E-03  1.416122E-17  4.009108E-02  5.388290E-02  2.503732E-05  2.435302E-01  0.000000E+00
  1.215943E-04  1.002514E-02  1.000000E-01  1.060953E-04  3.499186E-04 -8.496732E-17  2.284742E-02  5.298201E-02  3.276973E-05  4.595711E-01  0.000000E+00
    1    2
    2    3
    3    4
    4    5
    5    6
    6    7
    7    8
    8    9
    9   10
   10   11
   11   12
   12   13
   13   14
   14   15
   15   16
   16   17
   18   19
   19   20
   20   21
   21   22
   22   23
   23   24
   24   25
   25   26
   26   27
   27   28
   28   29
   29   30
   30   31
   31   32
   32   33
   33   34
   35   36
   36   37
   37   38
   38   39
   39   40
   40   41
   41   42
   42   43
   43   44
   44   45
   45   46
   46   47
   47   48
   48   49
   49   50
   50   51
   52   53
   53   54
   54   55
   55   56
   56   57
   57   58
   58   59
   59   60
   60   61
   61   62
   62   63
   63   64
   64   65
   65   66
   66   67
   67   68
   69   70
   70   71
   71   72
   72   73
   73   74
   74   75
   75   76
   76   77
   77   78
   78   79
   79   80
   80   81
   81   82
   82   83
   83   84
   84   85
   85   86
   87   88
   88   89
   89   90
   90   91
   92   93
   93   94
   94   95
   95   96
   97   98
   98   99
   99  100
  100  101
  101  102
  102  103
  103  104
  104  105
  105  106
  106  107
  107  108
  108  109
  109  110
  110  111
  111  112
  112  113
  113  114
Zone T= "Slice_0002 None Relative Regular z = 0.36666667"
 Nodes =          114  Elements=          106  ZONETYPE=FELINESEG
 DATAPACKING=POINT
  7.301402E-01  6.681032E-02  3.666667E-01  7.450346E-01  5.831877E-02 -5.664491E-17  2.572410E-02 -4.237025E-03 -5.938383E-04 -4.289754E-01  0.000000E+00
  7.043967E-01  7.090607E-02  3.666667E-01  7.187652E-01  6.249818E-02 -1.132898E-16  2.703620E-02 -4.149013E-03 -5.862604E-04 -4.628747E-01  0.000000E+00
  6.775455E-01  7.487849E-02  3.666667E-01  6.913656E-01  6.655173E-02  3.058825E-14  2.815535E-02 -4.020822E-03 -5.748258E-04 -4.946860E-01  0.000000E+00
  6.496792E-01  7.871513E-02  3.666667E-01  6.629302E-01  7.046673E-02 -1.699347E-16  2.911880E-02 -3.884001E-03 -5.603710E-04 -5.276551E-01  0.000000E+00
  6.209097E-01  8.242738E-02  3.666667E-01  6.335731E-01  7.425480E-02  0.000000E+00  3.003605E-02 -3.749313E-03 -5.437997E-04 -5.640504E-01  0.000000E+00
  5.913667E-01  8.599024E-02  3.666667E-01  6.034268E-01  7.789043E-02  1.132898E-16  3.104109E-02 -3.606056E-03 -5.256589E-04 -6.042519E-01  0.000000E+00
  5.611982E-01  8.936185E-02  3.666667E-01  5.726421E-01  8.133090E-02  2.265796E-16  3.223526E-02 -3.446011E-03 -5.057536E-04 -6.491809E-01  0.000000E+00
  5.305654E-01  9.248938E-02  3.666667E-01  5.413836E-01  8.452230E-02  1.132898E-16  3.369340E-02 -3.259905E-03 -4.834228E-04 -7.006127E-01  0.000000E+00
  4.996398E-01  9.531890E-02  3.666667E-01  5.098264E-01  8.740961E-02 -1.699347E-16  3.548552E-02 -3.022825E-03 -4.579769E-04 -7.596400E-01  0.000000E+00
  4.685986E-01  9.777249E-02  3.666667E-01  4.781512E-01  8.991332E-02  1.132898E-16  3.766625E-02 -2.687502E-03 -4.289787E-04 -8.246690E-01  0.000000E+00
  4.376215E-01  9.975284E-02  3.666667E-01  4.465415E-01  9.193411E-02 -5.664491E-17  4.021726E-02 -2.203123E-03 -3.961781E-04 -8.918870E-01  0.000000E+00
  4.068895E-01  1.011662E-01  3.666667E-01  4.151818E-01  9.337637E-02 -5.664491E-17  4.301662E-02 -1.530811E-03 -3.596574E-04 -9.565934E-01  0.000000E+00
  3.765814E-01  1.019399E-01  3.666667E-01  3.842547E-01  9.416587E-02  5.664491E-17  4.585847E-02 -6.719738E-04 -3.201017E-04 -1.016134E+00  0.000000E+00
  3.468696E-01  1.020586E-01  3.666667E-01  3.539361E-01  9.428700E-02 -5.664491E-17  4.857138E-02  3.531239E-04 -2.792360E-04 -1.069258E+00  0.000000E+00
  3.179133E-01  1.015244E-01  3.666667E-01  3.243884E-01  9.374184E-02  0.000000E+00  5.109278E-02  1.533012E-03 -2.395432E-04 -1.115533E+00  0.000000E+00
  2.898519E-01  1.003561E-01  3.666667E-01  2.957538E-01  9.254965E-02  5.664491E-17  5.343072E-02  2.844048E-03 -2.030558E-04 -1.158068E+00  0.000000E+00
  2.628044E-01  9.859584E-02  3.666667E-01  2.681539E-01  9.075348E-02  5.664491E-17  5.565791E-02  4.273070E-03 -1.707165E-04 -1.200932E+00  0.000000E+00
  9.800000E-01  1.185305E-02  3.666667E-01  9.999975E-01  2.239060E-03  5.664491E-17  1.059361E-02 -1.306327E-02 -6.328333E-04 -5.707612E-02  0.000000E+00
  9.720124E-01  1.396758E-02  3.666667E-01  9.918468E-01  4.396782E-03  0.000000E+00  1.214698E-02 -3.286604E-03 -5.982738E-04  6.936130E-02  0.000000E+00
  9.632634E-01  1.629754E-02  3.666667E-01  9.829191E-01  6.774325E-03  1.132898E-16  9.189252E-03 -2.384089E-03 -5.085737E-04  2.265163E-02  0.000000E+00
  9.536907E-01  1.883136E-02  3.666667E-01  9.731509E-01  9.359890E-03 -5.664491E-17  7.346520E-03 -1.933277E-03 -4.463771E-04  4.794450E-03  0.000000E+00
  9.432303E-01  2.155326E-02  3.666667E-01  9.624768E-01  1.213739E-02 -1.699347E-16  6.946648E-03 -1.791055E-03 -4.244119E-04 -1.495660E-02  0.000000E+00
  9.318220E-01  2.446658E-02  3.666667E-01  9.508355E-01  1.511021E-02 -5.664491E-17  7.673181E-03 -1.937325E-03 -4.312585E-04 -4.061716E-02  0.000000E+00
  9.194070E-01  2.757435E-02  3.666667E-01  9.381669E-01  1.828145E-02  0.000000E+00  9.037806E-03 -2.235020E-03 -4.522905E-04 -6.817350E-02  0.000000E+00
  9.059278E-01  3.087464E-02  3.666667E-01  9.244124E-01  2.164915E-02 -1.132898E-16  1.063597E-02 -2.569868E-03 -4.774597E-04 -9.749792E-02  0.000000E+00
  8.913299E-01  3.436147E-02  3.666667E-01  9.095164E-01  2.520720E-02  0.000000E+00  1.227078E-02 -2.890706E-03 -5.019065E-04 -1.291194E-01  0.000000E+00
  8.755643E-01  3.802946E-02  3.666667E-01  8.934288E-01  2.895009E-02 -1.132898E-16  1.391472E-02 -3.189544E-03 -5.243081E-04 -1.631447E-01  0.000000E+00
  8.585885E-01  4.186776E-02  3.666667E-01  8.761062E-01  3.286679E-02  3.098476E-14  1.560705E-02 -3.468936E-03 -5.447976E-04 -1.991498E-01  0.000000E+00
  8.403666E-01  4.585402E-02  3.666667E-01  8.575122E-01  3.693446E-02  3.098476E-14  1.735834E-02 -3.723226E-03 -5.630083E-04 -2.365262E-01  0.000000E+00
  8.208730E-01  4.995854E-02  3.666667E-01  8.376205E-01  4.112281E-02 -5.664491E-17  1.913472E-02 -3.940725E-03 -5.779113E-04 -2.749437E-01  0.000000E+00
  8.000947E-01  5.414860E-02  3.666667E-01  8.164179E-01  4.539845E-02 -5.664491E-17  2.089601E-02 -4.109947E-03 -5.887459E-04 -3.141218E-01  0.000000E+00
  7.780326E-01  5.838484E-02  3.666667E-01  7.939051E-01  4.972121E-02 -1.132898E-16  2.260822E-02 -4.220627E-03 -5.951449E-04 -3.535491E-01  0.000000E+00
  7.547032E-01  6.262211E-02  3.666667E-01  7.700993E-01  5.404503E-02  3.075819E-14  2.423343E-02 -4.263859E-03 -5.968785E-04 -3.922510E-01  0.000000E+00
  7.301402E-01  6.681032E-02  3.666667E-01  7.450346E-01  5.831877E-02 -5.664491E-17  2.572410E-02 -4.237025E-03 -5.938383E-04 -4.289754E-01  0.000000E+00
  2.444131E-01 -2.757048E-03  3.666667E-01  2.493870E-01 -1.266943E-02  3.092812E-14  2.812336E-02  1.256349E-03  1.553704E-04  1.654558E-01  0.000000E+00
  2.700250E-01 -1.618251E-03  3.666667E-01  2.755220E-01 -1.150738E-02  5.664491E-17  2.838935E-02  1.240877E-03  1.657671E-04  1.635890E-01  0.000000E+00
  2.967058E-01 -4.743947E-04  3.666667E-01  3.027477E-01 -1.034016E-02 -5.664491E-17  2.878374E-02  1.270283E-03  1.787849E-04  1.555173E-01  0.000000E+00
  3.243554E-01  7.775015E-04  3.666667E-01  3.309620E-01 -9.062695E-03  3.070154E-14  2.894673E-02  1.423330E-03  1.944441E-04  1.424474E-01  0.000000E+00
  3.528511E-01  2.287687E-03  3.666667E-01  3.600398E-01 -7.521665E-03 -5.664491E-17  2.847574E-02  1.720385E-03  2.119918E-04  1.306715E-01  0.000000E+00
  3.820469E-01  4.272928E-03  3.666667E-01  3.898318E-01 -5.495878E-03 -1.132898E-16  2.711122E-02  2.111988E-03  2.298236E-04  1.279524E-01  0.000000E+00
  4.117740E-01  6.902601E-03  3.666667E-01  4.201661E-01 -2.812496E-03  1.132898E-16  2.492953E-02  2.479353E-03  2.460373E-04  1.413569E-01  0.000000E+00
  4.418498E-01  1.025388E-02  3.666667E-01  4.508561E-01  6.072253E-04 -1.699347E-16  2.237062E-02  2.683245E-03  2.594336E-04  1.711927E-01  0.000000E+00
  4.721105E-01  1.417666E-02  3.666667E-01  4.817349E-01  4.610128E-03 -1.132898E-16  2.021115E-02  2.522437E-03  2.711380E-04  2.230545E-01  0.000000E+00
  5.024968E-01  1.780840E-02  3.666667E-01  5.127418E-01  8.316038E-03  5.664491E-17  1.891464E-02  2.080431E-03  2.825984E-04  2.779396E-01  0.000000E+00
  5.328693E-01  2.082436E-02  3.666667E-01  5.437346E-01  1.139360E-02 -2.265796E-16  1.827409E-02  1.677819E-03  2.942036E-04  3.046248E-01  0.000000E+00
  5.630297E-01  2.335339E-02  3.666667E-01  5.745111E-01  1.397428E-02  1.132898E-16  1.792602E-02  1.406900E-03  3.064387E-04  3.115939E-01  0.000000E+00
  5.927917E-01  2.552755E-02  3.666667E-01  6.048808E-01  1.619285E-02  0.000000E+00  1.759588E-02  1.229659E-03  3.187185E-04  3.171084E-01  0.000000E+00
  6.219828E-01  2.747098E-02  3.666667E-01  6.346682E-01  1.817597E-02  5.664491E-17  1.714187E-02  1.096713E-03  3.297216E-04  3.265087E-01  0.000000E+00
  6.504533E-01  2.921379E-02  3.666667E-01  6.637201E-01  1.995437E-02 -1.132898E-16  1.658076E-02  9.482353E-04  3.389684E-04  3.402580E-01  0.000000E+00
  6.780742E-01  3.067602E-02  3.666667E-01  6.919052E-01  2.144647E-02  3.092812E-14  1.602275E-02  7.521301E-04  3.468770E-04  3.563679E-01  0.000000E+00
  7.047326E-01  3.175913E-02  3.666667E-01  7.191081E-01  2.255170E-02 -5.664491E-17  1.558564E-02  5.142088E-04  3.541617E-04  3.711540E-01  0.000000E+00
  1.215943E-04  9.321014E-03  3.666667E-01  1.060953E-04 -3.446895E-04 -2.265796E-16 -4.431904E-02  7.909971E-02  2.166412E-04  7.568466E-01  0.000000E+00
  4.902502E-03  3.652078E-03  3.666667E-01  4.984648E-03 -6.129408E-03  5.664491E-17 -1.603858E-02  1.887539E-02  1.691265E-04  9.357323E-01  0.000000E+00
  1.254908E-02  9.885272E-06  3.666667E-01  1.278740E-02 -9.845989E-03  2.265796E-16  8.314534E-03 -2.232743E-03  1.254457E-04  5.384229E-01  0.000000E+00
  2.163699E-02 -2.380237E-03  3.666667E-01  2.206093E-02 -1.228493E-02  5.664491E-17  2.191412E-02 -4.527039E-03  1.069112E-04  3.374959E-01  0.000000E+00
  3.184423E-02 -4.058965E-03  3.666667E-01  3.247663E-02 -1.399794E-02  0.000000E+00  2.763294E-02 -3.636528E-03  1.048074E-04  3.042948E-01  0.000000E+00
  4.311596E-02 -5.236548E-03  3.666667E-01  4.397858E-02 -1.519958E-02 -1.132898E-16  2.983644E-02 -2.411489E-03  1.068188E-04  2.694532E-01  0.000000E+00
  5.546913E-02 -5.956288E-03  3.666667E-01  5.658404E-02 -1.593401E-02 -5.664491E-17  3.050973E-02 -1.431626E-03  1.095433E-04  2.370985E-01  0.000000E+00
  6.891473E-02 -6.432016E-03  3.666667E-01  7.030426E-02 -1.641946E-02  1.699347E-16  3.075113E-02 -8.967700E-04  1.126139E-04  2.252800E-01  0.000000E+00
  8.348882E-02 -6.770536E-03  3.666667E-01  8.517601E-02 -1.676489E-02  2.832245E-16  3.087961E-02 -5.459115E-04  1.156770E-04  2.133853E-01  0.000000E+00
  9.923792E-02 -6.965952E-03  3.666667E-01  1.012468E-01 -1.696430E-02 -1.132898E-16  3.085221E-02 -1.861483E-04  1.188036E-04  1.945891E-01  0.000000E+00
  1.162051E-01 -6.960750E-03  3.666667E-01  1.185605E-01 -1.695899E-02  5.664491E-17  3.063126E-02  1.829256E-04  1.222655E-04  1.778146E-01  0.000000E+00
  1.344203E-01 -6.747662E-03  3.666667E-01  1.371477E-01 -1.674155E-02  0.000000E+00  3.024036E-02  5.058299E-04  1.261479E-04  1.685661E-01  0.000000E+00
  1.539027E-01 -6.324138E-03  3.666667E-01  1.570280E-01 -1.630938E-02  3.064490E-14  2.970005E-02  7.836918E-04  1.303924E-04  1.635793E-01  0.000000E+00
  1.746592E-01 -5.679673E-03  3.666667E-01  1.782084E-01 -1.565175E-02  3.109805E-14  2.908718E-02  1.003304E-03  1.351218E-04  1.616766E-01  0.000000E+00
  1.966815E-01 -4.843471E-03  3.666667E-01  2.006805E-01 -1.479847E-02 -1.132898E-16  2.853542E-02  1.148715E-03  1.406054E-04  1.628693E-01  0.000000E+00
  2.199461E-01 -3.854404E-03  3.666667E-01  2.244203E-01 -1.378920E-02 -1.699347E-16  2.817745E-02  1.231548E-03  1.471843E-04  1.647188E-01  0.000000E+00
  2.444131E-01 -2.757048E-03  3.666667E-01  2.493870E-01 -1.266943E-02  3.092812E-14  2.812336E-02  1.256349E-03  1.553704E-04  1.654558E-01  0.000000E+00
  7.047326E-01  3.175913E-02  3.666667E-01  7.191081E-01  2.255170E-02 -5.664491E-17  1.558564E-02  5.142088E-04  3.541617E-04  3.711540E-01  0.000000E+00