 Title= "ADflow Lift Distribution Data"
Variables = "eta" "CoordinateX" "CoordinateY" "CoordinateZ" "Lift" "Drag" "Moment" "Normalized Lift" "Normalized Drag" "Normalized Moment" "CL" "CD" "CM" "CLp" "CDp" "CMp" "CLv" "CDv" "CMv" "Elliptical" "thickness" "twist" "chord" "fx" "fy" "fz" 
Zone T= "LiftDist_01 allWalls: : z normal"
 I=          150
 DATAPACKING=BLOCK
  0.000000E+00
  6.711405E-03
  1.342281E-02
  2.013422E-02
  2.684563E-02
  3.355704E-02
  4.026845E-02
  4.697986E-02
  5.369127E-02
  6.040268E-02
  6.711409E-02
  7.382550E-02
  8.053691E-02
  8.724832E-02
  9.395973E-02
  1.006711E-01
  1.073825E-01
  1.140940E-01
  1.208054E-01
  1.275168E-01
  1.342282E-01
  1.409396E-01
  1.476510E-01
  1.543624E-01
  1.610738E-01
  1.677852E-01
  1.744966E-01
  1.812081E-01
  1.879195E-01
  1.946309E-01
  2.013423E-01
  2.080537E-01
  2.147651E-01
  2.214765E-01
  2.281879E-01
  2.348993E-01
  2.416107E-01
  2.483221E-01
  2.550336E-01
  2.617450E-01
  2.684564E-01
  2.751678E-01
  2.818792E-01
  2.885906E-01
  2.953020E-01
  3.020134E-01
  3.087248E-01
  3.154362E-01
  3.221476E-01
  3.288591E-01
  3.355705E-01
  3.422819E-01
  3.489933E-01
  3.557047E-01
  3.624161E-01
  3.691275E-01
  3.758389E-01
  3.825503E-01
  3.892617E-01
  3.959732E-01
  4.026846E-01
  4.093960E-01
  4.161074E-01
  4.228188E-01
  4.295302E-01
  4.362416E-01
  4.429530E-01
  4.496644E-01
  4.563758E-01
  4.630872E-01
  4.697987E-01
  4.765101E-01
  4.832215E-01
  4.899329E-01
  4.966443E-01
  5.033557E-01
  5.100671E-01
  5.167785E-01
  5.234899E-01
  5.302013E-01
  5.369128E-01
  5.436242E-01
  5.503356E-01
  5.570470E-01
  5.637584E-01
  5.704698E-01
  5.771812E-01
  5.838926E-01
  5.906040E-01
  5.973154E-01
  6.040268E-01
  6.107383E-01
  6.174497E-01
  6.241611E-01
  6.308725E-01
  6.375839E-01
  6.442953E-01
  6.510067E-01
  6.577181E-01
  6.644295E-01
  6.711409E-01
  6.778524E-01
  6.845638E-01
  6.912752E-01
  6.979866E-01
  7.046980E-01
  7.114094E-01
  7.181208E-01
  7.248322E-01
  7.315436E-01
  7.382550E-01
  7.449664E-01
  7.516779E-01
  7.583893E-01
  7.651007E-01
  7.718121E-01
  7.785235E-01
  7.852349E-01
  7.919463E-01
  7.986577E-01
  8.053691E-01
  8.120805E-01
  8.187919E-01
  8.255034E-01
  8.322148E-01
  8.389262E-01
  8.456376E-01
  8.523490E-01
  8.590604E-01
  8.657718E-01
  8.724832E-01
  8.791946E-01
  8.859060E-01
  8.926175E-01
  8.993289E-01
  9.060403E-01
  9.127517E-01
  9.194631E-01
  9.261745E-01
  9.328859E-01
  9.395973E-01
  9.463087E-01
  9.530201E-01
  9.597315E-01
  9.664430E-01
  9.731544E-01
  9.798658E-01
  9.865772E-01
  9.932886E-01
  1.000000E+00
  0.000000E+00
  0.000000E+00
  0.000000E+00
  0.000000E+00
  0.000000E+00
  0.000000E+00
  0.000000E+00
  0.000000E+00
  0.000000E+00
  0.000000E+00
  0.000000E+00
  0.000000E+00
  0.000000E+00
  0.000000E+00
  0.000000E+00
  0.000000E+00
  0.000000E+00
  0.000000E+00
  0.000000E+00
  0.000000E+00
  0.000000E+00
  0.000000E+00
  0.000000E+00
  0.000000E+00
  0.000000E+00
  0.000000E+00
  0.000000E+00
  0.000000E+00
  0.000000E+00
  0.000000E+00
  0.000000E+00
  0.000000E+00
  0.000000E+00
  0.000000E+00
  0.000000E+00
  0.000000E+00
  0.000000E+00
  0.000000E+00
  0.000000E+00
  0.000000E+00
  0.000000E+00
  0.000000E+00
  0.000000E+00
  0.000000E+00
  0.000000E+00
  0.000000E+00
  0.000000E+00
  0.000000E+00
  0.000000E+00
  0.000000E+00
  0.000000E+00
  0.000000E+00
  0.000000E+00
  0.000000E+00
  0.000000E+00
  0.000000E+00
  0.000000E+00
  0.000000E+00
  0.000000E+00
  0.000000E+00
  0.000000E+00
  0.000000E+00
  0.000000E+00
  0.000000E+00
  0.000000E+00
  0.000000E+00
  0.000000E+00
  0.000000E+00
  0.000000E+00
  0.000000E+00
  0.000000E+00
  0.000000E+00
  0.000000E+00
  0.000000E+00
  0.000000E+00
  0.000000E+00
  0.000000E+00
  0.000000E+00
  0.000000E+00
  0.000000E+00
  0.000000E+00
  0.000000E+00
  0.000000E+00
  0.000000E+00
  0.000000E+00
  0.000000E+00
  0.000000E+00
  0.000000E+00
  0.000000E+00
  0.000000E+00
  0.000000E+00
  0.000000E+00
  0.000000E+00
  0.000000E+00
  0.000000E+00
  0.000000E+00
  0.000000E+00
  0.000000E+00
  0.000000E+00
  0.000000E+00
  0.000000E+00
  0.000000E+00
  0.000000E+00
  0.000000E+00
  0.000000E+00
  0.000000E+00
  0.000000E+00
  0.000000E+00
  0.000000E+00
  0.000000E+00
  0.000000E+00
  0.000000E+00
  0.000000E+00
  0.000000E+00
  0.000000E+00
  0.000000E+00
  0.000000E+00
  0.000000E+00
  0.000000E+00
  0.000000E+00
  0.000000E+00
  0.000000E+00
  0.000000E+00
  0.000000E+00
  0.000000E+00
  0.000000E+00
  0.000000E+00
  0.000000E+00
  0.000000E+00
  0.000000E+00
  0.000000E+00
  0.000000E+00
  0.000000E+00
  0.000000E+00
  0.000000E+00
  0.000000E+00
  0.000000E+00
  0.000000E+00
  0.000000E+00
  0.000000E+00
  0.000000E+00
  0.000000E+00
  0.000000E+00
  0.000000E+00
  0.000000E+00
  0.000000E+00
  0.000000E+00
  0.000000E+00
  0.000000E+00
  0.000000E+00
  0.000000E+00
  0.000000E+00
  0.000000E+00
  0.000000E+00
  0.000000E+00
  0.000000E+00
  0.000000E+00
  0.000000E+00
  0.000000E+00
  0.000000E+00
  0.000000E+00
  0.000000E+00
  0.000000E+00
  0.000000E+00
  0.000000E+00
  0.000000E+00
  0.000000E+00
  0.000000E+00
  0.000000E+00
  0.000000E+00
  0.000000E+00
  0.000000E+00
  0.000000E+00
  0.000000E+00
  0.000000E+00
  0.000000E+00
  0.000000E+00
  0.000000E+00
  0.000000E+00
  0.000000E+00
  0.000000E+00
  0.000000E+00
  0.000000E+00
  0.000000E+00
  0.000000E+00
  0.000000E+00
  0.000000E+00
  0.000000E+00
  0.000000E+00
  0.000000E+00
  0.000000E+00
  0.000000E+00
  0.000000E+00
  0.000000E+00
  0.000000E+00
  0.000000E+00
  0.000000E+00
  0.000000E+00
  0.000000E+00
  0.000000E+00
  0.000000E+00
  0.000000E+00
  0.000000E+00
  0.000000E+00
  0.000000E+00
  0.000000E+00
  0.000000E+00
  0.000000E+00
  0.000000E+00
  0.000000E+00
  0.000000E+00
  0.000000E+00
  0.000000E+00
  0.000000E+00
  0.000000E+00
  0.000000E+00
  0.000000E+00
  0.000000E+00
  0.000000E+00
  0.000000E+00
  0.000000E+00
  0.000000E+00
  0.000000E+00
  0.000000E+00
  0.000000E+00
  0.000000E+00
  0.000000E+00
  0.000000E+00
  0.000000E+00
  0.000000E+00
  0.000000E+00
  0.000000E+00
  0.000000E+00
  0.000000E+00
  0.000000E+00
  0.000000E+00
  0.000000E+00
  0.000000E+00
  0.000000E+00
  0.000000E+00
  0.000000E+00
  0.000000E+00
  0.000000E+00
  0.000000E+00
  0.000000E+00
  0.000000E+00
  0.000000E+00
  0.000000E+00
  0.000000E+00
  0.000000E+00
  0.000000E+00
  0.000000E+00
  0.000000E+00
  0.000000E+00
  0.000000E+00
  0.000000E+00
  0.000000E+00
  0.000000E+00
  0.000000E+00
  0.000000E+00
  0.000000E+00
  0.000000E+00
  0.000000E+00
  0.000000E+00
  0.000000E+00
  0.000000E+00
  0.000000E+00
  0.000000E+00
  0.000000E+00
  0.000000E+00
  0.000000E+00
  0.000000E+00
  0.000000E+00
  0.000000E+00
  0.000000E+00
  0.000000E+00
  0.000000E+00
  0.000000E+00
  0.000000E+00
  0.000000E+00
  0.000000E+00
  0.000000E+00
  0.000000E+00
  0.000000E+00
  0.000000E+00
  0.000000E+00
  0.000000E+00
  0.000000E+00
  0.000000E+00
  0.000000E+00
  0.000000E+00
  0.000000E+00
  0.000000E+00
  0.000000E+00
  0.000000E+00
  0.000000E+00
  0.000000E+00
  0.000000E+00
  0.000000E+00
  0.000000E+00
  1.000000E-08
  1.695085E-02
  3.390169E-02
  5.085254E-02
  6.780338E-02
  8.475423E-02
  1.017051E-01
  1.186559E-01
  1.356068E-01
  1.525576E-01
  1.695085E-01
  1.864593E-01
  2.034101E-01
  2.203610E-01
  2.373118E-01
  2.542627E-01
  2.712135E-01
  2.881644E-01
  3.051152E-01
  3.220661E-01
  3.390169E-01
  3.559678E-01
  3.729186E-01
  3.898694E-01
  4.068203E-01
  4.237711E-01
  4.407220E-01
  4.576728E-01
  4.746237E-01
  4.915745E-01
  5.085254E-01
  5.254762E-01
  5.424271E-01
  5.593779E-01
  5.763287E-01
  5.932796E-01
  6.102304E-01
  6.271813E-01
  6.441321E-01
  6.610830E-01
  6.780338E-01
  6.949847E-01
  7.119355E-01
  7.288864E-01
  7.458372E-01
  7.627880E-01
  7.797389E-01
  7.966897E-01
  8.136406E-01
  8.305914E-01
  8.475423E-01
  8.644931E-01
  8.814440E-01
  8.983948E-01
  9.153457E-01
  9.322965E-01
  9.492473E-01
  9.661982E-01
  9.831490E-01
  1.000100E+00
  1.017051E+00
  1.034002E+00
  1.050952E+00
  1.067903E+00
  1.084854E+00
  1.101805E+00
  1.118756E+00
  1.135707E+00
  1.152657E+00
  1.169608E+00
  1.186559E+00
  1.203510E+00
  1.220461E+00
  1.237412E+00
  1.254363E+00
  1.271313E+00
  1.288264E+00
  1.305215E+00
  1.322166E+00
  1.339117E+00
  1.356068E+00
  1.373018E+00
  1.389969E+00
  1.406920E+00
  1.423871E+00
  1.440822E+00
  1.457773E+00
  1.474724E+00
  1.491674E+00
  1.508625E+00
  1.525576E+00
  1.542527E+00
  1.559478E+00
  1.576429E+00
  1.593379E+00
  1.610330E+00
  1.627281E+00
  1.644232E+00
  1.661183E+00
  1.678134E+00
  1.695085E+00
  1.712035E+00
  1.728986E+00
  1.745937E+00
  1.762888E+00
  1.779839E+00
  1.796790E+00
  1.813740E+00
  1.830691E+00
  1.847642E+00
  1.864593E+00
  1.881544E+00
  1.898495E+00
  1.915446E+00
  1.932396E+00
  1.949347E+00
  1.966298E+00
  1.983249E+00
  2.000200E+00
  2.017151E+00
  2.034101E+00
  2.051052E+00
  2.068003E+00
  2.084954E+00
  2.101905E+00
  2.118856E+00
  2.135807E+00
  2.152757E+00
  2.169708E+00
  2.186659E+00
  2.203610E+00
  2.220561E+00
  2.237512E+00
  2.254462E+00
  2.271413E+00
  2.288364E+00
  2.305315E+00
  2.322266E+00
  2.339217E+00
  2.356168E+00
  2.373118E+00
  2.390069E+00
  2.407020E+00
  2.423971E+00
  2.440922E+00
  2.457873E+00
  2.474823E+00
  2.491774E+00
  2.508725E+00
  2.525676E+00
  1.106438E+04
  1.106244E+04
  1.106050E+04
  1.105856E+04
  1.105662E+04
  1.105468E+04
  1.105274E+04
  1.105080E+04
  1.104886E+04
  1.104331E+04
  1.103768E+04
  1.103205E+04
  1.102642E+04
  1.102078E+04
  1.101515E+04
  1.100952E+04
  1.100275E+04
  1.099389E+04
  1.098503E+04
  1.097616E+04
  1.096730E+04
  1.095844E+04
  1.094958E+04
  1.094037E+04
  1.092828E+04
  1.091619E+04
  1.090410E+04
  1.089202E+04
  1.087993E+04
  1.086784E+04
  1.085497E+04
  1.083945E+04
  1.082394E+04
  1.080843E+04
  1.079291E+04
  1.077740E+04
  1.076189E+04
  1.074399E+04
  1.072503E+04
  1.070608E+04
  1.068713E+04
  1.066818E+04
  1.064922E+04
  1.062865E+04
  1.060637E+04
  1.058409E+04
  1.056181E+04
  1.053953E+04
  1.051726E+04
  1.049302E+04
  1.046741E+04
  1.044180E+04
  1.041620E+04
  1.039060E+04
  1.036499E+04
  1.033608E+04
  1.030711E+04
  1.027814E+04
  1.024918E+04
  1.022022E+04
  1.018911E+04
  1.015689E+04
  1.012468E+04
  1.009247E+04
  1.006026E+04
  1.002609E+04
  9.990630E+03
  9.955176E+03
  9.919726E+03
  9.884278E+03
  9.846063E+03
  9.807155E+03
  9.768249E+03
  9.729347E+03
  9.689595E+03
  9.647077E+03
  9.604562E+03
  9.562048E+03
  9.519536E+03
  9.473716E+03
  9.427528E+03
  9.381341E+03
  9.335155E+03
  9.286063E+03
  9.236153E+03
  9.186245E+03
  9.136338E+03
  9.083443E+03
  9.030092E+03
  8.976743E+03
  8.922961E+03
  8.866694E+03
  8.810434E+03
  8.754179E+03
  8.696272E+03
  8.637349E+03
  8.578440E+03
  8.518849E+03
  8.457333E+03
  8.395843E+03
  8.334196E+03
  8.270362E+03
  8.206566E+03
  8.142684E+03
  8.076355E+03
  8.010072E+03
  7.943258E+03
  7.873706E+03
  7.804198E+03
  7.732986E+03
  7.659574E+03
  7.586202E+03
  7.509243E+03
  7.431638E+03
  7.352415E+03
  7.270479E+03
  7.188425E+03
  7.102194E+03
  7.015981E+03
  6.926360E+03
  6.835936E+03
  6.742629E+03
  6.648051E+03
  6.550655E+03
  6.451963E+03
  6.350197E+03
  6.247548E+03
  6.141363E+03
  6.034244E+03
  5.924590E+03
  5.813101E+03
  5.700267E+03
  5.584731E+03
  5.467587E+03
  5.348739E+03
  5.227446E+03
  5.103523E+03
  4.977302E+03
  4.848970E+03
  4.719824E+03
  4.594178E+03
  4.482393E+03
  4.402199E+03
  4.388866E+03
  4.479544E+03
  4.442954E+03
  4.002598E+03
  4.498490E+03
  1.344523E+03
 -1.146959E-04
  6.315437E+02
  6.314345E+02
  6.313254E+02
  6.312163E+02
  6.311073E+02
  6.309982E+02
  6.308891E+02
  6.307801E+02
  6.306711E+02
  6.304703E+02
  6.302672E+02
  6.300642E+02
  6.298612E+02
  6.296581E+02
  6.294551E+02
  6.292521E+02
  6.290637E+02
  6.289020E+02
  6.287402E+02
  6.285785E+02
  6.284168E+02
  6.282550E+02
  6.280933E+02
  6.279296E+02
  6.277499E+02
  6.275701E+02
  6.273904E+02
  6.272107E+02
  6.270309E+02
  6.268512E+02
  6.266519E+02
  6.263877E+02
  6.261234E+02
  6.258592E+02
  6.255949E+02
  6.253306E+02
  6.250662E+02
  6.247384E+02
  6.243827E+02
  6.240269E+02
  6.236711E+02
  6.233152E+02
  6.229593E+02
  6.225444E+02
  6.220673E+02
  6.215901E+02
  6.211129E+02
  6.206355E+02
  6.201581E+02
  6.195422E+02
  6.188293E+02
  6.181163E+02
  6.174032E+02
  6.166901E+02
  6.159768E+02
  6.149146E+02
  6.138470E+02
  6.127792E+02
  6.117114E+02
  6.106435E+02
  6.093437E+02
  6.079249E+02
  6.065061E+02
  6.050873E+02
  6.036684E+02
  6.020865E+02
  6.003976E+02
  5.987087E+02
  5.970196E+02
  5.953305E+02
  5.935199E+02
  5.916787E+02
  5.898373E+02
  5.879957E+02
  5.861592E+02
  5.843396E+02
  5.825196E+02
  5.806993E+02
  5.788788E+02
  5.771044E+02
  5.753349E+02
  5.735650E+02
  5.717949E+02
  5.699049E+02
  5.679810E+02
  5.660567E+02
  5.641321E+02
  5.619003E+02
  5.596213E+02
  5.573421E+02
  5.549910E+02
  5.522316E+02
  5.494727E+02
  5.467145E+02
  5.435109E+02
  5.400339E+02
  5.365595E+02
  5.328591E+02
  5.285220E+02
  5.241914E+02
  5.198210E+02
  5.148902E+02
  5.099696E+02
  5.050478E+02
  4.999161E+02
  4.947955E+02
  4.896892E+02
  4.846111E+02
  4.795423E+02
  4.745835E+02
  4.697613E+02
  4.649456E+02
  4.604765E+02
  4.560747E+02
  4.518692E+02
  4.479854E+02
  4.441209E+02
  4.408109E+02
  4.374990E+02
  4.346800E+02
  4.319761E+02
  4.296799E+02
  4.275625E+02
  4.258037E+02
  4.242099E+02
  4.229985E+02
  4.218986E+02
  4.212848E+02
  4.208252E+02
  4.207879E+02
  4.211358E+02
  4.217804E+02
  4.231366E+02
  4.250130E+02
  4.274645E+02
  4.308082E+02
  4.352389E+02
  4.408269E+02
  4.479724E+02
  4.574095E+02
  4.706109E+02
  4.904148E+02
  5.214668E+02
  5.719437E+02
  6.498304E+02
  7.184404E+02
  7.313393E+02
  8.831567E+02
  2.128967E+02
  3.892362E-04
  1.803998E+03
  1.803420E+03
  1.802842E+03
  1.802264E+03
  1.801687E+03
  1.801109E+03
  1.800531E+03
  1.799954E+03
  1.799376E+03
  1.797998E+03
  1.796599E+03
  1.795201E+03
  1.793803E+03
  1.792404E+03
  1.791006E+03
  1.789608E+03
  1.788040E+03
  1.786162E+03
  1.784283E+03
  1.782405E+03
  1.780526E+03
  1.778648E+03
  1.776769E+03
  1.774818E+03
  1.772279E+03
  1.769740E+03
  1.767201E+03
  1.764662E+03
  1.762123E+03
  1.759584E+03
  1.756869E+03
  1.753565E+03
  1.750261E+03
  1.746957E+03
  1.743653E+03
  1.740349E+03
  1.737046E+03
  1.733239E+03
  1.729212E+03
  1.725185E+03
  1.721158E+03
  1.717131E+03
  1.713105E+03
  1.708777E+03
  1.704131E+03
  1.699486E+03
  1.694840E+03
  1.690195E+03
  1.685550E+03
  1.680620E+03
  1.675489E+03
  1.670359E+03
  1.665229E+03
  1.660099E+03
  1.654970E+03
  1.649528E+03
  1.644081E+03
  1.638635E+03
  1.633190E+03
  1.627745E+03
  1.622174E+03
  1.616540E+03
  1.610906E+03
  1.605274E+03
  1.599642E+03
  1.593862E+03
  1.587986E+03
  1.582110E+03
  1.576236E+03
  1.570362E+03
  1.564213E+03
  1.557994E+03
  1.551777E+03
  1.545560E+03
  1.539289E+03
  1.532843E+03
  1.526397E+03
  1.519952E+03
  1.513507E+03
  1.506923E+03
  1.500325E+03
  1.493726E+03
  1.487128E+03
  1.480281E+03
  1.473363E+03
  1.466446E+03
  1.459530E+03
  1.452401E+03
  1.445241E+03
  1.438081E+03
  1.430936E+03
  1.423866E+03
  1.416799E+03
  1.409733E+03
  1.402682E+03
  1.395642E+03
  1.388607E+03
  1.381471E+03
  1.374047E+03
  1.366634E+03
  1.359194E+03
  1.351304E+03
  1.343431E+03
  1.335548E+03
  1.327140E+03
  1.318754E+03
  1.310210E+03
  1.300828E+03
  1.291467E+03
  1.281471E+03
  1.270655E+03
  1.259856E+03
  1.247648E+03
  1.235186E+03
  1.222082E+03
  1.207901E+03
  1.193674E+03
  1.177801E+03
  1.161934E+03
  1.144827E+03
  1.127427E+03
  1.109170E+03
  1.090536E+03
  1.071286E+03
  1.051753E+03
  1.031798E+03
  1.011724E+03
  9.915131E+02
  9.713694E+02
  9.514470E+02
  9.319605E+02
  9.128181E+02
  8.947217E+02
  8.774342E+02
  8.610303E+02
  8.459874E+02
  8.325125E+02
  8.206663E+02
  8.110990E+02
  8.052330E+02
  8.063571E+02
  8.215690E+02
  8.627809E+02
  9.484498E+02
  1.092879E+03
  1.203288E+03
  1.135456E+03
  1.286660E+03
  2.071295E+02
 -8.387963E-11
  1.245048E+00
  1.244830E+00
  1.244611E+00
  1.244393E+00
  1.244175E+00
  1.243956E+00
  1.243738E+00
  1.243519E+00
  1.243301E+00
  1.242677E+00
  1.242043E+00
  1.241410E+00
  1.240776E+00
  1.240142E+00
  1.239508E+00
  1.238874E+00
  1.238112E+00
  1.237115E+00
  1.236118E+00
  1.235121E+00
  1.234124E+00
  1.233127E+00
  1.232130E+00
  1.231093E+00
  1.229733E+00
  1.228372E+00
  1.227012E+00
  1.225652E+00
  1.224292E+00
  1.222932E+00
  1.221483E+00
  1.219737E+00
  1.217992E+00
  1.216246E+00
  1.214500E+00
  1.212755E+00
  1.211010E+00
  1.208995E+00
  1.206862E+00
  1.204729E+00
  1.202596E+00
  1.200464E+00
  1.198331E+00
  1.196017E+00
  1.193509E+00
  1.191002E+00
  1.188495E+00
  1.185988E+00
  1.183481E+00
  1.180754E+00
  1.177872E+00
  1.174991E+00
  1.172110E+00
  1.169228E+00
  1.166348E+00
  1.163094E+00
  1.159834E+00
  1.156575E+00
  1.153316E+00
  1.150057E+00
  1.146556E+00
  1.142930E+00
  1.139305E+00
  1.135681E+00
  1.132056E+00
  1.128211E+00
  1.124221E+00
  1.120232E+00
  1.116243E+00
  1.112254E+00
  1.107954E+00
  1.103575E+00
  1.099197E+00
  1.094820E+00
  1.090347E+00
  1.085562E+00
  1.080778E+00
  1.075994E+00
  1.071210E+00
  1.066054E+00
  1.060857E+00
  1.055660E+00
  1.050462E+00
  1.044938E+00
  1.039322E+00
  1.033706E+00
  1.028090E+00
  1.022138E+00
  1.016134E+00
  1.010131E+00
  1.004079E+00
  9.977476E-01
  9.914167E-01
  9.850866E-01
  9.785704E-01
  9.719400E-01
  9.653110E-01
  9.586054E-01
  9.516832E-01
  9.447638E-01
  9.378269E-01
  9.306438E-01
  9.234650E-01
  9.162765E-01
  9.088127E-01
  9.013539E-01
  8.938355E-01
  8.860090E-01
  8.781875E-01
  8.701742E-01
  8.619133E-01
  8.536569E-01
  8.449969E-01
  8.362642E-01
  8.273494E-01
  8.181294E-01
  8.088960E-01
  7.991926E-01
  7.894914E-01
  7.794065E-01
  7.692312E-01
  7.587317E-01
  7.480890E-01
  7.371294E-01
  7.260237E-01
  7.145723E-01
  7.030215E-01
  6.910727E-01
  6.790189E-01
  6.666797E-01
  6.541341E-01
  6.414373E-01
  6.284363E-01
  6.152543E-01
  6.018807E-01
  5.882318E-01
  5.742871E-01
  5.600837E-01
  5.456429E-01
  5.311103E-01
  5.169717E-01
  5.043929E-01
  4.953687E-01
  4.938684E-01
  5.040722E-01
  4.999549E-01
  4.504027E-01
  5.062042E-01
  1.512959E-01
 -1.290645E-08
  1.127592E+00
  1.127397E+00
  1.127203E+00
  1.127008E+00
  1.126813E+00
  1.126618E+00
  1.126424E+00
  1.126229E+00
  1.126034E+00
  1.125676E+00
  1.125313E+00
  1.124951E+00
  1.124588E+00
  1.124226E+00
  1.123863E+00
  1.123501E+00
  1.123164E+00
  1.122876E+00
  1.122587E+00
  1.122298E+00
  1.122009E+00
  1.121721E+00
  1.121432E+00
  1.121139E+00
  1.120819E+00
  1.120498E+00
  1.120177E+00
  1.119856E+00
  1.119535E+00
  1.119214E+00
  1.118858E+00
  1.118386E+00
  1.117915E+00
  1.117443E+00
  1.116971E+00
  1.116499E+00
  1.116027E+00
  1.115442E+00
  1.114807E+00
  1.114171E+00
  1.113536E+00
  1.112901E+00
  1.112265E+00
  1.111525E+00
  1.110673E+00
  1.109821E+00
  1.108969E+00
  1.108116E+00
  1.107264E+00
  1.106164E+00
  1.104891E+00
  1.103618E+00
  1.102345E+00
  1.101072E+00
  1.099798E+00
  1.097902E+00
  1.095996E+00
  1.094089E+00
  1.092183E+00
  1.090276E+00
  1.087955E+00
  1.085422E+00
  1.082889E+00
  1.080356E+00
  1.077822E+00
  1.074998E+00
  1.071982E+00
  1.068967E+00
  1.065951E+00
  1.062935E+00
  1.059703E+00
  1.056415E+00
  1.053128E+00
  1.049839E+00
  1.046560E+00
  1.043312E+00
  1.040062E+00
  1.036812E+00
  1.033562E+00
  1.030393E+00
  1.027234E+00
  1.024074E+00
  1.020914E+00
  1.017539E+00
  1.014104E+00
  1.010668E+00
  1.007232E+00
  1.003247E+00
  9.991783E-01
  9.951089E-01
  9.909110E-01
  9.859842E-01
  9.810584E-01
  9.761337E-01
  9.704139E-01
  9.642058E-01
  9.580025E-01
  9.513955E-01
  9.436517E-01
  9.359198E-01
  9.281166E-01
  9.193129E-01
  9.105273E-01
  9.017397E-01
  8.925774E-01
  8.834346E-01
  8.743176E-01
  8.652508E-01
  8.562009E-01
  8.473472E-01
  8.387373E-01
  8.301391E-01
  8.221597E-01
  8.143005E-01
  8.067918E-01
  7.998575E-01
  7.929575E-01
  7.870476E-01
  7.811344E-01
  7.761012E-01
  7.712736E-01
  7.671737E-01
  7.633932E-01
  7.602530E-01
  7.574074E-01
  7.552445E-01
  7.532806E-01
  7.521847E-01
  7.513642E-01
  7.512976E-01
  7.519187E-01
  7.530696E-01
  7.554910E-01
  7.588413E-01
  7.632183E-01
  7.691883E-01
  7.770991E-01
  7.870762E-01
  7.998342E-01
  8.166837E-01
  8.402541E-01
  8.756132E-01
  9.310551E-01
  1.021179E+00
  1.160242E+00
  1.282742E+00
  1.305773E+00
  1.576836E+00
  3.801173E-01
  6.949633E-07
  1.242210E+00
  1.241812E+00
  1.241414E+00
  1.241017E+00
  1.240619E+00
  1.240221E+00
  1.239823E+00
  1.239425E+00
  1.239028E+00
  1.238079E+00
  1.237116E+00
  1.236153E+00
  1.235190E+00
  1.234227E+00
  1.233264E+00
  1.232302E+00
  1.231222E+00
  1.229928E+00
  1.228635E+00
  1.227341E+00
  1.226048E+00
  1.224754E+00
  1.223461E+00
  1.222117E+00
  1.220369E+00
  1.218620E+00
  1.216872E+00
  1.215124E+00
  1.213376E+00
  1.211628E+00
  1.209758E+00
  1.207483E+00
  1.205208E+00
  1.202933E+00
  1.200658E+00
  1.198383E+00
  1.196108E+00
  1.193487E+00
  1.190714E+00
  1.187941E+00
  1.185168E+00
  1.182395E+00
  1.179622E+00
  1.176642E+00
  1.173443E+00
  1.170244E+00
  1.167046E+00
  1.163847E+00
  1.160649E+00
  1.157254E+00
  1.153721E+00
  1.150188E+00
  1.146656E+00
  1.143123E+00
  1.139592E+00
  1.135844E+00
  1.132094E+00
  1.128343E+00
  1.124594E+00
  1.120844E+00
  1.117009E+00
  1.113129E+00
  1.109250E+00
  1.105371E+00
  1.101493E+00
  1.097513E+00
  1.093467E+00
  1.089421E+00
  1.085376E+00
  1.081332E+00
  1.077097E+00
  1.072815E+00
  1.068534E+00
  1.064253E+00
  1.059935E+00
  1.055496E+00
  1.051058E+00
  1.046620E+00
  1.042182E+00
  1.037649E+00
  1.033105E+00
  1.028561E+00
  1.024018E+00
  1.019303E+00
  1.014539E+00
  1.009776E+00
  1.005014E+00
  1.000105E+00
  9.951746E-01
  9.902448E-01
  9.853245E-01
  9.804564E-01
  9.755898E-01
  9.707247E-01
  9.658690E-01
  9.610213E-01
  9.561771E-01
  9.512635E-01
  9.461515E-01
  9.410470E-01
  9.359238E-01
  9.304907E-01
  9.250696E-01
  9.196415E-01
  9.138521E-01
  9.080771E-01
  9.021942E-01
  8.957338E-01
  8.892879E-01
  8.824051E-01
  8.749568E-01
  8.675212E-01
  8.591145E-01
  8.505333E-01
  8.415105E-01
  8.317456E-01
  8.219486E-01
  8.110188E-01
  8.000929E-01
  7.883136E-01
  7.763317E-01
  7.637608E-01
  7.509291E-01
  7.376738E-01
  7.242236E-01
  7.104832E-01
  6.966607E-01
  6.827435E-01
  6.688728E-01
  6.551545E-01
  6.417363E-01
  6.285550E-01
  6.160941E-01
  6.041902E-01
  5.928947E-01
  5.825363E-01
  5.732577E-01
  5.651005E-01
  5.585126E-01
  5.544733E-01
  5.552473E-01
  5.657221E-01
  5.941001E-01
  6.530906E-01
  7.525429E-01
  8.285688E-01
  7.818605E-01
  8.859776E-01
  1.426268E-01
 -5.775846E-14
  9.893267E-01
  9.891531E-01
  9.889795E-01
  9.888060E-01
  9.886324E-01
  9.884589E-01
  9.882853E-01
  9.881118E-01
  9.879383E-01
  9.874426E-01
  9.869390E-01
  9.864353E-01
  9.859317E-01
  9.854281E-01
  9.849245E-01
  9.844209E-01
  9.838155E-01
  9.830232E-01
  9.822309E-01
  9.814387E-01
  9.806464E-01
  9.798542E-01
  9.790620E-01
  9.782378E-01
  9.771570E-01
  9.760763E-01
  9.749956E-01
  9.739149E-01
  9.728342E-01
  9.717536E-01
  9.706021E-01
  9.692150E-01
  9.678279E-01
  9.664409E-01
  9.650540E-01
  9.636670E-01
  9.622802E-01
  9.606792E-01
  9.589845E-01
  9.572899E-01
  9.555953E-01
  9.539008E-01
  9.522064E-01
  9.503670E-01
  9.483747E-01
  9.463826E-01
  9.443905E-01
  9.423985E-01
  9.404067E-01
  9.382396E-01
  9.359498E-01
  9.336601E-01
  9.313706E-01
  9.290813E-01
  9.267921E-01
  9.242065E-01
  9.216163E-01
  9.190264E-01
  9.164367E-01
  9.138472E-01
  9.110650E-01
  9.081843E-01
  9.053037E-01
  9.024235E-01
  8.995435E-01
  8.964880E-01
  8.933175E-01
  8.901473E-01
  8.869773E-01
  8.838077E-01
  8.803905E-01
  8.769113E-01
  8.734325E-01
  8.699539E-01
  8.663993E-01
  8.625975E-01
  8.587959E-01
  8.549944E-01
  8.511932E-01
  8.470962E-01
  8.429662E-01
  8.388364E-01
  8.347067E-01
  8.303171E-01
  8.258544E-01
  8.213918E-01
  8.169295E-01
  8.121997E-01
  8.074292E-01
  8.026589E-01
  7.978498E-01
  7.928184E-01
  7.877875E-01
  7.827572E-01
  7.775788E-01
  7.723095E-01
  7.670413E-01
  7.617120E-01
  7.562101E-01
  7.507103E-01
  7.451964E-01
  7.394863E-01
  7.337795E-01
  7.280647E-01
  7.221308E-01
  7.162006E-01
  7.102230E-01
  7.040004E-01
  6.977817E-01
  6.914107E-01
  6.848433E-01
  6.782792E-01
  6.713952E-01
  6.644535E-01
  6.573675E-01
  6.500396E-01
  6.427013E-01
  6.349906E-01
  6.272817E-01
  6.192690E-01
  6.111846E-01
  6.028435E-01
  5.943888E-01
  5.856830E-01
  5.768614E-01
  5.677656E-01
  5.585908E-01
  5.491003E-01
  5.395262E-01
  5.297254E-01
  5.197605E-01
  5.096752E-01
  4.993481E-01
  4.888768E-01
  4.782529E-01
  4.674100E-01
  4.563314E-01
  4.450469E-01
  4.335732E-01
  4.220261E-01
  4.107912E-01
  4.007950E-01
  3.936230E-01
  3.924289E-01
  4.005341E-01
  3.972593E-01
  3.578820E-01
  4.022161E-01
  1.651265E-01
 -2.494767E-03
  5.646975E-02
  5.645999E-02
  5.645024E-02
  5.644048E-02
  5.643073E-02
  5.642098E-02
  5.641123E-02
  5.640148E-02
  5.639173E-02
  5.637377E-02
  5.635562E-02
  5.633746E-02
  5.631931E-02
  5.630116E-02
  5.628301E-02
  5.626486E-02
  5.624801E-02
  5.623355E-02
  5.621909E-02
  5.620463E-02
  5.619017E-02
  5.617571E-02
  5.616125E-02
  5.614661E-02
  5.613055E-02
  5.611448E-02
  5.609841E-02
  5.608234E-02
  5.606627E-02
  5.605020E-02
  5.603238E-02
  5.600876E-02
  5.598514E-02
  5.596152E-02
  5.593789E-02
  5.591426E-02
  5.589062E-02
  5.586131E-02
  5.582951E-02
  5.579770E-02
  5.576589E-02
  5.573407E-02
  5.570225E-02
  5.566516E-02
  5.562250E-02
  5.557984E-02
  5.553717E-02
  5.549449E-02
  5.545180E-02
  5.539673E-02
  5.533299E-02
  5.526924E-02
  5.520548E-02
  5.514171E-02
  5.507793E-02
  5.498296E-02
  5.488749E-02
  5.479202E-02
  5.469654E-02
  5.460105E-02
  5.448482E-02
  5.435796E-02
  5.423109E-02
  5.410422E-02
  5.397735E-02
  5.383589E-02
  5.368487E-02
  5.353385E-02
  5.338282E-02
  5.323178E-02
  5.306987E-02
  5.290523E-02
  5.274057E-02
  5.257590E-02
  5.241168E-02
  5.224897E-02
  5.208623E-02
  5.192347E-02
  5.176068E-02
  5.160202E-02
  5.144380E-02
  5.128555E-02
  5.112728E-02
  5.095828E-02
  5.078625E-02
  5.061419E-02
  5.044210E-02
  5.024254E-02
  5.003876E-02
  4.983496E-02
  4.962472E-02
  4.937797E-02
  4.913127E-02
  4.888462E-02
  4.859813E-02
  4.828718E-02
  4.797648E-02
  4.764554E-02
  4.725764E-02
  4.687033E-02
  4.647944E-02
  4.603841E-02
  4.559827E-02
  4.515802E-02
  4.469898E-02
  4.424091E-02
  4.378412E-02
  4.332984E-02
  4.287639E-02
  4.243279E-02
  4.200140E-02
  4.157059E-02
  4.117082E-02
  4.077707E-02
  4.040089E-02
  4.005352E-02
  3.970787E-02
  3.941187E-02
  3.911571E-02
  3.886368E-02
  3.862195E-02
  3.841672E-02
  3.822750E-02
  3.807039E-02
  3.792804E-02
  3.781993E-02
  3.772178E-02
  3.766714E-02
  3.762629E-02
  3.762320E-02
  3.765456E-02
  3.771245E-02
  3.783395E-02
  3.800196E-02
  3.822137E-02
  3.852054E-02
  3.891688E-02
  3.941666E-02
  4.005568E-02
  4.089957E-02
  4.207995E-02
  4.385064E-02
  4.662700E-02
  5.114014E-02
  5.810397E-02
  6.423813E-02
  6.539081E-02
  7.896424E-02
  2.614674E-02
  8.466336E-03
  1.613052E-01
  1.612536E-01
  1.612019E-01
  1.611502E-01
  1.610986E-01
  1.610469E-01
  1.609953E-01
  1.609436E-01
  1.608920E-01
  1.607687E-01
  1.606437E-01
  1.605187E-01
  1.603936E-01
  1.602686E-01
  1.601436E-01
  1.600186E-01
  1.598784E-01
  1.597104E-01
  1.595425E-01
  1.593745E-01
  1.592065E-01
  1.590386E-01
  1.588706E-01
  1.586961E-01
  1.584691E-01
  1.582421E-01
  1.580151E-01
  1.577881E-01
  1.575611E-01
  1.573341E-01
  1.570913E-01
  1.567959E-01
  1.565004E-01
  1.562050E-01
  1.559096E-01
  1.556142E-01
  1.553189E-01
  1.549785E-01
  1.546184E-01
  1.542583E-01
  1.538983E-01
  1.535382E-01
  1.531782E-01
  1.527912E-01
  1.523759E-01
  1.519605E-01
  1.515451E-01
  1.511298E-01
  1.507145E-01
  1.502736E-01
  1.498149E-01
  1.493561E-01
  1.488974E-01
  1.484388E-01
  1.479801E-01
  1.474935E-01
  1.470065E-01
  1.465195E-01
  1.460326E-01
  1.455458E-01
  1.450477E-01
  1.445438E-01
  1.440401E-01
  1.435364E-01
  1.430328E-01
  1.425160E-01
  1.419906E-01
  1.414652E-01
  1.409399E-01
  1.404147E-01
  1.398648E-01
  1.393088E-01
  1.387528E-01
  1.381969E-01
  1.376362E-01
  1.370598E-01
  1.364834E-01
  1.359071E-01
  1.353308E-01
  1.347422E-01
  1.341521E-01
  1.335621E-01
  1.329722E-01
  1.323599E-01
  1.317414E-01
  1.311229E-01
  1.305044E-01
  1.298670E-01
  1.292268E-01
  1.285866E-01
  1.279477E-01
  1.273155E-01
  1.266835E-01
  1.260517E-01
  1.254210E-01
  1.247914E-01
  1.241623E-01
  1.235241E-01
  1.228600E-01
  1.221969E-01
  1.215314E-01
  1.208255E-01
  1.201211E-01
  1.194158E-01
  1.186635E-01
  1.179131E-01
  1.171486E-01
  1.163091E-01
  1.154715E-01
  1.145771E-01
  1.136094E-01
  1.126432E-01
  1.115511E-01
  1.104364E-01
  1.092644E-01
  1.079961E-01
  1.067237E-01
  1.053044E-01
  1.038856E-01
  1.023562E-01
  1.008005E-01
  9.916845E-02
  9.750258E-02
  9.578183E-02
  9.403580E-02
  9.225217E-02
  9.045787E-02
  8.865135E-02
  8.685084E-02
  8.507014E-02
  8.332838E-02
  8.161735E-02
  7.999983E-02
  7.845459E-02
  7.698829E-02
  7.564362E-02
  7.443909E-02
  7.338012E-02
  7.252484E-02
  7.200043E-02
  7.210090E-02
  7.346092E-02
  7.714563E-02
  8.480529E-02
  9.771875E-02
  1.075899E-01
  1.015238E-01
  1.150420E-01
  2.543844E-02
 -1.824479E-09
  9.894575E-01
  9.892840E-01
  9.891105E-01
  9.889369E-01
  9.887634E-01
  9.885899E-01
  9.884165E-01
  9.882430E-01
  9.880695E-01
  9.875740E-01
  9.870705E-01
  9.865671E-01
  9.860636E-01
  9.855602E-01
  9.850567E-01
  9.845533E-01
  9.839481E-01
  9.831561E-01
  9.823641E-01
  9.815721E-01
  9.807802E-01
  9.799883E-01
  9.791963E-01
  9.783724E-01
  9.772921E-01