 Title = "ADflow Slice Data"
Variables =  "CoordinateX"  "CoordinateY"  "CoordinateZ"  "XoC"  "YoC"  "ZoC" "VelocityX" "VelocityY" "VelocityZ" "CoefPressure" "Mach" 
Zone T= "Slice_0001 None Relative Regular z = 0.10000000"
 Nodes =          114  Elements=          106  ZONETYPE=FELINESEG
 DATAPACKING=POINT
  7.301402E-01  3.601695E-02  1.000000E-01  7.450174E-01  4.089039E-02  1.416090E-17  2.100812E-02 -1.544397E-03  4.095312E-05 -2.946195E-01  0.000000E+00
  7.043967E-01  3.774232E-02  1.000000E-01  7.187487E-01  4.265096E-02 -4.248270E-17  2.121669E-02 -1.370589E-03  1.175988E-04 -3.048091E-01  0.000000E+00
  6.775455E-01  3.931927E-02  1.000000E-01  6.913497E-01  4.426008E-02  3.965052E-16  2.108408E-02 -1.224711E-03  1.852376E-04 -3.118800E-01  0.000000E+00
  6.496792E-01  4.081189E-02  1.000000E-01  6.629149E-01  4.578315E-02  4.248270E-17  2.068045E-02 -1.139084E-03  2.357323E-04 -3.203613E-01  0.000000E+00
  6.209097E-01  4.232919E-02  1.000000E-01  6.335585E-01  4.733140E-02 -2.832180E-17  2.015479E-02 -1.112722E-03  2.642981E-04 -3.334522E-01  0.000000E+00
  5.913667E-01  4.393191E-02  1.000000E-01  6.034128E-01  4.896682E-02 -2.832180E-17  1.968086E-02 -1.121791E-03  2.703752E-04 -3.519306E-01  0.000000E+00
  5.611982E-01  4.564777E-02  1.000000E-01  5.726289E-01  5.071768E-02  0.000000E+00  1.939973E-02 -1.155233E-03  2.557096E-04 -3.771550E-01  0.000000E+00
  5.305654E-01  4.748423E-02  1.000000E-01  5.413711E-01  5.259160E-02 -5.664360E-17  1.942245E-02 -1.208823E-03  2.228700E-04 -4.112236E-01  0.000000E+00
  4.996398E-01  4.942923E-02  1.000000E-01  5.098146E-01  5.457629E-02  0.000000E+00  1.983862E-02 -1.269596E-03  1.744198E-04 -4.557400E-01  0.000000E+00
  4.685986E-01  5.142062E-02  1.000000E-01  4.781402E-01  5.660830E-02  1.416090E-17  2.069700E-02 -1.309930E-03  1.125810E-04 -5.105055E-01  0.000000E+00
  4.376215E-01  5.334791E-02  1.000000E-01  4.465312E-01  5.857491E-02 -8.496540E-17  2.196471E-02 -1.295439E-03  3.955152E-05 -5.732507E-01  0.000000E+00
  4.068895E-01  5.507855E-02  1.000000E-01  4.151722E-01  6.034086E-02  0.000000E+00  2.350757E-02 -1.191270E-03 -4.143016E-05 -6.392083E-01  0.000000E+00
  3.765814E-01  5.648314E-02  1.000000E-01  3.842458E-01  6.177409E-02 -5.664360E-17  2.510827E-02 -9.816033E-04 -1.248759E-04 -7.032900E-01  0.000000E+00
  3.468696E-01  5.748325E-02  1.000000E-01  3.539279E-01  6.279461E-02 -5.664360E-17  2.654805E-02 -6.869024E-04 -2.027794E-04 -7.638027E-01  0.000000E+00
  3.179133E-01  5.806573E-02  1.000000E-01  3.243809E-01  6.338897E-02 -2.832180E-17  2.772838E-02 -3.490426E-04 -2.665940E-04 -8.239135E-01  0.000000E+00
  2.898519E-01  5.826356E-02  1.000000E-01  2.957470E-01  6.359084E-02 -4.248270E-17  2.874548E-02  1.163440E-05 -3.105311E-04 -8.893972E-01  0.000000E+00
  2.628044E-01  5.809924E-02  1.000000E-01  2.681477E-01  6.342317E-02  0.000000E+00  2.983919E-02  4.127092E-04 -3.328577E-04 -9.654787E-01  0.000000E+00
  9.800000E-01  2.953731E-03  1.000000E-01  9.999744E-01  7.152668E-03 -2.832180E-17  1.039622E-02 -1.318137E-02 -5.512814E-04 -8.010512E-02  0.000000E+00
  9.720124E-01  4.449641E-03  1.000000E-01  9.918239E-01  8.679095E-03 -2.832180E-17  1.187124E-02 -2.269888E-03 -3.716721E-04  6.343536E-02  0.000000E+00
  9.632634E-01  6.094978E-03  1.000000E-01  9.828964E-01  1.035800E-02 -2.832180E-17  9.429872E-03 -1.688266E-03 -3.225529E-04  2.178927E-02  0.000000E+00
  9.536907E-01  7.871019E-03  1.000000E-01  9.731284E-01  1.217027E-02 -2.832180E-17  7.809048E-03 -1.414677E-03 -2.909859E-04  3.774020E-03  0.000000E+00
  9.432303E-01  9.754319E-03  1.000000E-01  9.624546E-01  1.409199E-02  1.416090E-17  7.391153E-03 -1.295000E-03 -2.805207E-04 -1.286807E-02  0.000000E+00
  9.318220E-01  1.174063E-02  1.000000E-01  9.508135E-01  1.611882E-02  1.416090E-17  7.964572E-03 -1.345127E-03 -2.844952E-04 -3.439647E-02  0.000000E+00
  9.194070E-01  1.382509E-02  1.000000E-01  9.381453E-01  1.824581E-02 -8.496540E-17  9.126097E-03 -1.484241E-03 -2.936078E-04 -5.753217E-02  0.000000E+00
  9.059278E-01  1.599753E-02  1.000000E-01  9.243911E-01  2.046257E-02 -5.664360E-17  1.051001E-02 -1.638485E-03 -3.011061E-04 -8.150743E-02  0.000000E+00
  8.913299E-01  1.824363E-02  1.000000E-01  9.094954E-01  2.275449E-02  0.000000E+00  1.191338E-02 -1.771990E-03 -3.030291E-04 -1.066901E-01  0.000000E+00
  8.755643E-01  2.054987E-02  1.000000E-01  8.934082E-01  2.510778E-02 -2.832180E-17  1.328105E-02 -1.875838E-03 -2.971341E-04 -1.330946E-01  0.000000E+00
  8.585885E-01  2.289776E-02  1.000000E-01  8.760860E-01  2.750356E-02  4.106661E-16  1.463266E-02 -1.948342E-03 -2.820023E-04 -1.601274E-01  0.000000E+00
  8.403666E-01  2.525811E-02  1.000000E-01  8.574924E-01  2.991207E-02  3.965052E-16  1.598461E-02 -1.986532E-03 -2.564326E-04 -1.869881E-01  0.000000E+00
  8.208730E-01  2.759620E-02  1.000000E-01  8.376012E-01  3.229786E-02 -8.496540E-17  1.730769E-02 -1.985909E-03 -2.192347E-04 -2.130905E-01  0.000000E+00
  8.000947E-01  2.987720E-02  1.000000E-01  8.163990E-01  3.462539E-02 -2.832180E-17  1.854011E-02 -1.941195E-03 -1.696422E-04 -2.378254E-01  0.000000E+00
  7.780326E-01  3.206411E-02  1.000000E-01  7.938868E-01  3.685691E-02 -2.832180E-17  1.961312E-02 -1.849245E-03 -1.080219E-04 -2.603814E-01  0.000000E+00
  7.547032E-01  3.412099E-02  1.000000E-01  7.700815E-01  3.895575E-02  4.389879E-16  2.045793E-02 -1.712576E-03 -3.642726E-05 -2.796762E-01  0.000000E+00
  7.301402E-01  3.601695E-02  1.000000E-01  7.450174E-01  4.089039E-02  2.832180E-17  2.100812E-02 -1.544397E-03  4.095312E-05 -2.946195E-01  0.000000E+00
  2.444131E-01 -4.203405E-02  1.000000E-01  2.493812E-01 -3.875288E-02  3.681834E-16  3.627272E-02 -8.986764E-04  1.624560E-04  1.153786E-01  0.000000E+00
  2.700250E-01 -4.257783E-02  1.000000E-01  2.755157E-01 -3.930776E-02 -4.248270E-17  3.678624E-02 -6.021085E-04  1.704296E-04  8.901902E-02  0.000000E+00
  2.967058E-01 -4.293101E-02  1.000000E-01  3.027408E-01 -3.966814E-02 -2.832180E-17  3.736982E-02 -2.259552E-04  1.678955E-04  5.827367E-02  0.000000E+00
  3.243554E-01 -4.295486E-02  1.000000E-01  3.309544E-01 -3.969248E-02  4.248270E-16  3.765638E-02  3.318372E-04  1.523190E-04  2.431734E-02  0.000000E+00
  3.528511E-01 -4.248537E-02  1.000000E-01  3.600315E-01 -3.921341E-02 -4.248270E-17  3.719987E-02  1.079518E-03  1.225079E-04 -5.685298E-03  0.000000E+00
  3.820469E-01 -4.131963E-02  1.000000E-01  3.898228E-01 -3.802389E-02  5.664360E-17  3.564865E-02  1.960857E-03  8.049085E-05 -2.430190E-02  0.000000E+00
  4.117740E-01 -3.925894E-02  1.000000E-01  4.201564E-01 -3.592116E-02 -5.664360E-17  3.305282E-02  2.841474E-03  3.136708E-05 -2.425822E-02  0.000000E+00
  4.418498E-01 -3.616669E-02  1.000000E-01  4.508457E-01 -3.276583E-02 -2.832180E-17  2.997187E-02  3.518365E-03 -1.896530E-05 -1.971048E-03  0.000000E+00
  4.721105E-01 -3.214309E-02  1.000000E-01  4.817238E-01 -2.866015E-02 -5.664360E-17  2.736870E-02  3.679122E-03 -6.628495E-05  5.157974E-02  0.000000E+00
  5.024968E-01 -2.801578E-02  1.000000E-01  5.127300E-01 -2.444864E-02  1.416090E-17  2.570739E-02  3.409472E-03 -1.074327E-04  1.134127E-01  0.000000E+00
  5.328693E-01 -2.409565E-02  1.000000E-01  5.437220E-01 -2.044853E-02 -4.248270E-17  2.462303E-02  3.142454E-03 -1.397974E-04  1.452370E-01  0.000000E+00
  5.630297E-01 -2.026815E-02  1.000000E-01  5.744978E-01 -1.654295E-02  1.416090E-17  2.368899E-02  3.005771E-03 -1.615990E-04  1.560612E-01  0.000000E+00
  5.927917E-01 -1.644097E-02  1.000000E-01  6.048669E-01 -1.263769E-02  5.664360E-17  2.264367E-02  2.939508E-03 -1.703296E-04  1.680450E-01  0.000000E+00
  6.219828E-01 -1.254775E-02  1.000000E-01  6.346536E-01 -8.665045E-03 -4.248270E-17  2.138846E-02  2.869080E-03 -1.635651E-04  1.879876E-01  0.000000E+00
  6.504533E-01 -8.625023E-03  1.000000E-01  6.637048E-01 -4.662298E-03  5.664360E-17  2.001614E-02  2.720078E-03 -1.411982E-04  2.156018E-01  0.000000E+00
  6.780742E-01 -4.837254E-03  1.000000E-01  6.918892E-01 -7.972560E-04  4.531488E-16  1.871631E-02  2.469271E-03 -1.058966E-04  2.472415E-01  0.000000E+00
  7.047326E-01 -1.379148E-03  1.000000E-01  7.190915E-01  2.731396E-03  0.000000E+00  1.765433E-02  2.152848E-03 -6.243871E-05  2.770141E-01  0.000000E+00
  1.215943E-04 -4.408475E-03  1.000000E-01  1.060929E-04 -3.597302E-04 -5.664360E-17 -1.770306E-01  3.765540E-01  2.530965E-03 -2.837400E-01  0.000000E+00
  4.902502E-03 -1.071877E-02  1.000000E-01  4.984533E-03 -6.798754E-03 -8.496540E-17 -8.617016E-02  9.434932E-02  4.261533E-04  1.095129E+00  0.000000E+00
  1.254908E-02 -1.535931E-02  1.000000E-01  1.278710E-02 -1.153397E-02 -2.832180E-17 -3.059091E-02  1.788457E-02  6.157109E-06  1.012400E+00  0.000000E+00
  2.163699E-02 -1.891614E-02  1.000000E-01  2.206042E-02 -1.516336E-02  1.416090E-17  5.982844E-03 -1.543779E-03 -3.971934E-05  7.768261E-01  0.000000E+00
  3.184423E-02 -2.188477E-02  1.000000E-01  3.247588E-02 -1.819255E-02 -2.832180E-17  2.244430E-02 -5.686377E-03 -3.521135E-05  6.851777E-01  0.000000E+00
  4.311596E-02 -2.446311E-02  1.000000E-01  4.397756E-02 -2.082349E-02 -8.496540E-17  2.889646E-02 -5.882213E-03 -2.772479E-05  6.066762E-01  0.000000E+00
  5.546913E-02 -2.668960E-02  1.000000E-01  5.658274E-02 -2.309540E-02  1.416090E-17  3.148790E-02 -5.288222E-03 -1.923175E-05  5.322012E-01  0.000000E+00
  6.891473E-02 -2.877152E-02  1.000000E-01  7.030264E-02 -2.521979E-02 -8.496540E-17  3.285857E-02 -4.852747E-03 -1.018446E-05  4.757904E-01  0.000000E+00
  8.348882E-02 -3.081002E-02  1.000000E-01  8.517404E-02 -2.729987E-02  5.664360E-17  3.387004E-02 -4.508823E-03  1.523484E-06  4.228182E-01  0.000000E+00
  9.923792E-02 -3.279225E-02  1.000000E-01  1.012444E-01 -2.932254E-02 -9.912630E-17  3.467520E-02 -4.088974E-03  1.715225E-05  3.672916E-01  0.000000E+00
  1.162051E-01 -3.465048E-02  1.000000E-01  1.185577E-01 -3.121868E-02 -8.496540E-17  3.528384E-02 -3.596424E-03  3.610978E-05  3.154404E-01  0.000000E+00
  1.344203E-01 -3.636262E-02  1.000000E-01  1.371445E-01 -3.296575E-02 -8.496540E-17  3.570149E-02 -3.093720E-03  5.726575E-05  2.714432E-01  0.000000E+00
  1.539027E-01 -3.790639E-02  1.000000E-01  1.570244E-01 -3.454102E-02  4.389879E-16  3.591183E-02 -2.579439E-03  8.010493E-05  2.324416E-01  0.000000E+00
  1.746592E-01 -3.924603E-02  1.000000E-01  1.782043E-01 -3.590798E-02  3.257007E-16  3.595625E-02 -2.079251E-03  1.036376E-04  1.979402E-01  0.000000E+00
  1.966815E-01 -4.037945E-02  1.000000E-01  2.006759E-01 -3.706453E-02 -2.832180E-17  3.594547E-02 -1.630222E-03  1.264066E-04  1.683302E-01  0.000000E+00
  2.199461E-01 -4.130819E-02  1.000000E-01  2.244151E-01 -3.801221E-02 -4.248270E-17  3.600795E-02 -1.234542E-03  1.467953E-04  1.413398E-01  0.000000E+00
  2.444131E-01 -4.203405E-02  1.000000E-01  2.493812E-01 -3.875288E-02  3.823443E-16  3.627272E-02 -8.986764E-04  1.624560E-04  1.153786E-01  0.000000E+00
  7.047326E-01 -1.379148E-03  1.000000E-01  7.190915E-01  2.731396E-03 -2.832180E-17  1.765433E-02  2.152848E-03 -6.243871E-05  2.770141E-01  0.000000E+00
  7.303325E-01  1.612261E-03  1.000000E-01  7.452136E-01  5.783832E-03 -2.832180E-17  1.693646E-02  1.817024E-03 -1.598094E-05  3.009425E-01  0.000000E+00
  7.547951E-01  4.061672E-03  1.000000E-01  7.701753E-01  8.283211E-03  4.389879E-16  1.663431E-02  1.479242E-03  2.961075E-05  3.187032E-01  0.000000E+00
  7.780600E-01  5.919938E-03  1.000000E-01  7.939148E-01  1.017939E-02  1.416090E-17  1.678972E-02  1.134289E-03  7.226772E-05  3.304250E-01  0.000000E+00
  8.000833E-01  7.179085E-03  1.000000E-01  8.163873E-01  1.146422E-02 -4.248270E-17  1.739449E-02  7.683273E-04  1.112144E-04  3.356532E-01  0.000000E+00
  8.208376E-01  7.861204E-03  1.000000E-01  8.375650E-01  1.216026E-02 -2.832180E-17  1.835358E-02  3.890584E-04  1.465531E-04  3.334712E-01  0.000000E+00
  8.403144E-01  8.070693E-03  1.000000E-01  8.574392E-01  1.237402E-02  4.389879E-16  1.947060E-02  4.635694E-05  1.789342E-04  3.232805E-01  0.000000E+00
  8.585258E-01  7.972151E-03  1.000000E-01  8.760221E-01  1.227347E-02  3.965052E-16  2.051640E-02 -2.105366E-04  2.085026E-04  3.080502E-01  0.000000E+00
  8.754993E-01  7.714370E-03  1.000000E-01  8.933419E-01  1.201043E-02 -2.832180E-17  2.132687E-02 -3.767242E-04  2.343374E-04  2.925305E-01  0.000000E+00
  8.912718E-01  7.387321E-03  1.000000E-01  9.094362E-01  1.167671E-02 -2.832180E-17  2.188198E-02 -5.128911E-04  2.546432E-04  2.807302E-01  0.000000E+00
  9.058836E-01  6.991120E-03  1.000000E-01  9.243460E-01  1.127242E-02 -4.248270E-17  2.230743E-02 -6.948615E-04  2.681424E-04  2.732224E-01  0.000000E+00
  9.193796E-01  6.497134E-03  1.000000E-01  9.381173E-01  1.076836E-02 -5.664360E-17  2.279265E-02 -9.324135E-04  2.758502E-04  2.649944E-01  0.000000E+00
  9.318118E-01  5.913529E-03  1.000000E-01  9.508031E-01  1.017285E-02  4.248270E-17  2.356426E-02 -1.224307E-03  2.805088E-04  2.530959E-01  0.000000E+00
  9.432349E-01  5.242351E-03  1.000000E-01  9.624593E-01  9.487977E-03 -2.832180E-17  2.478442E-02 -1.592348E-03  2.846563E-04  2.382705E-01  0.000000E+00
  9.537058E-01  4.490636E-03  1.000000E-01  9.731438E-01  8.720926E-03  0.000000E+00  2.610994E-02 -2.015129E-03  2.869723E-04  2.153758E-01  0.000000E+00
  9.632829E-01  3.669795E-03  1.000000E-01  9.829163E-01  7.883340E-03 -2.832180E-17  2.626618E-02 -2.418779E-03  2.784356E-04  1.798230E-01  0.000000E+00
  9.720275E-01  2.819699E-03  1.000000E-01  9.918393E-01  7.015902E-03  0.000000E+00  2.410053E-02 -2.343308E-03  2.595768E-04  1.762470E-01  0.000000E+00
  9.800000E-01  1.969183E-03  1.000000E-01  9.999744E-01  6.148035E-03  1.416090E-17  1.604732E-02  4.465804E-03  2.860078E-04 -4.389168E-02  0.000000E+00
  1.215943E-04 -3.725437E-03  1.000000E-01  1.060929E-04  3.372426E-04 -9.912630E-17 -3.550460E-03 -2.148908E-02 -3.382988E-04 -1.645304E+00  0.000000E+00
  7.278129E-05 -3.834108E-03  1.000000E-01  5.628403E-05  2.263544E-04  1.416090E-17 -2.228898E-02  1.852488E-02  1.621733E-05 -2.162279E+00  0.000000E+00
  1.762252E-05 -4.055937E-03  1.000000E-01  0.000000E+00  0.000000E+00  0.000000E+00 -1.176388E-01  4.034878E-01  2.958922E-03 -2.330585E+00  0.000000E+00
  8.694958E-05 -4.290958E-03  1.000000E-01  7.074136E-05 -2.398159E-04  0.000000E+00 -2.350985E-01  6.344275E-01  4.605976E-03 -1.941731E+00  0.000000E+00
  1.215943E-04 -4.408475E-03  1.000000E-01  1.060929E-04 -3.597302E-04 -4.248270E-17 -1.770306E-01  3.765540E-01  2.530965E-03 -2.837400E-01  0.000000E+00
  9.800000E-01  1.969183E-03  1.000000E-01  9.999744E-01  6.148035E-03  0.000000E+00  1.604732E-02  4.465804E-03  2.860078E-04 -4.389168E-02  0.000000E+00
  9.800000E-01  2.133275E-03  1.000000E-01  9.999744E-01  6.315474E-03  0.000000E+00  4.728846E-03 -5.566246E-03 -5.340036E-05 -2.520853E-01  0.000000E+00
  9.800000E-01  2.461457E-03  1.000000E-01  9.999744E-01  6.650352E-03 -2.832180E-17 -4.946454E-04 -2.246003E-02 -5.133730E-04 -2.076822E-01  0.000000E+00
  9.800000E-01  2.789640E-03  1.000000E-01  9.999744E-01  6.985230E-03 -5.664360E-17  3.436098E-03 -2.322372E-02 -6.502607E-04 -2.231289E-01  0.000000E+00
  9.800000E-01  2.953731E-03  1.000000E-01  9.999744E-01  7.152668E-03  0.000000E+00  1.039622E-02 -1.318137E-02 -5.512814E-04 -8.010512E-02  0.000000E+00
  2.628044E-01  5.809924E-02  1.000000E-01  2.681477E-01  6.342317E-02 -2.832180E-17  2.983919E-02  4.127092E-04 -3.328577E-04 -9.654787E-01  0.000000E+00
  2.368706E-01  5.758106E-02  1.000000E-01  2.416849E-01  6.289442E-02  3.681834E-16  3.127168E-02  9.235776E-04 -3.347458E-04 -1.051351E+00  0.000000E+00
  2.121362E-01  5.665176E-02  1.000000E-01  2.164459E-01  6.194616E-02  1.416090E-17  3.315498E-02  1.615495E-03 -3.186786E-04 -1.141867E+00  0.000000E+00
  1.886687E-01  5.527880E-02  1.000000E-01  1.924997E-01  6.054519E-02 -4.248270E-17  3.540750E-02  2.520007E-03 -2.876877E-04 -1.232485E+00  0.000000E+00
  1.665185E-01  5.344804E-02  1.000000E-01  1.698975E-01  5.867708E-02  4.814706E-16  3.788906E-02  3.650820E-03 -2.451753E-04 -1.321989E+00  0.000000E+00
  1.457161E-01  5.117631E-02  1.000000E-01  1.486708E-01  5.635900E-02  4.531488E-16  4.057244E-02  5.028760E-03 -1.941330E-04 -1.416002E+00  0.000000E+00
  1.262764E-01  4.848980E-02  1.000000E-01  1.288345E-01  5.361769E-02  0.000000E+00  4.365788E-02  6.725744E-03 -1.361115E-04 -1.523718E+00  0.000000E+00
  1.081990E-01  4.542119E-02  1.000000E-01  1.103883E-01  5.048648E-02  0.000000E+00  4.747386E-02  8.871472E-03 -7.150180E-05 -1.647351E+00  0.000000E+00
  9.146971E-02  4.201181E-02  1.000000E-01  9.331774E-02  4.700754E-02  0.000000E+00  5.220394E-02  1.173643E-02 -6.962462E-07 -1.764264E+00  0.000000E+00
  7.608258E-02  3.823912E-02  1.000000E-01  7.761671E-02  4.315789E-02  0.000000E+00  5.733662E-02  1.553873E-02  7.331947E-05 -1.834762E+00  0.000000E+00
  6.202881E-02  3.407775E-02  1.000000E-01  6.327624E-02  3.891163E-02 -5.664360E-17  6.155131E-02  2.008499E-02  1.434020E-04 -1.835323E+00  0.000000E+00
  4.929579E-02  2.953307E-02  1.000000E-01  5.028346E-02  3.427423E-02 -8.496540E-17  6.362364E-02  2.465247E-02  1.996585E-04 -1.788646E+00  0.000000E+00
  3.782553E-02  2.471253E-02  1.000000E-01  3.857921E-02  2.935535E-02  4.248270E-17  6.381589E-02  2.899214E-02  2.389227E-04 -1.745409E+00  0.000000E+00
  2.757469E-02  1.966699E-02  1.000000E-01  2.811924E-02  2.420688E-02 -2.832180E-17  6.378824E-02  3.381701E-02  2.654964E-04 -1.747172E+00  0.000000E+00
  1.848362E-02  1.447412E-02  1.000000E-01  1.884271E-02  1.890808E-02  5.664360E-17  6.564872E-02  4.182140E-02  2.957291E-04 -1.740199E+00  0.000000E+00
  1.064273E-02  8.990476E-03  1.000000E-01  1.084187E-02  1.331257E-02  1.416090E-17  6.670129E-02  5.455001E-02  3.380034E-04 -1.598981E+00  0.000000E+00
  4.262692E-03  3.033373E-03  1.000000E-01  4.331671E-03  7.233935E-03  1.416090E-17  5.068211E-02  5.905795E-02  3.102956E-04 -1.395777E+00  0.000000E+00
  1.215943E-04 -3.725437E-03  1.000000E-01  1.060929E-04  3.372426E-04 -8.496540E-17 -3.550460E-03 -2.148908E-02 -3.382988E-04 -1.645304E+00  0.000000E+00
    1    2
    2    3
    3    4
    4    5
    5    6
    6    7
    7    8
    8    9
    9   10
   10   11
   11   12
   12   13
   13   14
   14   15
   15   16
   16   17
   18   19
   19   20
   20   21
   21   22
   22   23
   23   24
   24   25
   25   26
   26   27
   27   28
   28   29
   29   30
   30   31
   31   32
   32   33
   33   34
   35   36
   36   37
   37   38
   38   39
   39   40
   40   41
   41   42
   42   43
   43   44
   44   45
   45   46
   46   47
   47   48
   48   49
   49   50
   50   51
   52   53
   53   54
   54   55
   55   56
   56   57
   57   58
   58   59
   59   60
   60   61
   61   62
   62   63
   63   64
   64   65
   65   66
   66   67
   67   68
   69   70
   70   71
   71   72
   72   73
   73   74
   74   75
   75   76
   76   77
   77   78
   78   79
   79   80
   80   81
   81   82
   82   83
   83   84
   84   85
   85   86
   87   88
   88   89
   89   90
   90   91
   92   93
   93   94
   94   95
   95   96
   97   98
   98   99
   99  100
  100  101
  101  102
  102  103
  103  104
  104  105
  105  106
  106  107
  107  108
  108  109
  109  110
  110  111
  111  112
  112  113
  113  114
Zone T= "Slice_0002 None Relative Regular z = 0.36666667"
 Nodes =          114  Elements=          106  ZONETYPE=FELINESEG
 DATAPACKING=POINT
  7.301402E-01  3.095880E-02  3.666667E-01  7.450280E-01  3.773962E-02 -5.664441E-17  1.862198E-02 -1.753764E-03  1.742107E-05 -2.673117E-01  0.000000E+00
  7.043967E-01  3.331775E-02  3.666667E-01  7.187589E-01  4.014673E-02 -1.132888E-16  1.907313E-02 -1.688875E-03  1.764483E-04 -2.893251E-01  0.000000E+00
  6.775455E-01  3.563340E-02  3.666667E-01  6.913596E-01  4.250965E-02  3.058798E-14  1.936210E-02 -1.620823E-03  3.185474E-04 -3.108868E-01  0.000000E+00
  6.496792E-01  3.791170E-02  3.666667E-01  6.629244E-01  4.483446E-02 -1.699332E-16  1.952748E-02 -1.560425E-03  4.273554E-04 -3.333145E-01  0.000000E+00
  6.209097E-01  4.016781E-02  3.666667E-01  6.335676E-01  4.713663E-02  0.000000E+00  1.963877E-02 -1.510717E-03  4.912564E-04 -3.574982E-01  0.000000E+00
  5.913667E-01  4.240051E-02  3.666667E-01  6.034214E-01  4.941492E-02  1.132888E-16  1.977962E-02 -1.473131E-03  5.060821E-04 -3.844014E-01  0.000000E+00
  5.611982E-01  4.461334E-02  3.666667E-01  5.726371E-01  5.167291E-02  2.265776E-16  2.004059E-02 -1.450439E-03  4.736167E-04 -4.156356E-01  0.000000E+00
  5.305654E-01  4.679579E-02  3.666667E-01  5.413788E-01  5.389992E-02  1.132888E-16  2.051898E-02 -1.440521E-03  3.989857E-04 -4.532613E-01  0.000000E+00
  4.996398E-01  4.892676E-02  3.666667E-01  5.098219E-01  5.607440E-02 -1.699332E-16  2.130570E-02 -1.430185E-03  2.884884E-04 -4.990627E-01  0.000000E+00
  4.685986E-01  5.094605E-02  3.666667E-01  4.781470E-01  5.813491E-02  1.132888E-16  2.245245E-02 -1.389332E-03  1.486014E-04 -5.529771E-01  0.000000E+00
  4.376215E-01  5.275609E-02  3.666667E-01  4.465376E-01  5.998190E-02 -5.664441E-17  2.392160E-02 -1.280786E-03 -1.360560E-05 -6.126552E-01  0.000000E+00
  4.068895E-01  5.424580E-02  3.666667E-01  4.151782E-01  6.150202E-02 -5.664441E-17  2.556301E-02 -1.070104E-03 -1.886924E-04 -6.727434E-01  0.000000E+00
  3.765814E-01  5.531200E-02  3.666667E-01  3.842513E-01  6.258999E-02  5.664441E-17  2.713492E-02 -7.492999E-04 -3.633224E-04 -7.272903E-01  0.000000E+00
  3.468696E-01  5.590417E-02  3.666667E-01  3.539330E-01  6.319425E-02 -5.664441E-17  2.839349E-02 -3.619641E-04 -5.207993E-04 -7.751922E-01  0.000000E+00
  3.179133E-01  5.605578E-02  3.666667E-01  3.243855E-01  6.334895E-02  0.000000E+00  2.924042E-02  2.123653E-05 -6.451669E-04 -8.220935E-01  0.000000E+00
  2.898519E-01  5.585480E-02  3.666667E-01  2.957512E-01  6.314387E-02  5.664441E-17  2.982155E-02  3.744057E-04 -7.270813E-04 -8.757195E-01  0.000000E+00
  2.628044E-01  5.535637E-02  3.666667E-01  2.681516E-01  6.263527E-02  5.664441E-17  3.044700E-02  7.300274E-04 -7.652072E-04 -9.419407E-01  0.000000E+00
  9.800000E-01 -1.363405E-03  3.666667E-01  9.999887E-01  4.757558E-03  5.664441E-17  1.023549E-02 -1.287285E-02 -1.124835E-03 -7.254723E-02  0.000000E+00
  9.720124E-01 -8.131231E-05  3.666667E-01  9.918380E-01  6.065825E-03  0.000000E+00  1.172214E-02 -1.952099E-03 -9.219541E-04  7.486891E-02  0.000000E+00
  9.632634E-01  1.342322E-03  3.666667E-01  9.829104E-01  7.518523E-03  1.132888E-16  9.540924E-03 -1.485789E-03 -8.038394E-04  3.576223E-02  0.000000E+00
  9.536907E-01  2.891116E-03  3.666667E-01  9.731423E-01  9.098936E-03 -5.664441E-17  8.010694E-03 -1.275410E-03 -7.240767E-04  1.993894E-02  0.000000E+00
  9.432303E-01  4.544841E-03  3.666667E-01  9.624683E-01  1.078642E-02 -1.699332E-16  7.520770E-03 -1.166548E-03 -6.923206E-04  6.187624E-03  0.000000E+00
  9.318220E-01  6.303581E-03  3.666667E-01  9.508271E-01  1.258106E-02 -5.664441E-17  7.922852E-03 -1.194959E-03 -6.935931E-04 -1.210770E-02  0.000000E+00
  9.194070E-01  8.168056E-03  3.666667E-01  9.381587E-01  1.448360E-02  0.000000E+00  8.866519E-03 -1.301725E-03 -7.079268E-04 -3.181322E-02  0.000000E+00
  9.059278E-01  1.013513E-02  3.666667E-01  9.244043E-01  1.649083E-02 -1.132888E-16  1.001457E-02 -1.427573E-03 -7.202879E-04 -5.221302E-02  0.000000E+00
  8.913299E-01  1.219916E-02  3.666667E-01  9.095084E-01  1.859700E-02  0.000000E+00  1.117154E-02 -1.543052E-03 -7.212406E-04 -7.381495E-02  0.000000E+00
  8.755643E-01  1.435714E-02  3.666667E-01  8.934210E-01  2.079904E-02 -1.132888E-16  1.227472E-02 -1.640566E-03 -7.051368E-04 -9.679108E-02  0.000000E+00
  8.585885E-01  1.660305E-02  3.666667E-01  8.760985E-01  2.309080E-02  3.098449E-14  1.333174E-02 -1.718640E-03 -6.686764E-04 -1.207884E-01  0.000000E+00
  8.403666E-01  1.892217E-02  3.666667E-01  8.575047E-01  2.545727E-02  3.098449E-14  1.436399E-02 -1.777080E-03 -6.099316E-04 -1.453330E-01  0.000000E+00
  8.208730E-01  2.129595E-02  3.666667E-01  8.376131E-01  2.787951E-02 -5.664441E-17  1.537425E-02 -1.816753E-03 -5.276240E-04 -1.701994E-01  0.000000E+00
  8.000947E-01  2.370692E-02  3.666667E-01  8.164107E-01  3.033969E-02 -5.664441E-17  1.634134E-02 -1.836522E-03 -4.211400E-04 -1.952125E-01  0.000000E+00
  7.780326E-01  2.613532E-02  3.666667E-01  7.938981E-01  3.281767E-02 -1.132888E-16  1.722981E-02 -1.833254E-03 -2.915019E-04 -2.200614E-01  0.000000E+00
  7.547032E-01  2.856006E-02  3.666667E-01  7.700925E-01  3.529191E-02  3.075791E-14  1.800123E-02 -1.804749E-03 -1.426679E-04 -2.442344E-01  0.000000E+00
  7.301402E-01  3.095880E-02  3.666667E-01  7.450280E-01  3.773962E-02 -5.664441E-17  1.862198E-02 -1.753764E-03  1.742107E-05 -2.673117E-01  0.000000E+00
  2.444131E-01 -4.497114E-02  3.666667E-01  2.493848E-01 -3.974043E-02  3.092785E-14  3.676416E-02 -5.965779E-04  3.808272E-04  9.635961E-02  0.000000E+00
  2.700250E-01 -4.524058E-02  3.666667E-01  2.755196E-01 -4.001537E-02  5.664441E-17  3.706071E-02 -2.071744E-04  3.992146E-04  7.307873E-02  0.000000E+00
  2.967058E-01 -4.524730E-02  3.666667E-01  3.027451E-01 -4.002223E-02 -5.664441E-17  3.738560E-02  2.418670E-04  3.965612E-04  4.731197E-02  0.000000E+00
  3.243554E-01 -4.486922E-02  3.666667E-01  3.309591E-01 -3.963643E-02  3.070127E-14  3.739928E-02  8.285563E-04  3.675746E-04  2.032130E-02  0.000000E+00
  3.528511E-01 -4.397758E-02  3.666667E-01  3.600366E-01 -3.872659E-02 -5.664441E-17  3.670627E-02  1.535009E-03  3.098532E-04 -9.966355E-04  0.000000E+00
  3.820469E-01 -4.242328E-02  3.666667E-01  3.898284E-01 -3.714056E-02 -1.132888E-16  3.499955E-02  2.308160E-03  2.265844E-04 -1.074687E-02  0.000000E+00
  4.117740E-01 -4.004596E-02  3.666667E-01  4.201624E-01 -3.471470E-02  1.132888E-16  3.234557E-02  3.047187E-03  1.269169E-04 -3.564365E-03  0.000000E+00
  4.418498E-01 -3.673462E-02  3.666667E-01  4.508521E-01 -3.133575E-02 -1.699332E-16  2.929098E-02  3.581634E-03  2.233932E-05  2.354232E-02  0.000000E+00
  4.721105E-01 -3.261321E-02  3.666667E-01  4.817307E-01 -2.713021E-02 -1.132888E-16  2.676449E-02  3.621900E-03 -7.743412E-05  7.949616E-02  0.000000E+00
  5.024968E-01 -2.852867E-02  3.666667E-01  5.127373E-01 -2.296228E-02  5.664441E-17  2.522119E-02  3.254656E-03 -1.652331E-04  1.417900E-01  0.000000E+00
  5.328693E-01 -2.480448E-02  3.666667E-01  5.437298E-01 -1.916207E-02 -2.265776E-16  2.431744E-02  2.901699E-03 -2.359956E-04  1.729225E-01  0.000000E+00
  5.630297E-01 -2.132838E-02  3.666667E-01  5.745060E-01 -1.561500E-02  1.132888E-16  2.364005E-02  2.691798E-03 -2.855749E-04  1.817301E-01  0.000000E+00
  5.927917E-01 -1.799956E-02  3.666667E-01  6.048755E-01 -1.221823E-02  0.000000E+00  2.292403E-02  2.573569E-03 -3.082223E-04  1.897344E-01  0.000000E+00
  6.219828E-01 -1.473454E-02  3.666667E-01  6.346626E-01 -8.886543E-03  5.664441E-17  2.204877E-02  2.478363E-03 -2.984897E-04  2.036458E-01  0.000000E+00
  6.504533E-01 -1.154650E-02  3.666667E-01  6.637143E-01 -5.633428E-03 -1.132888E-16  2.105800E-02  2.337583E-03 -2.553426E-04  2.231789E-01  0.000000E+00
  6.780742E-01 -8.537710E-03  3.666667E-01  6.918991E-01 -2.563210E-03  3.092785E-14  2.007504E-02  2.131221E-03 -1.832885E-04  2.448846E-01  0.000000E+00
  7.047326E-01 -5.811107E-03  3.666667E-01  7.191017E-01  2.190570E-04 -5.664441E-17  1.922385E-02  1.879836E-03 -9.157431E-05  2.649223E-01  0.000000E+00
  1.215943E-04 -6.380269E-03  3.666667E-01  1.060944E-04 -3.617248E-04 -2.265776E-16 -1.754853E-01  3.780686E-01  2.358996E-03 -2.897047E-01  0.000000E+00
  4.902502E-03 -1.277071E-02  3.666667E-01  4.984604E-03 -6.882631E-03  5.664441E-17 -8.545913E-02  9.477558E-02  6.004559E-04  1.092890E+00  0.000000E+00
  1.254908E-02 -1.753065E-02  3.666667E-01  1.278729E-02 -1.173974E-02  2.265776E-16 -3.049704E-02  1.825374E-02  1.092697E-04  1.015326E+00  0.000000E+00
  2.163699E-02 -2.122110E-02  3.666667E-01  2.206073E-02 -1.550553E-02  5.664441E-17  6.006200E-03 -1.620967E-03 -1.216522E-05  7.809357E-01  0.000000E+00
  3.184423E-02 -2.433030E-02  3.666667E-01  3.247634E-02 -1.867820E-02  0.000000E+00  2.264791E-02 -6.008923E-03 -3.105499E-05  6.876713E-01  0.000000E+00
  4.311596E-02 -2.705248E-02  3.666667E-01  4.397819E-02 -2.145596E-02 -1.132888E-16  2.928555E-02 -6.286068E-03 -2.086967E-05  6.066588E-01  0.000000E+00
  5.546913E-02 -2.942282E-02  3.666667E-01  5.658355E-02 -2.387469E-02 -5.664441E-17  3.201927E-02 -5.699532E-03 -1.980209E-06  5.294605E-01  0.000000E+00
  6.891473E-02 -3.164478E-02  3.666667E-01  7.030364E-02 -2.614201E-02  1.699332E-16  3.349768E-02 -5.245015E-03  1.978206E-05  4.703306E-01  0.000000E+00
  8.348882E-02 -3.381520E-02  3.666667E-01  8.517526E-02 -2.835673E-02  2.832220E-16  3.459472E-02 -4.867562E-03  4.591701E-05  4.146384E-01  0.000000E+00
  9.923792E-02 -3.591604E-02  3.666667E-01  1.012459E-01 -3.050046E-02 -1.132888E-16  3.546793E-02 -4.399478E-03  7.838215E-05  3.563526E-01  0.000000E+00
  1.162051E-01 -3.787335E-02  3.666667E-01  1.185594E-01 -3.249774E-02  5.664441E-17  3.612673E-02 -3.844762E-03  1.171144E-04  3.018065E-01  0.000000E+00
  1.344203E-01 -3.965769E-02  3.666667E-01  1.371465E-01 -3.431851E-02  0.000000E+00  3.657340E-02 -3.268082E-03  1.608042E-04  2.553372E-01  0.000000E+00
  1.539027E-01 -4.123835E-02  3.666667E-01  1.570267E-01 -3.593144E-02  3.064463E-14  3.678590E-02 -2.669034E-03  2.081047E-04  2.142233E-01  0.000000E+00
  1.746592E-01 -4.257022E-02  3.666667E-01  1.782069E-01 -3.729050E-02  3.109778E-14  3.679968E-02 -2.075764E-03  2.569866E-04  1.781421E-01  0.000000E+00
  1.966815E-01 -4.364136E-02  3.666667E-01  2.006787E-01 -3.838350E-02 -1.132888E-16  3.671917E-02 -1.528536E-03  3.046072E-04  1.477003E-01  0.000000E+00
  2.199461E-01 -4.444370E-02  3.666667E-01  2.244183E-01 -3.920222E-02 -1.699332E-16  3.666590E-02 -1.032158E-03  3.474244E-04  1.208690E-01  0.000000E+00
  2.444131E-01 -4.497114E-02  3.666667E-01  2.493848E-01 -3.974043E-02  3.092785E-14  3.676416E-02 -5.965779E-04  3.808272E-04  9.635961E-02  0.000000E+00
  7.047326E-01 -5.811107E-03  3.666667E-01  7.191017E-01  2.190570E-04 -5.664441E-17  1.922385E-02  1.879836E-03 -9.157431E-05  2.649223E-01  0.000000E+00