 Title= "ADflow Lift Distribution Data"
Variables = "eta" "CoordinateX" "CoordinateY" "CoordinateZ" "Lift" "Drag" "Moment" "Normalized Lift" "Normalized Drag" "Normalized Moment" "CL" "CD" "CM" "CLp" "CDp" "CMp" "CLv" "CDv" "CMv" "Elliptical" "thickness" "twist" "chord" "fx" "fy" "fz" 
Zone T= "LiftDist_01 allWalls: : z normal"
 I=          150
 DATAPACKING=BLOCK
  0.000000E+00
  6.711405E-03
  1.342281E-02
  2.013422E-02
  2.684563E-02
  3.355704E-02
  4.026845E-02
  4.697986E-02
  5.369127E-02
  6.040268E-02
  6.711409E-02
  7.382550E-02
  8.053691E-02
  8.724832E-02
  9.395973E-02
  1.006711E-01
  1.073825E-01
  1.140940E-01
  1.208054E-01
  1.275168E-01
  1.342282E-01
  1.409396E-01
  1.476510E-01
  1.543624E-01
  1.610738E-01
  1.677852E-01
  1.744966E-01
  1.812081E-01
  1.879195E-01
  1.946309E-01
  2.013423E-01
  2.080537E-01
  2.147651E-01
  2.214765E-01
  2.281879E-01
  2.348993E-01
  2.416107E-01
  2.483221E-01
  2.550336E-01
  2.617450E-01
  2.684564E-01
  2.751678E-01
  2.818792E-01
  2.885906E-01
  2.953020E-01
  3.020134E-01
  3.087248E-01
  3.154362E-01
  3.221476E-01
  3.288591E-01
  3.355705E-01
  3.422819E-01
  3.489933E-01
  3.557047E-01
  3.624161E-01
  3.691275E-01
  3.758389E-01
  3.825503E-01
  3.892617E-01
  3.959732E-01
  4.026846E-01
  4.093960E-01
  4.161074E-01
  4.228188E-01
  4.295302E-01
  4.362416E-01
  4.429530E-01
  4.496644E-01
  4.563758E-01
  4.630872E-01
  4.697987E-01
  4.765101E-01
  4.832215E-01
  4.899329E-01
  4.966443E-01
  5.033557E-01
  5.100671E-01
  5.167785E-01
  5.234899E-01
  5.302013E-01
  5.369128E-01
  5.436242E-01
  5.503356E-01
  5.570470E-01
  5.637584E-01
  5.704698E-01
  5.771812E-01
  5.838926E-01
  5.906040E-01
  5.973154E-01
  6.040268E-01
  6.107383E-01
  6.174497E-01
  6.241611E-01
  6.308725E-01
  6.375839E-01
  6.442953E-01
  6.510067E-01
  6.577181E-01
  6.644295E-01
  6.711409E-01
  6.778524E-01
  6.845638E-01
  6.912752E-01
  6.979866E-01
  7.046980E-01
  7.114094E-01
  7.181208E-01
  7.248322E-01
  7.315436E-01
  7.382550E-01
  7.449664E-01
  7.516779E-01
  7.583893E-01
  7.651007E-01
  7.718121E-01
  7.785235E-01
  7.852349E-01
  7.919463E-01
  7.986577E-01
  8.053691E-01
  8.120805E-01
  8.187919E-01
  8.255034E-01
  8.322148E-01
  8.389262E-01
  8.456376E-01
  8.523490E-01
  8.590604E-01
  8.657718E-01
  8.724832E-01
  8.791946E-01
  8.859060E-01
  8.926175E-01
  8.993289E-01
  9.060403E-01
  9.127517E-01
  9.194631E-01
  9.261745E-01
  9.328859E-01
  9.395973E-01
  9.463087E-01
  9.530201E-01
  9.597315E-01
  9.664430E-01
  9.731544E-01
  9.798658E-01
  9.865772E-01
  9.932886E-01
  1.000000E+00
  0.000000E+00
  0.000000E+00
  0.000000E+00
  0.000000E+00
  0.000000E+00
  0.000000E+00
  0.000000E+00
  0.000000E+00
  0.000000E+00
  0.000000E+00
  0.000000E+00
  0.000000E+00
  0.000000E+00
  0.000000E+00
  0.000000E+00
  0.000000E+00
  0.000000E+00
  0.000000E+00
  0.000000E+00
  0.000000E+00
  0.000000E+00
  0.000000E+00
  0.000000E+00
  0.000000E+00
  0.000000E+00
  0.000000E+00
  0.000000E+00
  0.000000E+00
  0.000000E+00
  0.000000E+00
  0.000000E+00
  0.000000E+00
  0.000000E+00
  0.000000E+00
  0.000000E+00
  0.000000E+00
  0.000000E+00
  0.000000E+00
  0.000000E+00
  0.000000E+00
  0.000000E+00
  0.000000E+00
  0.000000E+00
  0.000000E+00
  0.000000E+00
  0.000000E+00
  0.000000E+00
  0.000000E+00
  0.000000E+00
  0.000000E+00
  0.000000E+00
  0.000000E+00
  0.000000E+00
  0.000000E+00
  0.000000E+00
  0.000000E+00
  0.000000E+00
  0.000000E+00
  0.000000E+00
  0.000000E+00
  0.000000E+00
  0.000000E+00
  0.000000E+00
  0.000000E+00
  0.000000E+00
  0.000000E+00
  0.000000E+00
  0.000000E+00
  0.000000E+00
  0.000000E+00
  0.000000E+00
  0.000000E+00
  0.000000E+00
  0.000000E+00
  0.000000E+00
  0.000000E+00
  0.000000E+00
  0.000000E+00
  0.000000E+00
  0.000000E+00
  0.000000E+00
  0.000000E+00
  0.000000E+00
  0.000000E+00
  0.000000E+00
  0.000000E+00
  0.000000E+00
  0.000000E+00
  0.000000E+00
  0.000000E+00
  0.000000E+00
  0.000000E+00
  0.000000E+00
  0.000000E+00
  0.000000E+00
  0.000000E+00
  0.000000E+00
  0.000000E+00
  0.000000E+00
  0.000000E+00
  0.000000E+00
  0.000000E+00
  0.000000E+00
  0.000000E+00
  0.000000E+00
  0.000000E+00
  0.000000E+00
  0.000000E+00
  0.000000E+00
  0.000000E+00
  0.000000E+00
  0.000000E+00
  0.000000E+00
  0.000000E+00
  0.000000E+00
  0.000000E+00
  0.000000E+00
  0.000000E+00
  0.000000E+00
  0.000000E+00
  0.000000E+00
  0.000000E+00
  0.000000E+00
  0.000000E+00
  0.000000E+00
  0.000000E+00
  0.000000E+00
  0.000000E+00
  0.000000E+00
  0.000000E+00
  0.000000E+00
  0.000000E+00
  0.000000E+00
  0.000000E+00
  0.000000E+00
  0.000000E+00
  0.000000E+00
  0.000000E+00
  0.000000E+00
  0.000000E+00
  0.000000E+00
  0.000000E+00
  0.000000E+00
  0.000000E+00
  0.000000E+00
  0.000000E+00
  0.000000E+00
  0.000000E+00
  0.000000E+00
  0.000000E+00
  0.000000E+00
  0.000000E+00
  0.000000E+00
  0.000000E+00
  0.000000E+00
  0.000000E+00
  0.000000E+00
  0.000000E+00
  0.000000E+00
  0.000000E+00
  0.000000E+00
  0.000000E+00
  0.000000E+00
  0.000000E+00
  0.000000E+00
  0.000000E+00
  0.000000E+00
  0.000000E+00
  0.000000E+00
  0.000000E+00
  0.000000E+00
  0.000000E+00
  0.000000E+00
  0.000000E+00
  0.000000E+00
  0.000000E+00
  0.000000E+00
  0.000000E+00
  0.000000E+00
  0.000000E+00
  0.000000E+00
  0.000000E+00
  0.000000E+00
  0.000000E+00
  0.000000E+00
  0.000000E+00
  0.000000E+00
  0.000000E+00
  0.000000E+00
  0.000000E+00
  0.000000E+00
  0.000000E+00
  0.000000E+00
  0.000000E+00
  0.000000E+00
  0.000000E+00
  0.000000E+00
  0.000000E+00
  0.000000E+00
  0.000000E+00
  0.000000E+00
  0.000000E+00
  0.000000E+00
  0.000000E+00
  0.000000E+00
  0.000000E+00
  0.000000E+00
  0.000000E+00
  0.000000E+00
  0.000000E+00
  0.000000E+00
  0.000000E+00
  0.000000E+00
  0.000000E+00
  0.000000E+00
  0.000000E+00
  0.000000E+00
  0.000000E+00
  0.000000E+00
  0.000000E+00
  0.000000E+00
  0.000000E+00
  0.000000E+00
  0.000000E+00
  0.000000E+00
  0.000000E+00
  0.000000E+00
  0.000000E+00
  0.000000E+00
  0.000000E+00
  0.000000E+00
  0.000000E+00
  0.000000E+00
  0.000000E+00
  0.000000E+00
  0.000000E+00
  0.000000E+00
  0.000000E+00
  0.000000E+00
  0.000000E+00
  0.000000E+00
  0.000000E+00
  0.000000E+00
  0.000000E+00
  0.000000E+00
  0.000000E+00
  0.000000E+00
  0.000000E+00
  0.000000E+00
  0.000000E+00
  0.000000E+00
  0.000000E+00
  0.000000E+00
  0.000000E+00
  0.000000E+00
  0.000000E+00
  0.000000E+00
  0.000000E+00
  0.000000E+00
  0.000000E+00
  0.000000E+00
  0.000000E+00
  0.000000E+00
  0.000000E+00
  0.000000E+00
  0.000000E+00
  0.000000E+00
  0.000000E+00
  0.000000E+00
  0.000000E+00
  0.000000E+00
  0.000000E+00
  0.000000E+00
  0.000000E+00
  0.000000E+00
  0.000000E+00
  0.000000E+00
  0.000000E+00
  0.000000E+00
  0.000000E+00
  0.000000E+00
  0.000000E+00
  0.000000E+00
  0.000000E+00
  0.000000E+00
  0.000000E+00
  0.000000E+00
  0.000000E+00
  0.000000E+00
  0.000000E+00
  0.000000E+00
  0.000000E+00
  0.000000E+00
  0.000000E+00
  0.000000E+00
  0.000000E+00
  0.000000E+00
  0.000000E+00
  0.000000E+00
  0.000000E+00
  1.000000E-08
  1.695085E-02
  3.390169E-02
  5.085254E-02
  6.780338E-02
  8.475423E-02
  1.017051E-01
  1.186559E-01
  1.356068E-01
  1.525576E-01
  1.695085E-01
  1.864593E-01
  2.034101E-01
  2.203610E-01
  2.373118E-01
  2.542627E-01
  2.712135E-01
  2.881644E-01
  3.051152E-01
  3.220661E-01
  3.390169E-01
  3.559678E-01
  3.729186E-01
  3.898694E-01
  4.068203E-01
  4.237711E-01
  4.407220E-01
  4.576728E-01
  4.746237E-01
  4.915745E-01
  5.085254E-01
  5.254762E-01
  5.424271E-01
  5.593779E-01
  5.763287E-01
  5.932796E-01
  6.102304E-01
  6.271813E-01
  6.441321E-01
  6.610830E-01
  6.780338E-01
  6.949847E-01
  7.119355E-01
  7.288864E-01
  7.458372E-01
  7.627880E-01
  7.797389E-01
  7.966897E-01
  8.136406E-01
  8.305914E-01
  8.475423E-01
  8.644931E-01
  8.814440E-01
  8.983948E-01
  9.153457E-01
  9.322965E-01
  9.492473E-01
  9.661982E-01
  9.831490E-01
  1.000100E+00
  1.017051E+00
  1.034002E+00
  1.050952E+00
  1.067903E+00
  1.084854E+00
  1.101805E+00
  1.118756E+00
  1.135707E+00
  1.152657E+00
  1.169608E+00
  1.186559E+00
  1.203510E+00
  1.220461E+00
  1.237412E+00
  1.254363E+00
  1.271313E+00
  1.288264E+00
  1.305215E+00
  1.322166E+00
  1.339117E+00
  1.356068E+00
  1.373018E+00
  1.389969E+00
  1.406920E+00
  1.423871E+00
  1.440822E+00
  1.457773E+00
  1.474724E+00
  1.491674E+00
  1.508625E+00
  1.525576E+00
  1.542527E+00
  1.559478E+00
  1.576429E+00
  1.593379E+00
  1.610330E+00
  1.627281E+00
  1.644232E+00
  1.661183E+00
  1.678134E+00
  1.695085E+00
  1.712035E+00
  1.728986E+00
  1.745937E+00
  1.762888E+00
  1.779839E+00
  1.796790E+00
  1.813740E+00
  1.830691E+00
  1.847642E+00
  1.864593E+00
  1.881544E+00
  1.898495E+00
  1.915446E+00
  1.932396E+00
  1.949347E+00
  1.966298E+00
  1.983249E+00
  2.000200E+00
  2.017151E+00
  2.034101E+00
  2.051052E+00
  2.068003E+00
  2.084954E+00
  2.101905E+00
  2.118856E+00
  2.135807E+00
  2.152757E+00
  2.169708E+00
  2.186659E+00
  2.203610E+00
  2.220561E+00
  2.237512E+00
  2.254462E+00
  2.271413E+00
  2.288364E+00
  2.305315E+00
  2.322266E+00
  2.339217E+00
  2.356168E+00
  2.373118E+00
  2.390069E+00
  2.407020E+00
  2.423971E+00
  2.440922E+00
  2.457873E+00
  2.474823E+00
  2.491774E+00
  2.508725E+00
  2.525676E+00
  1.106302E+04
  1.106116E+04
  1.105931E+04
  1.105745E+04
  1.105559E+04
  1.105373E+04
  1.105188E+04
  1.105002E+04
  1.104816E+04
  1.104266E+04
  1.103708E+04
  1.103149E+04
  1.102590E+04
  1.102031E+04
  1.101472E+04
  1.100914E+04
  1.100236E+04
  1.099342E+04
  1.098447E+04
  1.097552E+04
  1.096658E+04
  1.095763E+04
  1.094868E+04
  1.093938E+04
  1.092722E+04
  1.091505E+04
  1.090289E+04
  1.089073E+04
  1.087857E+04
  1.086641E+04
  1.085346E+04
  1.083791E+04
  1.082236E+04
  1.080682E+04
  1.079127E+04
  1.077572E+04
  1.076017E+04
  1.074224E+04
  1.072327E+04
  1.070430E+04
  1.068533E+04
  1.066637E+04
  1.064740E+04
  1.062682E+04
  1.060453E+04
  1.058225E+04
  1.055997E+04
  1.053769E+04
  1.051542E+04
  1.049120E+04
  1.046563E+04
  1.044007E+04
  1.041450E+04
  1.038894E+04
  1.036337E+04
  1.033456E+04
  1.030569E+04
  1.027683E+04
  1.024796E+04
  1.021911E+04
  1.018812E+04
  1.015605E+04
  1.012398E+04
  1.009191E+04
  1.005985E+04
  1.002583E+04
  9.990521E+03
  9.955219E+03
  9.919919E+03
  9.884623E+03
  9.846538E+03
  9.807756E+03
  9.768977E+03
  9.730200E+03
  9.690562E+03
  9.648118E+03
  9.605675E+03
  9.563235E+03
  9.520796E+03
  9.474991E+03
  9.428810E+03
  9.382630E+03
  9.336452E+03
  9.287326E+03
  9.237371E+03
  9.187417E+03
  9.137465E+03
  9.084506E+03
  9.031087E+03
  8.977672E+03
  8.923823E+03
  8.867494E+03
  8.811172E+03
  8.754855E+03
  8.696895E+03
  8.637926E+03
  8.578969E+03
  8.519337E+03
  8.457796E+03
  8.396280E+03
  8.334609E+03
  8.270787E+03
  8.207003E+03
  8.143133E+03
  8.076857E+03
  8.010625E+03
  7.943867E+03
  7.874388E+03
  7.804954E+03
  7.733816E+03
  7.660479E+03
  7.587182E+03
  7.510287E+03
  7.432745E+03
  7.353575E+03
  7.271677E+03
  7.189661E+03
  7.103439E+03
  7.017237E+03
  6.927603E+03
  6.837160E+03
  6.743820E+03
  6.649199E+03
  6.551751E+03
  6.453001E+03
  6.351175E+03
  6.248466E+03
  6.142224E+03
  6.035051E+03
  5.925348E+03
  5.813815E+03
  5.700943E+03
  5.585376E+03
  5.468206E+03
  5.349339E+03
  5.228034E+03
  5.104109E+03
  4.977898E+03
  4.849593E+03
  4.720498E+03
  4.594945E+03
  4.483320E+03
  4.403392E+03
  4.390489E+03
  4.481770E+03
  4.445720E+03
  4.005172E+03
  4.499776E+03
  1.347067E+03
 -1.138144E-04
  6.307173E+02
  6.306569E+02
  6.305965E+02
  6.305361E+02
  6.304757E+02
  6.304153E+02
  6.303549E+02
  6.302945E+02
  6.302341E+02
  6.300943E+02
  6.299525E+02
  6.298107E+02
  6.296689E+02
  6.295271E+02
  6.293853E+02
  6.292435E+02
  6.290992E+02
  6.289503E+02
  6.288013E+02
  6.286524E+02
  6.285034E+02
  6.283545E+02
  6.282055E+02
  6.280539E+02
  6.278810E+02
  6.277080E+02
  6.275351E+02
  6.273621E+02
  6.271891E+02
  6.270161E+02
  6.268227E+02
  6.265617E+02
  6.263006E+02
  6.260395E+02
  6.257783E+02
  6.255172E+02
  6.252560E+02
  6.249206E+02
  6.245528E+02
  6.241850E+02
  6.238171E+02
  6.234491E+02
  6.230811E+02
  6.226438E+02
  6.221336E+02
  6.216233E+02
  6.211128E+02
  6.206023E+02
  6.200917E+02
  6.194340E+02
  6.186733E+02
  6.179125E+02
  6.171516E+02
  6.163905E+02
  6.156294E+02
  6.145189E+02
  6.134028E+02
  6.122867E+02
  6.111704E+02
  6.100541E+02
  6.087105E+02
  6.072504E+02
  6.057902E+02
  6.043299E+02
  6.028696E+02
  6.012546E+02
  5.995382E+02
  5.978216E+02
  5.961049E+02
  5.943881E+02
  5.925716E+02
  5.907299E+02
  5.888879E+02
  5.870457E+02
  5.852176E+02
  5.834357E+02
  5.816535E+02
  5.798709E+02
  5.780880E+02
  5.763835E+02
  5.746875E+02
  5.729912E+02
  5.712947E+02
  5.694929E+02
  5.676612E+02
  5.658294E+02
  5.639972E+02
  5.618558E+02
  5.596668E+02
  5.574776E+02
  5.552137E+02
  5.525256E+02
  5.498380E+02
  5.471510E+02
  5.439983E+02
  5.405596E+02
  5.371235E+02
  5.334511E+02
  5.291137E+02
  5.247830E+02
  5.204102E+02
  5.154522E+02
  5.105043E+02
  5.055549E+02
  5.003869E+02
  4.952300E+02
  4.900880E+02
  4.849762E+02
  4.798739E+02
  4.748854E+02
  4.700382E+02
  4.651977E+02
  4.607135E+02
  4.562985E+02
  4.520844E+02
  4.481995E+02
  4.443344E+02
  4.410341E+02
  4.377320E+02
  4.349292E+02
  4.322430E+02
  4.299668E+02
  4.278705E+02
  4.261318E+02
  4.245576E+02
  4.233625E+02
  4.222779E+02
  4.216743E+02
  4.212235E+02
  4.211907E+02
  4.215399E+02
  4.221837E+02
  4.235345E+02
  4.254037E+02
  4.278462E+02
  4.311793E+02
  4.355992E+02
  4.411777E+02
  4.483170E+02
  4.577542E+02
  4.709672E+02
  4.908022E+02
  5.219176E+02
  5.725134E+02
  6.505988E+02
  7.194195E+02
  7.323194E+02
  8.841580E+02
  2.139944E+02
  3.893675E-04
  1.804773E+03
  1.804242E+03
  1.803712E+03
  1.803181E+03
  1.802650E+03
  1.802120E+03
  1.801589E+03
  1.801058E+03
  1.800528E+03
  1.799145E+03
  1.797742E+03
  1.796338E+03
  1.794934E+03
  1.793531E+03
  1.792127E+03
  1.790723E+03
  1.789113E+03
  1.787125E+03
  1.785136E+03
  1.783148E+03
  1.781159E+03
  1.779171E+03
  1.777182E+03
  1.775124E+03
  1.772505E+03
  1.769887E+03
  1.767268E+03
  1.764649E+03
  1.762031E+03
  1.759412E+03
  1.756629E+03
  1.753300E+03
  1.749971E+03
  1.746641E+03
  1.743312E+03
  1.739983E+03
  1.736654E+03
  1.732845E+03
  1.728825E+03
  1.724806E+03
  1.720786E+03
  1.716767E+03
  1.712748E+03
  1.708437E+03
  1.703820E+03
  1.699202E+03
  1.694585E+03
  1.689969E+03
  1.685352E+03
  1.680465E+03
  1.675389E+03
  1.670313E+03
  1.665237E+03
  1.660162E+03
  1.655087E+03
  1.649729E+03
  1.644367E+03
  1.639006E+03
  1.633646E+03
  1.628286E+03
  1.622803E+03
  1.617257E+03
  1.611713E+03
  1.606169E+03
  1.600626E+03
  1.594917E+03
  1.589099E+03
  1.583282E+03
  1.577467E+03
  1.571652E+03
  1.565526E+03
  1.559323E+03
  1.553120E+03
  1.546918E+03
  1.540652E+03
  1.534177E+03
  1.527702E+03
  1.521227E+03
  1.514753E+03
  1.508105E+03
  1.501437E+03
  1.494769E+03
  1.488102E+03
  1.481162E+03
  1.474145E+03
  1.467128E+03
  1.460112E+03
  1.452875E+03
  1.445605E+03
  1.438336E+03
  1.431082E+03
  1.423916E+03
  1.416751E+03
  1.409589E+03
  1.402455E+03
  1.395342E+03
  1.388234E+03
  1.381031E+03
  1.373557E+03
  1.366094E+03
  1.358605E+03
  1.350687E+03
  1.342786E+03
  1.334876E+03
  1.326459E+03
  1.318063E+03
  1.309510E+03
  1.300123E+03
  1.290758E+03
  1.280754E+03
  1.269925E+03
  1.259115E+03
  1.246881E+03
  1.234392E+03
  1.221255E+03
  1.207028E+03
  1.192754E+03
  1.176817E+03
  1.160886E+03
  1.143705E+03
  1.126227E+03
  1.107889E+03
  1.089170E+03
  1.069835E+03
  1.050217E+03
  1.030183E+03
  1.010031E+03
  9.897526E+02
  9.695462E+02
  9.495725E+02
  9.300449E+02
  9.108689E+02
  8.927558E+02
  8.754621E+02
  8.590629E+02
  8.440401E+02
  8.306020E+02
  8.188082E+02
  8.093124E+02
  8.035418E+02
  8.047931E+02
  8.201754E+02
  8.616185E+02
  9.475938E+02
  1.092378E+03
  1.203051E+03
  1.135028E+03
  1.285504E+03
  2.076194E+02
 -8.314384E-11
  1.244896E+00
  1.244687E+00
  1.244478E+00
  1.244269E+00
  1.244060E+00
  1.243852E+00
  1.243643E+00
  1.243434E+00
  1.243225E+00
  1.242606E+00
  1.241977E+00
  1.241348E+00
  1.240719E+00
  1.240091E+00
  1.239462E+00
  1.238833E+00
  1.238071E+00
  1.237064E+00
  1.236057E+00
  1.235050E+00
  1.234044E+00
  1.233037E+00
  1.232030E+00
  1.230983E+00
  1.229615E+00
  1.228246E+00
  1.226878E+00
  1.225509E+00
  1.224140E+00
  1.222772E+00
  1.221315E+00
  1.219566E+00
  1.217816E+00
  1.216066E+00
  1.214317E+00
  1.212567E+00
  1.210818E+00
  1.208800E+00
  1.206666E+00
  1.204531E+00
  1.202396E+00
  1.200262E+00
  1.198127E+00
  1.195812E+00
  1.193304E+00
  1.190797E+00
  1.188290E+00
  1.185783E+00
  1.183276E+00
  1.180551E+00
  1.177674E+00
  1.174797E+00
  1.171920E+00
  1.169043E+00
  1.166167E+00
  1.162924E+00
  1.159676E+00
  1.156428E+00
  1.153180E+00
  1.149933E+00
  1.146446E+00
  1.142837E+00
  1.139228E+00
  1.135620E+00
  1.132012E+00
  1.128183E+00
  1.124211E+00
  1.120238E+00
  1.116266E+00
  1.112294E+00
  1.108009E+00
  1.103644E+00
  1.099281E+00
  1.094917E+00
  1.090457E+00
  1.085681E+00
  1.080905E+00
  1.076129E+00
  1.071353E+00
  1.066199E+00
  1.061002E+00
  1.055806E+00
  1.050610E+00
  1.045082E+00
  1.039460E+00
  1.033839E+00
  1.028218E+00
  1.022259E+00
  1.016248E+00
  1.010237E+00
  1.004177E+00
  9.978389E-01
  9.915011E-01
  9.851639E-01
  9.786418E-01
  9.720061E-01
  9.653719E-01
  9.586616E-01
  9.517365E-01
  9.448142E-01
  9.378746E-01
  9.306928E-01
  9.235153E-01
  9.163282E-01
  9.088703E-01
  9.014174E-01
  8.939052E-01
  8.860870E-01
  8.782737E-01
  8.702687E-01
  8.620163E-01
  8.537683E-01
  8.451155E-01
  8.363898E-01
  8.274810E-01
  8.182653E-01
  8.090362E-01
  7.993339E-01
  7.896337E-01
  7.795474E-01
  7.693701E-01
  7.588667E-01
  7.482193E-01
  7.372536E-01
  7.261415E-01
  7.146833E-01
  7.031256E-01
  6.911705E-01
  6.791105E-01
  6.667659E-01
  6.542154E-01
  6.415141E-01
  6.285097E-01
  6.153248E-01
  6.019489E-01
  5.882988E-01
  5.743538E-01
  5.601516E-01
  5.457137E-01
  5.311869E-01
  5.170588E-01
  5.044978E-01
  4.955036E-01
  4.940518E-01
  5.043233E-01
  5.002667E-01
  4.506929E-01
  5.063495E-01
  1.515823E-01
 -1.280728E-08
  1.126129E+00
  1.126021E+00
  1.125913E+00
  1.125805E+00
  1.125697E+00
  1.125589E+00
  1.125481E+00
  1.125374E+00
  1.125266E+00
  1.125016E+00
  1.124763E+00
  1.124510E+00
  1.124257E+00
  1.124004E+00
  1.123750E+00
  1.123497E+00
  1.123240E+00
  1.122974E+00
  1.122708E+00
  1.122442E+00
  1.122176E+00
  1.121910E+00
  1.121644E+00
  1.121373E+00
  1.121064E+00
  1.120756E+00
  1.120447E+00
  1.120138E+00
  1.119829E+00
  1.119520E+00
  1.119175E+00
  1.118709E+00
  1.118243E+00
  1.117777E+00
  1.117310E+00
  1.116844E+00
  1.116378E+00
  1.115779E+00
  1.115122E+00
  1.114465E+00
  1.113808E+00
  1.113151E+00
  1.112494E+00
  1.111714E+00
  1.110803E+00
  1.109891E+00
  1.108980E+00
  1.108069E+00
  1.107157E+00
  1.105983E+00
  1.104624E+00
  1.103266E+00
  1.101907E+00
  1.100549E+00
  1.099190E+00
  1.097207E+00
  1.095214E+00
  1.093221E+00
  1.091228E+00
  1.089235E+00
  1.086836E+00
  1.084229E+00
  1.081622E+00
  1.079015E+00
  1.076407E+00
  1.073524E+00
  1.070459E+00
  1.067394E+00
  1.064329E+00
  1.061264E+00
  1.058021E+00
  1.054732E+00
  1.051443E+00
  1.048154E+00
  1.044890E+00
  1.041709E+00
  1.038526E+00
  1.035344E+00
  1.032160E+00
  1.029117E+00
  1.026089E+00
  1.023060E+00
  1.020031E+00
  1.016814E+00
  1.013544E+00
  1.010273E+00
  1.007002E+00
  1.003178E+00
  9.992699E-01
  9.953612E-01
  9.913189E-01
  9.865194E-01
  9.817209E-01
  9.769233E-01
  9.712943E-01
  9.651544E-01
  9.590193E-01
  9.524624E-01
  9.447182E-01
  9.369858E-01
  9.291784E-01
  9.203258E-01
  9.114915E-01
  9.026545E-01
  8.934272E-01
  8.842197E-01
  8.750389E-01
  8.659118E-01
  8.568018E-01
  8.478949E-01
  8.392404E-01
  8.305978E-01
  8.225914E-01
  8.147086E-01
  8.071844E-01
  8.002481E-01
  7.933470E-01
  7.874544E-01
  7.815586E-01
  7.765543E-01
  7.717582E-01
  7.676941E-01
  7.639512E-01
  7.608467E-01
  7.580360E-01
  7.559022E-01
  7.539657E-01
  7.528881E-01
  7.520832E-01
  7.520246E-01
  7.526481E-01
  7.537975E-01
  7.562093E-01
  7.595468E-01
  7.639078E-01
  7.698589E-01
  7.777505E-01
  7.877108E-01
  8.004578E-01
  8.173078E-01
  8.408992E-01
  8.763141E-01
  9.318696E-01
  1.022207E+00
  1.161627E+00
  1.284504E+00
  1.307536E+00
  1.578640E+00
  3.820811E-01
  6.952051E-07
  1.242811E+00
  1.242445E+00
  1.242080E+00
  1.241715E+00
  1.241349E+00
  1.240984E+00
  1.240618E+00
  1.240253E+00
  1.239887E+00
  1.238935E+00
  1.237969E+00
  1.237002E+00
  1.236036E+00
  1.235069E+00
  1.234102E+00
  1.233136E+00
  1.232027E+00
  1.230658E+00
  1.229288E+00
  1.227919E+00
  1.226550E+00
  1.225181E+00
  1.223811E+00
  1.222394E+00
  1.220590E+00
  1.218787E+00
  1.216984E+00
  1.215181E+00
  1.213377E+00
  1.211574E+00
  1.209658E+00
  1.207365E+00
  1.205073E+00
  1.202780E+00
  1.200487E+00
  1.198195E+00
  1.195903E+00
  1.193279E+00
  1.190511E+00
  1.187743E+00
  1.184975E+00
  1.182208E+00
  1.179440E+00
  1.176472E+00
  1.173292E+00
  1.170112E+00
  1.166933E+00
  1.163754E+00
  1.160575E+00
  1.157209E+00
  1.153713E+00
  1.150218E+00
  1.146723E+00
  1.143228E+00
  1.139734E+00
  1.136044E+00
  1.132352E+00
  1.128660E+00
  1.124968E+00
  1.121277E+00
  1.117502E+00
  1.113683E+00
  1.109865E+00
  1.106047E+00
  1.102230E+00
  1.098298E+00
  1.094292E+00
  1.090287E+00
  1.086282E+00
  1.082278E+00
  1.078059E+00
  1.073788E+00
  1.069516E+00
  1.065246E+00
  1.060931E+00
  1.056472E+00
  1.052013E+00
  1.047554E+00
  1.043096E+00
  1.038518E+00
  1.033926E+00
  1.029335E+00
  1.024743E+00
  1.019964E+00
  1.015132E+00
  1.010300E+00
  1.005469E+00
  1.000485E+00
  9.954790E-01
  9.904731E-01
  9.854782E-01
  9.805433E-01
  9.756097E-01
  9.706775E-01
  9.657650E-01
  9.608668E-01
  9.559720E-01
  9.510119E-01
  9.458651E-01
  9.407257E-01
  9.355686E-01
  9.301161E-01
  9.246755E-01
  9.192285E-01
  9.134321E-01
  9.076500E-01
  9.017607E-01
  8.952968E-01
  8.888474E-01
  8.819586E-01
  8.745016E-01
  8.670573E-01
  8.586330E-01
  8.500327E-01
  8.409857E-01
  8.311888E-01
  8.213593E-01
  8.103850E-01
  7.994146E-01
  7.875833E-01
  7.755477E-01
  7.629196E-01
  7.500290E-01
  7.367146E-01
  7.232051E-01
  7.094090E-01
  6.955318E-01
  6.815678E-01
  6.676532E-01
  6.538988E-01
  6.404516E-01
  6.272466E-01
  6.147734E-01
  6.028646E-01
  5.915717E-01
  5.812267E-01
  5.719728E-01
  5.638513E-01
  5.573123E-01
  5.533385E-01
  5.542002E-01
  5.647928E-01
  5.933315E-01
  6.525362E-01
  7.522383E-01
  8.284503E-01
  7.816078E-01
  8.852294E-01
  1.429718E-01
 -5.725488E-14
  9.892043E-01
  9.890383E-01
  9.888722E-01
  9.887062E-01
  9.885401E-01
  9.883741E-01
  9.882080E-01
  9.880420E-01
  9.878760E-01
  9.873844E-01
  9.868848E-01
  9.863851E-01
  9.858855E-01
  9.853859E-01
  9.848863E-01
  9.843867E-01
  9.837811E-01
  9.829811E-01
  9.821811E-01
  9.813812E-01
  9.805813E-01
  9.797813E-01
  9.789814E-01
  9.781496E-01
  9.770621E-01
  9.759747E-01
  9.748873E-01
  9.737998E-01
  9.727125E-01
  9.716251E-01
  9.704677E-01
  9.690774E-01
  9.676872E-01
  9.662970E-01
  9.649068E-01
  9.635167E-01
  9.621267E-01
  9.605236E-01
  9.588274E-01
  9.571312E-01
  9.554351E-01
  9.537391E-01
  9.520431E-01
  9.502029E-01
  9.482105E-01
  9.462183E-01
  9.442262E-01
  9.422341E-01
  9.402422E-01
  9.380771E-01
  9.357908E-01
  9.335047E-01
  9.312187E-01
  9.289329E-01
  9.266472E-01
  9.240705E-01
  9.214893E-01
  9.189084E-01
  9.163277E-01
  9.137473E-01
  9.109767E-01
  9.081089E-01
  9.052413E-01
  9.023739E-01
  8.995069E-01
  8.964646E-01
  8.933076E-01
  8.901509E-01
  8.869945E-01
  8.838383E-01
  8.804328E-01
  8.769650E-01
  8.734974E-01
  8.700300E-01
  8.664857E-01
  8.626904E-01
  8.588953E-01
  8.551004E-01
  8.513057E-01
  8.472100E-01
  8.430808E-01
  8.389517E-01
  8.348227E-01
  8.304301E-01
  8.259633E-01
  8.214967E-01
  8.170303E-01
  8.122948E-01
  8.075183E-01
  8.027421E-01
  7.979270E-01
  7.928901E-01
  7.878537E-01
  7.828178E-01
  7.776348E-01
  7.723613E-01
  7.670890E-01
  7.617560E-01
  7.562519E-01
  7.507498E-01
  7.452338E-01
  7.395248E-01
  7.338190E-01
  7.281054E-01
  7.221761E-01
  7.162507E-01
  7.102780E-01
  7.040620E-01
  6.978498E-01
  6.914854E-01
  6.849246E-01
  6.783672E-01
  6.714890E-01
  6.645528E-01
  6.574716E-01
  6.501472E-01
  6.428122E-01
  6.351024E-01
  6.273943E-01
  6.193805E-01
  6.112946E-01
  6.029504E-01
  5.944921E-01
  5.857816E-01
  5.769549E-01
  5.678537E-01
  5.586735E-01
  5.491779E-01
  5.395989E-01
  5.297938E-01
  5.198250E-01
  5.097361E-01
  4.994062E-01
  4.889326E-01
  4.783069E-01
  4.674629E-01
  4.563841E-01
  4.451004E-01
  4.336290E-01
  4.220865E-01
  4.108597E-01
  4.008777E-01
  3.937295E-01
  3.925738E-01
  4.007329E-01
  3.975062E-01
  3.581118E-01
  4.023307E-01
  1.654390E-01
 -2.475596E-03
  5.639584E-02
  5.639043E-02
  5.638503E-02
  5.637963E-02
  5.637423E-02
  5.636884E-02
  5.636344E-02
  5.635804E-02
  5.635264E-02
  5.634014E-02
  5.632746E-02
  5.631478E-02
  5.630211E-02
  5.628943E-02
  5.627676E-02
  5.626408E-02
  5.625118E-02
  5.623787E-02
  5.622455E-02
  5.621123E-02
  5.619792E-02
  5.618460E-02
  5.617128E-02
  5.615773E-02
  5.614227E-02
  5.612681E-02
  5.611135E-02
  5.609589E-02
  5.608042E-02
  5.606495E-02
  5.604767E-02
  5.602433E-02
  5.600099E-02
  5.597764E-02
  5.595430E-02
  5.593095E-02
  5.590759E-02
  5.587761E-02
  5.584473E-02
  5.581184E-02
  5.577895E-02
  5.574605E-02
  5.571315E-02
  5.567405E-02
  5.562843E-02
  5.558280E-02
  5.553717E-02
  5.549152E-02
  5.544587E-02
  5.538706E-02
  5.531904E-02
  5.525101E-02
  5.518298E-02
  5.511493E-02
  5.504687E-02
  5.494757E-02
  5.484778E-02
  5.474797E-02
  5.464816E-02
  5.454835E-02
  5.442820E-02
  5.429764E-02
  5.416707E-02
  5.403649E-02
  5.390591E-02
  5.376150E-02
  5.360802E-02
  5.345452E-02
  5.330102E-02
  5.314750E-02
  5.298507E-02
  5.282038E-02
  5.265568E-02
  5.249095E-02
  5.232748E-02
  5.216814E-02
  5.200878E-02
  5.184939E-02
  5.168996E-02
  5.153756E-02
  5.138591E-02
  5.123424E-02
  5.108254E-02
  5.092144E-02
  5.075766E-02
  5.059387E-02
  5.043005E-02
  5.023857E-02
  5.004283E-02
  4.984708E-02
  4.964464E-02
  4.940427E-02
  4.916394E-02
  4.892366E-02
  4.864173E-02
  4.833421E-02
  4.802692E-02
  4.769849E-02
  4.731058E-02
  4.692325E-02
  4.653215E-02
  4.608868E-02
  4.564611E-02
  4.520339E-02
  4.474110E-02
  4.427979E-02
  4.381981E-02
  4.336252E-02
  4.290607E-02
  4.245980E-02
  4.202619E-02
  4.159316E-02
  4.119203E-02
  4.079710E-02
  4.042016E-02
  4.007269E-02
  3.972698E-02
  3.943186E-02
  3.913657E-02
  3.888599E-02
  3.864585E-02
  3.844241E-02
  3.825508E-02
  3.809976E-02
  3.795917E-02
  3.785251E-02
  3.775574E-02
  3.770201E-02
  3.766195E-02
  3.765926E-02
  3.769074E-02
  3.774854E-02
  3.786957E-02
  3.803693E-02
  3.825553E-02
  3.855375E-02
  3.894911E-02
  3.944805E-02
  4.008650E-02
  4.093040E-02
  4.211181E-02
  4.388527E-02
  4.666729E-02
  5.119105E-02
  5.817264E-02
  6.432564E-02
  6.547840E-02
  7.905371E-02
  2.628156E-02
  8.469198E-03
  1.613745E-01
  1.613271E-01
  1.612796E-01
  1.612322E-01
  1.611847E-01
  1.611373E-01
  1.610898E-01
  1.610424E-01
  1.609949E-01
  1.608713E-01
  1.607458E-01
  1.606203E-01
  1.604948E-01
  1.603693E-01
  1.602438E-01
  1.601183E-01
  1.599743E-01
  1.597966E-01
  1.596188E-01
  1.594410E-01
  1.592632E-01
  1.590854E-01
  1.589076E-01
  1.587235E-01
  1.584894E-01
  1.582553E-01
  1.580211E-01
  1.577870E-01
  1.575529E-01
  1.573187E-01
  1.570699E-01
  1.567722E-01
  1.564745E-01
  1.561769E-01
  1.558792E-01
  1.555815E-01
  1.552839E-01
  1.549432E-01
  1.545838E-01
  1.542244E-01
  1.538650E-01
  1.535057E-01
  1.531463E-01
  1.527609E-01
  1.523480E-01
  1.519352E-01
  1.515223E-01
  1.511095E-01
  1.506967E-01
  1.502598E-01
  1.498059E-01
  1.493520E-01
  1.488982E-01
  1.484444E-01
  1.479906E-01
  1.475115E-01
  1.470321E-01
  1.465527E-01
  1.460734E-01
  1.455941E-01
  1.451039E-01
  1.446080E-01
  1.441122E-01
  1.436165E-01
  1.431208E-01
  1.426103E-01
  1.420901E-01
  1.415700E-01
  1.410500E-01
  1.405300E-01
  1.399822E-01
  1.394275E-01
  1.388729E-01
  1.383184E-01
  1.377581E-01
  1.371791E-01
  1.366001E-01
  1.360211E-01
  1.354422E-01
  1.348478E-01
  1.342516E-01
  1.336554E-01
  1.330592E-01
  1.324387E-01
  1.318113E-01
  1.311839E-01
  1.305565E-01
  1.299094E-01
  1.292594E-01
  1.286094E-01
  1.279608E-01
  1.273199E-01
  1.266793E-01
  1.260388E-01
  1.254009E-01
  1.247647E-01
  1.241290E-01
  1.234848E-01
  1.228163E-01
  1.221487E-01
  1.214788E-01
  1.207704E-01
  1.200636E-01
  1.193559E-01
  1.186027E-01
  1.178514E-01
  1.170861E-01
  1.162462E-01
  1.154081E-01
  1.145131E-01
  1.135442E-01
  1.125770E-01
  1.114827E-01
  1.103655E-01
  1.091905E-01
  1.079181E-01
  1.066415E-01
  1.052165E-01
  1.037921E-01
  1.022560E-01
  1.006934E-01
  9.905398E-02
  9.738057E-02
  9.565224E-02
  9.389861E-02
  9.210784E-02
  9.030654E-02
  8.849404E-02
  8.668793E-02
  8.490263E-02
  8.315719E-02
  8.144316E-02
  7.982413E-02
  7.827832E-02
  7.681243E-02
  7.546956E-02
  7.426830E-02
  7.321400E-02
  7.236510E-02
  7.184922E-02
  7.196104E-02
  7.333630E-02
  7.704166E-02
  8.472871E-02
  9.767389E-02
  1.075687E-01
  1.014855E-01
  1.149386E-01
  2.549862E-02
 -1.808476E-09
  9.893349E-01
  9.891689E-01
  9.890029E-01
  9.888369E-01
  9.886709E-01
  9.885049E-01
  9.883390E-01
  9.881730E-01
  9.880070E-01
  9.875156E-01
  9.870161E-01
  9.865167E-01
  9.860172E-01
  9.855178E-01
  9.850183E-01
  9.845189E-01
  9.839135E-01
  9.831138E-01
  9.823142E-01
  9.815145E-01
  9.807149E-01
  9.799153E-01
  9.791157E-01
  9.782841E-01
  9.771971E-01