 Title= "ADflow Lift Distribution Data"
Variables = "eta" "CoordinateX" "CoordinateY" "CoordinateZ" "Lift" "Drag" "Moment" "Normalized Lift" "Normalized Drag" "Normalized Moment" "CL" "CD" "CM" "CLp" "CDp" "CMp" "CLv" "CDv" "CMv" "Elliptical" "thickness" "twist" "chord" "fx" "fy" "fz" 
Zone T= "LiftDist_01 allWalls: : z normal"
 I=          150
 DATAPACKING=BLOCK
  0.000000E+00
  6.711405E-03
  1.342281E-02
  2.013422E-02
  2.684563E-02
  3.355704E-02
  4.026845E-02
  4.697986E-02
  5.369127E-02
  6.040268E-02
  6.711409E-02
  7.382550E-02
  8.053691E-02
  8.724832E-02
  9.395973E-02
  1.006711E-01
  1.073825E-01
  1.140940E-01
  1.208054E-01
  1.275168E-01
  1.342282E-01
  1.409396E-01
  1.476510E-01
  1.543624E-01
  1.610738E-01
  1.677852E-01
  1.744966E-01
  1.812081E-01
  1.879195E-01
  1.946309E-01
  2.013423E-01
  2.080537E-01
  2.147651E-01
  2.214765E-01
  2.281879E-01
  2.348993E-01
  2.416107E-01
  2.483221E-01
  2.550336E-01
  2.617450E-01
  2.684564E-01
  2.751678E-01
  2.818792E-01
  2.885906E-01
  2.953020E-01
  3.020134E-01
  3.087248E-01
  3.154362E-01
  3.221476E-01
  3.288591E-01
  3.355705E-01
  3.422819E-01
  3.489933E-01
  3.557047E-01
  3.624161E-01
  3.691275E-01
  3.758389E-01
  3.825503E-01
  3.892617E-01
  3.959732E-01
  4.026846E-01
  4.093960E-01
  4.161074E-01
  4.228188E-01
  4.295302E-01
  4.362416E-01
  4.429530E-01
  4.496644E-01
  4.563758E-01
  4.630872E-01
  4.697987E-01
  4.765101E-01
  4.832215E-01
  4.899329E-01
  4.966443E-01
  5.033557E-01
  5.100671E-01
  5.167785E-01
  5.234899E-01
  5.302013E-01
  5.369128E-01
  5.436242E-01
  5.503356E-01
  5.570470E-01
  5.637584E-01
  5.704698E-01
  5.771812E-01
  5.838926E-01
  5.906040E-01
  5.973154E-01
  6.040268E-01
  6.107383E-01
  6.174497E-01
  6.241611E-01
  6.308725E-01
  6.375839E-01
  6.442953E-01
  6.510067E-01
  6.577181E-01
  6.644295E-01
  6.711409E-01
  6.778524E-01
  6.845638E-01
  6.912752E-01
  6.979866E-01
  7.046980E-01
  7.114094E-01
  7.181208E-01
  7.248322E-01
  7.315436E-01
  7.382550E-01
  7.449664E-01
  7.516779E-01
  7.583893E-01
  7.651007E-01
  7.718121E-01
  7.785235E-01
  7.852349E-01
  7.919463E-01
  7.986577E-01
  8.053691E-01
  8.120805E-01
  8.187919E-01
  8.255034E-01
  8.322148E-01
  8.389262E-01
  8.456376E-01
  8.523490E-01
  8.590604E-01
  8.657718E-01
  8.724832E-01
  8.791946E-01
  8.859060E-01
  8.926175E-01
  8.993289E-01
  9.060403E-01
  9.127517E-01
  9.194631E-01
  9.261745E-01
  9.328859E-01
  9.395973E-01
  9.463087E-01
  9.530201E-01
  9.597315E-01
  9.664430E-01
  9.731544E-01
  9.798658E-01
  9.865772E-01
  9.932886E-01
  1.000000E+00
  0.000000E+00
  0.000000E+00
  0.000000E+00
  0.000000E+00
  0.000000E+00
  0.000000E+00
  0.000000E+00
  0.000000E+00
  0.000000E+00
  0.000000E+00
  0.000000E+00
  0.000000E+00
  0.000000E+00
  0.000000E+00
  0.000000E+00
  0.000000E+00
  0.000000E+00
  0.000000E+00
  0.000000E+00
  0.000000E+00
  0.000000E+00
  0.000000E+00
  0.000000E+00
  0.000000E+00
  0.000000E+00
  0.000000E+00
  0.000000E+00
  0.000000E+00
  0.000000E+00
  0.000000E+00
  0.000000E+00
  0.000000E+00
  0.000000E+00
  0.000000E+00
  0.000000E+00
  0.000000E+00
  0.000000E+00
  0.000000E+00
  0.000000E+00
  0.000000E+00
  0.000000E+00
  0.000000E+00
  0.000000E+00
  0.000000E+00
  0.000000E+00
  0.000000E+00
  0.000000E+00
  0.000000E+00
  0.000000E+00
  0.000000E+00
  0.000000E+00
  0.000000E+00
  0.000000E+00
  0.000000E+00
  0.000000E+00
  0.000000E+00
  0.000000E+00
  0.000000E+00
  0.000000E+00
  0.000000E+00
  0.000000E+00
  0.000000E+00
  0.000000E+00
  0.000000E+00
  0.000000E+00
  0.000000E+00
  0.000000E+00
  0.000000E+00
  0.000000E+00
  0.000000E+00
  0.000000E+00
  0.000000E+00
  0.000000E+00
  0.000000E+00
  0.000000E+00
  0.000000E+00
  0.000000E+00
  0.000000E+00
  0.000000E+00
  0.000000E+00
  0.000000E+00
  0.000000E+00
  0.000000E+00
  0.000000E+00
  0.000000E+00
  0.000000E+00
  0.000000E+00
  0.000000E+00
  0.000000E+00
  0.000000E+00
  0.000000E+00
  0.000000E+00
  0.000000E+00
  0.000000E+00
  0.000000E+00
  0.000000E+00
  0.000000E+00
  0.000000E+00
  0.000000E+00
  0.000000E+00
  0.000000E+00
  0.000000E+00
  0.000000E+00
  0.000000E+00
  0.000000E+00
  0.000000E+00
  0.000000E+00
  0.000000E+00
  0.000000E+00
  0.000000E+00
  0.000000E+00
  0.000000E+00
  0.000000E+00
  0.000000E+00
  0.000000E+00
  0.000000E+00
  0.000000E+00
  0.000000E+00
  0.000000E+00
  0.000000E+00
  0.000000E+00
  0.000000E+00
  0.000000E+00
  0.000000E+00
  0.000000E+00
  0.000000E+00
  0.000000E+00
  0.000000E+00
  0.000000E+00
  0.000000E+00
  0.000000E+00
  0.000000E+00
  0.000000E+00
  0.000000E+00
  0.000000E+00
  0.000000E+00
  0.000000E+00
  0.000000E+00
  0.000000E+00
  0.000000E+00
  0.000000E+00
  0.000000E+00
  0.000000E+00
  0.000000E+00
  0.000000E+00
  0.000000E+00
  0.000000E+00
  0.000000E+00
  0.000000E+00
  0.000000E+00
  0.000000E+00
  0.000000E+00
  0.000000E+00
  0.000000E+00
  0.000000E+00
  0.000000E+00
  0.000000E+00
  0.000000E+00
  0.000000E+00
  0.000000E+00
  0.000000E+00
  0.000000E+00
  0.000000E+00
  0.000000E+00
  0.000000E+00
  0.000000E+00
  0.000000E+00
  0.000000E+00
  0.000000E+00
  0.000000E+00
  0.000000E+00
  0.000000E+00
  0.000000E+00
  0.000000E+00
  0.000000E+00
  0.000000E+00
  0.000000E+00
  0.000000E+00
  0.000000E+00
  0.000000E+00
  0.000000E+00
  0.000000E+00
  0.000000E+00
  0.000000E+00
  0.000000E+00
  0.000000E+00
  0.000000E+00
  0.000000E+00
  0.000000E+00
  0.000000E+00
  0.000000E+00
  0.000000E+00
  0.000000E+00
  0.000000E+00
  0.000000E+00
  0.000000E+00
  0.000000E+00
  0.000000E+00
  0.000000E+00
  0.000000E+00
  0.000000E+00
  0.000000E+00
  0.000000E+00
  0.000000E+00
  0.000000E+00
  0.000000E+00
  0.000000E+00
  0.000000E+00
  0.000000E+00
  0.000000E+00
  0.000000E+00
  0.000000E+00
  0.000000E+00
  0.000000E+00
  0.000000E+00
  0.000000E+00
  0.000000E+00
  0.000000E+00
  0.000000E+00
  0.000000E+00
  0.000000E+00
  0.000000E+00
  0.000000E+00
  0.000000E+00
  0.000000E+00
  0.000000E+00
  0.000000E+00
  0.000000E+00
  0.000000E+00
  0.000000E+00
  0.000000E+00
  0.000000E+00
  0.000000E+00
  0.000000E+00
  0.000000E+00
  0.000000E+00
  0.000000E+00
  0.000000E+00
  0.000000E+00
  0.000000E+00
  0.000000E+00
  0.000000E+00
  0.000000E+00
  0.000000E+00
  0.000000E+00
  0.000000E+00
  0.000000E+00
  0.000000E+00
  0.000000E+00
  0.000000E+00
  0.000000E+00
  0.000000E+00
  0.000000E+00
  0.000000E+00
  0.000000E+00
  0.000000E+00
  0.000000E+00
  0.000000E+00
  0.000000E+00
  0.000000E+00
  0.000000E+00
  0.000000E+00
  0.000000E+00
  0.000000E+00
  0.000000E+00
  0.000000E+00
  0.000000E+00
  0.000000E+00
  0.000000E+00
  0.000000E+00
  0.000000E+00
  0.000000E+00
  0.000000E+00
  0.000000E+00
  0.000000E+00
  0.000000E+00
  0.000000E+00
  0.000000E+00
  0.000000E+00
  0.000000E+00
  0.000000E+00
  0.000000E+00
  0.000000E+00
  0.000000E+00
  0.000000E+00
  0.000000E+00
  0.000000E+00
  0.000000E+00
  0.000000E+00
  0.000000E+00
  0.000000E+00
  0.000000E+00
  0.000000E+00
  0.000000E+00
  0.000000E+00
  0.000000E+00
  0.000000E+00
  0.000000E+00
  0.000000E+00
  0.000000E+00
  1.000000E-08
  1.695085E-02
  3.390169E-02
  5.085254E-02
  6.780338E-02
  8.475423E-02
  1.017051E-01
  1.186559E-01
  1.356068E-01
  1.525576E-01
  1.695085E-01
  1.864593E-01
  2.034101E-01
  2.203610E-01
  2.373118E-01
  2.542627E-01
  2.712135E-01
  2.881644E-01
  3.051152E-01
  3.220661E-01
  3.390169E-01
  3.559678E-01
  3.729186E-01
  3.898694E-01
  4.068203E-01
  4.237711E-01
  4.407220E-01
  4.576728E-01
  4.746237E-01
  4.915745E-01
  5.085254E-01
  5.254762E-01
  5.424271E-01
  5.593779E-01
  5.763287E-01
  5.932796E-01
  6.102304E-01
  6.271813E-01
  6.441321E-01
  6.610830E-01
  6.780338E-01
  6.949847E-01
  7.119355E-01
  7.288864E-01
  7.458372E-01
  7.627880E-01
  7.797389E-01
  7.966897E-01
  8.136406E-01
  8.305914E-01
  8.475423E-01
  8.644931E-01
  8.814440E-01
  8.983948E-01
  9.153457E-01
  9.322965E-01
  9.492473E-01
  9.661982E-01
  9.831490E-01
  1.000100E+00
  1.017051E+00
  1.034002E+00
  1.050952E+00
  1.067903E+00
  1.084854E+00
  1.101805E+00
  1.118756E+00
  1.135707E+00
  1.152657E+00
  1.169608E+00
  1.186559E+00
  1.203510E+00
  1.220461E+00
  1.237412E+00
  1.254363E+00
  1.271313E+00
  1.288264E+00
  1.305215E+00
  1.322166E+00
  1.339117E+00
  1.356068E+00
  1.373018E+00
  1.389969E+00
  1.406920E+00
  1.423871E+00
  1.440822E+00
  1.457773E+00
  1.474724E+00
  1.491674E+00
  1.508625E+00
  1.525576E+00
  1.542527E+00
  1.559478E+00
  1.576429E+00
  1.593379E+00
  1.610330E+00
  1.627281E+00
  1.644232E+00
  1.661183E+00
  1.678134E+00
  1.695085E+00
  1.712035E+00
  1.728986E+00
  1.745937E+00
  1.762888E+00
  1.779839E+00
  1.796790E+00
  1.813740E+00
  1.830691E+00
  1.847642E+00
  1.864593E+00
  1.881544E+00
  1.898495E+00
  1.915446E+00
  1.932396E+00
  1.949347E+00
  1.966298E+00
  1.983249E+00
  2.000200E+00
  2.017151E+00
  2.034101E+00
  2.051052E+00
  2.068003E+00
  2.084954E+00
  2.101905E+00
  2.118856E+00
  2.135807E+00
  2.152757E+00
  2.169708E+00
  2.186659E+00
  2.203610E+00
  2.220561E+00
  2.237512E+00
  2.254462E+00
  2.271413E+00
  2.288364E+00
  2.305315E+00
  2.322266E+00
  2.339217E+00
  2.356168E+00
  2.373118E+00
  2.390069E+00
  2.407020E+00
  2.423971E+00
  2.440922E+00
  2.457873E+00
  2.474823E+00
  2.491774E+00
  2.508725E+00
  2.525676E+00
  1.116785E+04
  1.116637E+04
  1.116488E+04
  1.116340E+04
  1.116191E+04
  1.116043E+04
  1.115895E+04
  1.115747E+04
  1.115598E+04
  1.114996E+04
  1.114382E+04
  1.113768E+04
  1.113154E+04
  1.112540E+04
  1.111926E+04
  1.111312E+04
  1.110526E+04
  1.109424E+04
  1.108322E+04
  1.107221E+04
  1.106119E+04
  1.105017E+04
  1.103915E+04
  1.102779E+04
  1.101366E+04
  1.099953E+04
  1.098541E+04
  1.097128E+04
  1.095716E+04
  1.094303E+04
  1.092821E+04
  1.091105E+04
  1.089389E+04
  1.087673E+04
  1.085957E+04
  1.084242E+04
  1.082526E+04
  1.080573E+04
  1.078517E+04
  1.076461E+04
  1.074405E+04
  1.072349E+04
  1.070294E+04
  1.068067E+04
  1.065658E+04
  1.063250E+04
  1.060842E+04
  1.058435E+04
  1.056027E+04
  1.053414E+04
  1.050657E+04
  1.047901E+04
  1.045144E+04
  1.042388E+04
  1.039632E+04
  1.036538E+04
  1.033438E+04
  1.030339E+04
  1.027239E+04
  1.024141E+04
  1.020811E+04
  1.017362E+04
  1.013914E+04
  1.010466E+04
  1.007018E+04
  1.003356E+04
  9.995528E+03
  9.957499E+03
  9.919473E+03
  9.881450E+03
  9.840623E+03
  9.799096E+03
  9.757572E+03
  9.716052E+03
  9.673731E+03
  9.628801E+03
  9.583875E+03
  9.538954E+03
  9.494038E+03
  9.446122E+03
  9.397876E+03
  9.349637E+03
  9.301405E+03
  9.250616E+03
  9.199114E+03
  9.147620E+03
  9.096133E+03
  9.041925E+03
  8.987307E+03
  8.932698E+03
  8.877662E+03
  8.820161E+03
  8.762672E+03
  8.705193E+03
  8.646013E+03
  8.585790E+03
  8.525584E+03
  8.464673E+03
  8.401762E+03
  8.338881E+03
  8.275820E+03
  8.210265E+03
  8.144750E+03
  8.079132E+03
  8.010688E+03
  7.942290E+03
  7.873341E+03
  7.801546E+03
  7.729795E+03
  7.656404E+03
  7.580894E+03
  7.505422E+03
  7.426633E+03
  7.347247E+03
  7.266406E+03
  7.183127E+03
  7.099744E+03
  7.012665E+03
  6.925604E+03
  6.835514E+03
  6.744712E+03
  6.651327E+03
  6.556802E+03
  6.459718E+03
  6.361456E+03
  6.260330E+03
  6.158382E+03
  6.053073E+03
  5.946868E+03
  5.838221E+03
  5.727791E+03
  5.616052E+03
  5.501655E+03
  5.385658E+03
  5.267962E+03
  5.147807E+03
  5.024975E+03
  4.899756E+03
  4.772238E+03
  4.643515E+03
  4.517489E+03
  4.403733E+03
  4.318629E+03
  4.295760E+03
  4.372424E+03
  4.325528E+03
  3.894743E+03
  4.420545E+03
  1.290069E+03
 -1.147635E-04
  6.425555E+02
  6.428760E+02
  6.431967E+02
  6.435176E+02
  6.438388E+02
  6.441601E+02
  6.444816E+02
  6.448033E+02
  6.451252E+02
  6.454910E+02
  6.458582E+02
  6.462255E+02
  6.465931E+02
  6.469609E+02
  6.473289E+02
  6.476971E+02
  6.479373E+02
  6.479424E+02
  6.479477E+02
  6.479531E+02
  6.479587E+02
  6.479643E+02
  6.479701E+02
  6.479678E+02
  6.478998E+02
  6.478318E+02
  6.477639E+02
  6.476961E+02
  6.476285E+02
  6.475609E+02
  6.474675E+02
  6.472880E+02
  6.471086E+02
  6.469294E+02
  6.467502E+02
  6.465712E+02
  6.463923E+02
  6.460760E+02
  6.456996E+02
  6.453235E+02
  6.449475E+02
  6.445717E+02
  6.441960E+02
  6.436980E+02
  6.430709E+02
  6.424441E+02
  6.418176E+02
  6.411914E+02
  6.405654E+02
  6.397731E+02
  6.388645E+02
  6.379563E+02
  6.370483E+02
  6.361407E+02
  6.352334E+02
  6.340175E+02
  6.327970E+02
  6.315767E+02
  6.303566E+02
  6.291367E+02
  6.276484E+02
  6.260225E+02
  6.243966E+02
  6.227708E+02
  6.211450E+02
  6.191986E+02
  6.170418E+02
  6.148850E+02
  6.127282E+02
  6.105715E+02
  6.079257E+02
  6.051575E+02
  6.023898E+02
  5.996223E+02
  5.967119E+02
  5.933365E+02
  5.899625E+02
  5.865897E+02
  5.832183E+02
  5.793729E+02
  5.754773E+02
  5.715845E+02
  5.676946E+02
  5.634959E+02
  5.592139E+02
  5.549365E+02
  5.506638E+02
  5.461949E+02
  5.417015E+02
  5.372143E+02
  5.327197E+02
  5.281540E+02
  5.235961E+02
  5.190457E+02
  5.144471E+02
  5.098226E+02
  5.052069E+02
  5.005658E+02
  4.958376E+02
  4.911195E+02
  4.864099E+02
  4.816938E+02
  4.769876E+02
  4.722978E+02
  4.677484E+02
  4.632074E+02
  4.587145E+02
  4.544222E+02
  4.501357E+02
  4.460000E+02
  4.420546E+02
  4.381122E+02
  4.345294E+02
  4.310146E+02
  4.276816E+02
  4.246488E+02
  4.216323E+02
  4.191151E+02
  4.165962E+02
  4.145241E+02
  4.125568E+02
  4.109702E+02
  4.095516E+02
  4.084837E+02
  4.075783E+02
  4.070557E+02
  4.066467E+02
  4.067223E+02
  4.069523E+02
  4.075988E+02
  4.086200E+02
  4.099309E+02
  4.119207E+02
  4.144024E+02
  4.174264E+02
  4.212829E+02
  4.261465E+02
  4.320785E+02
  4.394412E+02
  4.489029E+02
  4.618154E+02
  4.808021E+02
  5.101627E+02
  5.575903E+02
  6.308268E+02
  6.948947E+02
  7.077778E+02
  8.607454E+02
  1.935245E+02
  3.859274E-04
  1.907104E+03
  1.906270E+03
  1.905436E+03
  1.904602E+03
  1.903769E+03
  1.902937E+03
  1.902104E+03
  1.901272E+03
  1.900440E+03
  1.897770E+03
  1.895055E+03
  1.892340E+03
  1.889625E+03
  1.886911E+03
  1.884197E+03
  1.881483E+03
  1.878351E+03
  1.874453E+03
  1.870555E+03
  1.866657E+03
  1.862759E+03
  1.858861E+03
  1.854963E+03
  1.851035E+03
  1.846856E+03
  1.842678E+03
  1.838500E+03
  1.834322E+03
  1.830144E+03
  1.825966E+03
  1.821743E+03
  1.817373E+03
  1.813002E+03
  1.808631E+03
  1.804261E+03
  1.799890E+03
  1.795520E+03
  1.790957E+03
  1.786310E+03
  1.781663E+03
  1.777016E+03
  1.772369E+03
  1.767723E+03
  1.762958E+03
  1.758067E+03
  1.753178E+03
  1.748288E+03
  1.743399E+03
  1.738511E+03
  1.733562E+03
  1.728572E+03
  1.723582E+03
  1.718593E+03
  1.713605E+03
  1.708618E+03
  1.703696E+03
  1.698777E+03
  1.693858E+03
  1.688941E+03
  1.684024E+03
  1.679168E+03
  1.674343E+03
  1.669520E+03
  1.664697E+03
  1.659876E+03
  1.655073E+03
  1.650283E+03
  1.645494E+03
  1.640707E+03
  1.635921E+03
  1.631153E+03
  1.626392E+03
  1.621632E+03
  1.616874E+03
  1.612129E+03
  1.607425E+03
  1.602723E+03
  1.598024E+03
  1.593327E+03
  1.588608E+03
  1.583889E+03
  1.579175E+03
  1.574464E+03
  1.569557E+03
  1.564599E+03
  1.559645E+03
  1.554696E+03
  1.549386E+03
  1.544027E+03
  1.538673E+03
  1.533253E+03
  1.527429E+03
  1.521612E+03
  1.515803E+03
  1.509554E+03
  1.503037E+03
  1.496530E+03
  1.489744E+03
  1.482164E+03
  1.474597E+03
  1.466954E+03
  1.458221E+03
  1.449507E+03
  1.440752E+03
  1.430837E+03
  1.420941E+03
  1.410806E+03
  1.399439E+03
  1.388090E+03
  1.375993E+03
  1.362931E+03
  1.349884E+03
  1.335339E+03
  1.320522E+03
  1.305059E+03
  1.288512E+03
  1.271918E+03
  1.253719E+03
  1.235525E+03
  1.216135E+03
  1.196462E+03
  1.175970E+03
  1.155116E+03
  1.133670E+03
  1.111953E+03
  1.089815E+03
  1.067559E+03
  1.045136E+03
  1.022769E+03
  1.000584E+03
  9.787948E+02
  9.573192E+02
  9.368118E+02
  9.170601E+02
  8.981342E+02
  8.804814E+02
  8.642927E+02
  8.496167E+02
  8.370478E+02
  8.278995E+02
  8.252668E+02
  8.357998E+02
  8.708461E+02
  9.483687E+02
  1.083571E+03
  1.187771E+03
  1.125341E+03
  1.293931E+03
  1.997883E+02
 -8.138266E-11
  1.257328E+00
  1.257160E+00
  1.256993E+00
  1.256826E+00
  1.256659E+00
  1.256492E+00
  1.256325E+00
  1.256158E+00
  1.255991E+00
  1.255312E+00
  1.254621E+00
  1.253930E+00
  1.253239E+00
  1.252548E+00
  1.251857E+00
  1.251166E+00
  1.250281E+00
  1.249040E+00
  1.247800E+00
  1.246559E+00
  1.245318E+00
  1.244078E+00
  1.242838E+00
  1.241558E+00
  1.239968E+00
  1.238377E+00
  1.236787E+00
  1.235197E+00
  1.233606E+00
  1.232016E+00
  1.230347E+00
  1.228415E+00
  1.226483E+00
  1.224551E+00
  1.222620E+00
  1.220688E+00
  1.218757E+00
  1.216558E+00
  1.214243E+00
  1.211929E+00
  1.209614E+00
  1.207299E+00
  1.204985E+00
  1.202478E+00
  1.199766E+00
  1.197055E+00
  1.194344E+00
  1.191634E+00
  1.188923E+00
  1.185981E+00
  1.182878E+00
  1.179774E+00
  1.176671E+00
  1.173568E+00
  1.170465E+00
  1.166981E+00
  1.163491E+00
  1.160002E+00
  1.156513E+00
  1.153024E+00
  1.149275E+00
  1.145392E+00
  1.141510E+00
  1.137628E+00
  1.133747E+00
  1.129624E+00
  1.125342E+00
  1.121060E+00
  1.116779E+00
  1.112498E+00
  1.107902E+00
  1.103226E+00
  1.098552E+00
  1.093877E+00
  1.089112E+00
  1.084054E+00
  1.078996E+00
  1.073939E+00
  1.068882E+00
  1.063487E+00
  1.058055E+00
  1.052624E+00
  1.047194E+00
  1.041476E+00
  1.035678E+00
  1.029880E+00
  1.024084E+00
  1.017981E+00
  1.011832E+00
  1.005683E+00
  9.994873E-01
  9.930136E-01
  9.865412E-01
  9.800699E-01
  9.734072E-01
  9.666271E-01
  9.598487E-01
  9.529911E-01
  9.459084E-01
  9.388289E-01
  9.317292E-01
  9.243487E-01
  9.169728E-01
  9.095852E-01
  9.018795E-01
  8.941789E-01
  8.864163E-01
  8.783333E-01
  8.702552E-01
  8.619925E-01
  8.534912E-01
  8.449943E-01
  8.361239E-01
  8.271862E-01
  8.180849E-01
  8.087089E-01
  7.993213E-01
  7.895175E-01
  7.797157E-01
  7.695731E-01
  7.593501E-01
  7.488364E-01
  7.381944E-01
  7.272642E-01
  7.162014E-01
  7.048162E-01
  6.933385E-01
  6.814823E-01
  6.695252E-01
  6.572933E-01
  6.448606E-01
  6.322805E-01
  6.194012E-01
  6.063417E-01
  5.930910E-01
  5.795634E-01
  5.657344E-01
  5.516366E-01
  5.372801E-01
  5.227879E-01
  5.085994E-01
  4.957922E-01
  4.862108E-01
  4.836361E-01
  4.922673E-01
  4.869875E-01
  4.384878E-01
  4.976850E-01
  1.452418E-01
 -1.292060E-08
  1.146957E+00
  1.147529E+00
  1.148101E+00
  1.148674E+00
  1.149247E+00
  1.149821E+00
  1.150395E+00
  1.150969E+00
  1.151544E+00
  1.152197E+00
  1.152852E+00
  1.153508E+00
  1.154164E+00
  1.154820E+00
  1.155477E+00
  1.156134E+00
  1.156563E+00
  1.156572E+00
  1.156582E+00
  1.156592E+00
  1.156601E+00
  1.156612E+00
  1.156622E+00
  1.156618E+00
  1.156496E+00
  1.156375E+00
  1.156254E+00
  1.156133E+00
  1.156012E+00
  1.155891E+00
  1.155725E+00
  1.155404E+00
  1.155084E+00
  1.154764E+00
  1.154444E+00
  1.154125E+00
  1.153805E+00
  1.153241E+00
  1.152569E+00
  1.151898E+00
  1.151226E+00
  1.150556E+00
  1.149885E+00
  1.148996E+00
  1.147877E+00
  1.146758E+00
  1.145640E+00
  1.144522E+00
  1.143404E+00
  1.141990E+00
  1.140368E+00
  1.138747E+00
  1.137127E+00
  1.135506E+00
  1.133887E+00
  1.131717E+00
  1.129538E+00
  1.127360E+00
  1.125182E+00
  1.123004E+00
  1.120348E+00
  1.117445E+00
  1.114543E+00
  1.111641E+00
  1.108739E+00
  1.105265E+00
  1.101415E+00
  1.097565E+00
  1.093715E+00
  1.089866E+00
  1.085143E+00
  1.080202E+00
  1.075261E+00
  1.070321E+00
  1.065126E+00
  1.059101E+00
  1.053079E+00
  1.047058E+00
  1.041040E+00
  1.034176E+00
  1.027223E+00
  1.020274E+00
  1.013331E+00
  1.005836E+00
  9.981926E-01
  9.905575E-01
  9.829307E-01
  9.749539E-01
  9.669331E-01
  9.589236E-01
  9.509007E-01
  9.427510E-01
  9.346151E-01
  9.264928E-01
  9.182843E-01
  9.100295E-01
  9.017906E-01
  8.935061E-01
  8.850665E-01
  8.766447E-01
  8.682381E-01
  8.598198E-01
  8.514193E-01
  8.430481E-01
  8.349275E-01
  8.268218E-01
  8.188020E-01
  8.111402E-01
  8.034888E-01
  7.961067E-01
  7.890641E-01
  7.820270E-01
  7.756318E-01
  7.693578E-01
  7.634084E-01
  7.579949E-01
  7.526105E-01
  7.481174E-01
  7.436212E-01
  7.399224E-01
  7.364108E-01
  7.335788E-01
  7.310466E-01
  7.291403E-01
  7.275243E-01
  7.265915E-01
  7.258613E-01
  7.259963E-01
  7.264068E-01
  7.275609E-01
  7.293837E-01
  7.317237E-01
  7.352753E-01
  7.397052E-01
  7.451030E-01
  7.519869E-01
  7.606684E-01
  7.712568E-01
  7.843993E-01
  8.012883E-01
  8.243370E-01
  8.582281E-01
  9.106366E-01
  9.952945E-01
  1.126021E+00
  1.240382E+00
  1.263378E+00
  1.536424E+00
  3.454398E-01
  6.888775E-07
  1.252771E+00
  1.252223E+00
  1.251676E+00
  1.251128E+00
  1.250581E+00
  1.250034E+00
  1.249487E+00
  1.248941E+00
  1.248394E+00
  1.246640E+00
  1.244857E+00
  1.243073E+00
  1.241290E+00
  1.239507E+00
  1.237724E+00
  1.235941E+00
  1.233884E+00
  1.231323E+00
  1.228762E+00
  1.226202E+00
  1.223641E+00
  1.221081E+00
  1.218521E+00
  1.215940E+00
  1.213195E+00
  1.210450E+00
  1.207706E+00
  1.204961E+00
  1.202217E+00
  1.199472E+00
  1.196698E+00
  1.193827E+00
  1.190956E+00
  1.188085E+00
  1.185214E+00
  1.182343E+00
  1.179472E+00
  1.176475E+00
  1.173422E+00
  1.170369E+00
  1.167317E+00
  1.164265E+00
  1.161213E+00
  1.158082E+00
  1.154870E+00
  1.151658E+00
  1.148446E+00
  1.145234E+00
  1.142023E+00
  1.138773E+00
  1.135494E+00
  1.132217E+00
  1.128939E+00
  1.125663E+00
  1.122386E+00
  1.119154E+00
  1.115922E+00
  1.112691E+00
  1.109461E+00
  1.106231E+00
  1.103041E+00
  1.099872E+00
  1.096703E+00
  1.093535E+00
  1.090368E+00
  1.087213E+00
  1.084066E+00
  1.080921E+00
  1.077776E+00
  1.074632E+00
  1.071500E+00
  1.068372E+00
  1.065246E+00
  1.062120E+00
  1.059003E+00
  1.055913E+00
  1.052825E+00
  1.049738E+00
  1.046652E+00
  1.043552E+00
  1.040453E+00
  1.037356E+00
  1.034261E+00
  1.031038E+00
  1.027781E+00
  1.024527E+00
  1.021276E+00
  1.017788E+00
  1.014267E+00
  1.010750E+00
  1.007190E+00
  1.003364E+00
  9.995429E-01
  9.957270E-01
  9.916218E-01
  9.873409E-01
  9.830664E-01
  9.786091E-01
  9.736294E-01
  9.686587E-01
  9.636379E-01
  9.579018E-01
  9.521775E-01
  9.464262E-01
  9.399128E-01
  9.334123E-01
  9.267549E-01
  9.192876E-01
  9.118323E-01
  9.038861E-01
  8.953057E-01
  8.867353E-01
  8.771808E-01
  8.674476E-01
  8.572897E-01
  8.464203E-01
  8.355197E-01
  8.235648E-01
  8.116130E-01
  7.988759E-01
  7.859525E-01
  7.724913E-01
  7.587924E-01
  7.447048E-01
  7.304389E-01
  7.158965E-01
  7.012765E-01
  6.865473E-01
  6.718542E-01
  6.572811E-01
  6.429677E-01
  6.288604E-01
  6.153892E-01
  6.024143E-01
  5.899819E-01
  5.783859E-01
  5.677515E-01
  5.581109E-01
  5.498544E-01
  5.438450E-01
  5.421155E-01
  5.490347E-01
  5.720565E-01
  6.229809E-01
  7.117949E-01
  7.802438E-01
  7.392333E-01
  8.499795E-01
  1.312404E-01
 -5.346005E-14
  9.985701E-01
  9.984377E-01
  9.983053E-01
  9.981729E-01
  9.980407E-01
  9.979085E-01
  9.977763E-01
  9.976442E-01
  9.975122E-01
  9.969736E-01
  9.964249E-01
  9.958762E-01
  9.953277E-01
  9.947791E-01
  9.942307E-01
  9.936822E-01
  9.929797E-01
  9.919946E-01
  9.910095E-01
  9.900245E-01
  9.890395E-01
  9.880545E-01
  9.870696E-01
  9.860538E-01
  9.847908E-01
  9.835278E-01
  9.822649E-01
  9.810020E-01
  9.797392E-01
  9.784764E-01
  9.771508E-01
  9.756166E-01
  9.740824E-01
  9.725482E-01
  9.710142E-01
  9.694801E-01
  9.679462E-01
  9.662004E-01
  9.643619E-01
  9.625235E-01
  9.606852E-01
  9.588471E-01
  9.570090E-01
  9.550175E-01
  9.528642E-01
  9.507110E-01
  9.485580E-01
  9.464052E-01
  9.442526E-01
  9.419161E-01
  9.394508E-01
  9.369858E-01
  9.345211E-01
  9.320566E-01
  9.295924E-01
  9.268251E-01
  9.240534E-01
  9.212819E-01
  9.185107E-01
  9.157397E-01
  9.127619E-01
  9.096783E-01
  9.065948E-01
  9.035117E-01
  9.004288E-01
  8.971537E-01
  8.937527E-01
  8.903520E-01
  8.869515E-01
  8.835513E-01
  8.799003E-01
  8.761866E-01
  8.724733E-01
  8.687602E-01
  8.649755E-01
  8.609574E-01
  8.569396E-01
  8.529223E-01
  8.489054E-01
  8.446200E-01
  8.403052E-01
  8.359909E-01
  8.316772E-01
  8.271348E-01
  8.225285E-01
  8.179228E-01
  8.133178E-01
  8.084692E-01
  8.035839E-01
  7.986993E-01
  7.937764E-01
  7.886329E-01
  7.834902E-01
  7.783484E-01
  7.730542E-01
  7.676666E-01
  7.622803E-01
  7.568307E-01
  7.512020E-01
  7.455758E-01
  7.399334E-01
  7.340676E-01
  7.282054E-01
  7.223339E-01
  7.162098E-01
  7.100898E-01
  7.039205E-01
  6.974974E-01
  6.910782E-01
  6.845127E-01
  6.777584E-01
  6.710075E-01
  6.639611E-01
  6.568616E-01
  6.496325E-01
  6.421863E-01
  6.347309E-01
  6.269463E-01
  6.191633E-01
  6.111106E-01
  6.029943E-01
  5.946480E-01
  5.862000E-01
  5.775239E-01
  5.687426E-01
  5.597059E-01
  5.505957E-01
  5.411854E-01
  5.316948E-01
  5.219860E-01
  5.121176E-01
  5.021319E-01
  4.919084E-01
  4.815414E-01
  4.710221E-01
  4.602824E-01
  4.493028E-01
  4.381092E-01
  4.267095E-01
  4.152014E-01
  4.039339E-01
  3.937627E-01
  3.861524E-01
  3.841063E-01
  3.909592E-01
  3.867632E-01
  3.482417E-01
  3.952509E-01
  1.584380E-01
 -2.496161E-03
  5.745389E-02
  5.748258E-02
  5.751128E-02
  5.754000E-02
  5.756874E-02
  5.759749E-02
  5.762627E-02
  5.765505E-02
  5.768386E-02
  5.771659E-02
  5.774944E-02
  5.778231E-02
  5.781520E-02
  5.784810E-02
  5.788102E-02
  5.791396E-02
  5.793546E-02
  5.793593E-02
  5.793642E-02
  5.793692E-02
  5.793743E-02
  5.793795E-02
  5.793848E-02
  5.793829E-02
  5.793221E-02
  5.792614E-02
  5.792008E-02
  5.791403E-02
  5.790799E-02
  5.790195E-02
  5.789361E-02
  5.787757E-02
  5.786153E-02
  5.784551E-02
  5.782950E-02
  5.781349E-02
  5.779750E-02
  5.776922E-02
  5.773557E-02
  5.770194E-02
  5.766833E-02
  5.763472E-02
  5.760113E-02
  5.755660E-02
  5.750054E-02
  5.744449E-02
  5.738847E-02
  5.733247E-02
  5.727650E-02
  5.720565E-02
  5.712441E-02
  5.704319E-02
  5.696200E-02
  5.688084E-02
  5.679971E-02
  5.669098E-02
  5.658184E-02
  5.647272E-02
  5.636361E-02
  5.625453E-02
  5.612144E-02
  5.597604E-02
  5.583065E-02
  5.568526E-02
  5.553988E-02
  5.536582E-02
  5.517295E-02
  5.498008E-02
  5.478721E-02
  5.459434E-02
  5.435774E-02
  5.411019E-02
  5.386268E-02
  5.361520E-02
  5.335492E-02
  5.305307E-02
  5.275134E-02
  5.244972E-02
  5.214821E-02
  5.180433E-02
  5.145594E-02
  5.110781E-02
  5.075993E-02
  5.038443E-02
  5.000148E-02
  4.961894E-02
  4.923682E-02
  4.883714E-02
  4.843526E-02
  4.803394E-02
  4.763195E-02
  4.722358E-02
  4.681590E-02
  4.640890E-02
  4.599756E-02
  4.558389E-02
  4.517101E-02
  4.475584E-02
  4.433287E-02
  4.391079E-02
  4.348946E-02
  4.306753E-02
  4.264648E-02
  4.222690E-02
  4.181988E-02
  4.141361E-02
  4.101163E-02
  4.062763E-02
  4.024414E-02
  3.987416E-02
  3.952122E-02
  3.916856E-02
  3.884811E-02
  3.853374E-02
  3.823566E-02
  3.796447E-02
  3.769474E-02
  3.746973E-02
  3.724456E-02
  3.705940E-02
  3.688362E-02
  3.674193E-02
  3.661528E-02
  3.652003E-02
  3.643933E-02
  3.639289E-02
  3.635661E-02
  3.636371E-02
  3.638460E-02
  3.644276E-02
  3.653442E-02
  3.665198E-02
  3.683023E-02
  3.705247E-02
  3.732317E-02
  3.766829E-02
  3.810344E-02
  3.863408E-02
  3.929262E-02
  4.013880E-02
  4.129348E-02
  4.299123E-02
  4.561645E-02
  4.985705E-02
  5.640521E-02
  6.213338E-02
  6.328473E-02
  7.696118E-02
  2.376744E-02
  8.394104E-03
  1.705231E-01
  1.704486E-01
  1.703741E-01
  1.702996E-01
  1.702252E-01
  1.701508E-01
  1.700765E-01
  1.700022E-01
  1.699278E-01
  1.696892E-01
  1.694465E-01
  1.692038E-01
  1.689611E-01
  1.687184E-01
  1.684758E-01
  1.682331E-01
  1.679532E-01
  1.676047E-01
  1.672562E-01
  1.669077E-01
  1.665592E-01
  1.662107E-01
  1.658622E-01
  1.655110E-01
  1.651374E-01
  1.647638E-01
  1.643902E-01
  1.640167E-01
  1.636431E-01
  1.632696E-01
  1.628921E-01
  1.625012E-01
  1.621104E-01
  1.617197E-01
  1.613289E-01
  1.609381E-01
  1.605474E-01
  1.601394E-01
  1.597238E-01
  1.593083E-01
  1.588928E-01
  1.584774E-01
  1.580619E-01
  1.576358E-01
  1.571986E-01
  1.567613E-01
  1.563241E-01
  1.558870E-01
  1.554499E-01
  1.550074E-01
  1.545612E-01
  1.541150E-01
  1.536689E-01
  1.532229E-01
  1.527769E-01
  1.523368E-01
  1.518969E-01
  1.514571E-01
  1.510174E-01
  1.505777E-01
  1.501435E-01
  1.497120E-01
  1.492807E-01
  1.488495E-01
  1.484183E-01
  1.479888E-01
  1.475605E-01
  1.471322E-01
  1.467041E-01
  1.462761E-01
  1.458497E-01
  1.454239E-01
  1.449982E-01
  1.445727E-01
  1.441483E-01
  1.437276E-01
  1.433071E-01
  1.428867E-01
  1.424666E-01
  1.420445E-01
  1.416225E-01
  1.412008E-01
  1.407794E-01
  1.403404E-01
  1.398968E-01
  1.394537E-01
  1.390110E-01
  1.385359E-01
  1.380564E-01
  1.375773E-01
  1.370924E-01
  1.365712E-01
  1.360508E-01
  1.355309E-01
  1.349717E-01
  1.343885E-01
  1.338061E-01
  1.331988E-01
  1.325203E-01
  1.318431E-01
  1.311589E-01
  1.303774E-01
  1.295975E-01
  1.288138E-01
  1.279265E-01
  1.270409E-01
  1.261339E-01
  1.251169E-01
  1.241014E-01
  1.230192E-01
  1.218508E-01
  1.206837E-01
  1.193830E-01
  1.180579E-01
  1.166751E-01
  1.151956E-01
  1.137120E-01
  1.120850E-01
  1.104585E-01
  1.087252E-01
  1.069667E-01
  1.051351E-01
  1.032712E-01
  1.013545E-01
  9.941357E-02
  9.743510E-02
  9.544605E-02
  9.344221E-02
  9.144325E-02
  8.946063E-02
  8.751333E-02
  8.559403E-02
  8.376127E-02
  8.199600E-02
  8.030449E-02
  7.872675E-02
  7.727982E-02
  7.596805E-02
  7.484460E-02
  7.402691E-02
  7.379169E-02
  7.473359E-02
  7.786714E-02
  8.479858E-02
  9.688721E-02
  1.062035E-01
  1.006204E-01
  1.156932E-01
  2.453672E-02
 -1.770111E-09
  9.986960E-01
  9.985637E-01
  9.984315E-01
  9.982993E-01
  9.981672E-01
  9.980352E-01
  9.979032E-01
  9.977713E-01
  9.976394E-01
  9.971011E-01
  9.965528E-01
  9.960046E-01
  9.954564E-01
  9.949083E-01
  9.943602E-01
  9.938121E-01
  9.931101E-01
  9.921254E-01
  9.911408E-01
  9.901562E-01
  9.891716E-01
  9.881871E-01
  9.872026E-01
  9.861873E-01
  9.849247E-01