 Title= "ADflow Lift Distribution Data"
Variables = "eta" "CoordinateX" "CoordinateY" "CoordinateZ" "Lift" "Drag" "Moment" "Normalized Lift" "Normalized Drag" "Normalized Moment" "CL" "CD" "CM" "CLp" "CDp" "CMp" "CLv" "CDv" "CMv" "Elliptical" "thickness" "twist" "chord" "fx" "fy" "fz" 
Zone T= "LiftDist_01 allWalls: : z normal"
 I=          150
 DATAPACKING=BLOCK
  0.000000E+00
  6.711405E-03
  1.342281E-02
  2.013422E-02
  2.684563E-02
  3.355704E-02
  4.026845E-02
  4.697986E-02
  5.369127E-02
  6.040268E-02
  6.711409E-02
  7.382550E-02
  8.053691E-02
  8.724832E-02
  9.395973E-02
  1.006711E-01
  1.073825E-01
  1.140940E-01
  1.208054E-01
  1.275168E-01
  1.342282E-01
  1.409396E-01
  1.476510E-01
  1.543624E-01
  1.610738E-01
  1.677852E-01
  1.744966E-01
  1.812081E-01
  1.879195E-01
  1.946309E-01
  2.013423E-01
  2.080537E-01
  2.147651E-01
  2.214765E-01
  2.281879E-01
  2.348993E-01
  2.416107E-01
  2.483221E-01
  2.550336E-01
  2.617450E-01
  2.684564E-01
  2.751678E-01
  2.818792E-01
  2.885906E-01
  2.953020E-01
  3.020134E-01
  3.087248E-01
  3.154362E-01
  3.221476E-01
  3.288591E-01
  3.355705E-01
  3.422819E-01
  3.489933E-01
  3.557047E-01
  3.624161E-01
  3.691275E-01
  3.758389E-01
  3.825503E-01
  3.892617E-01
  3.959732E-01
  4.026846E-01
  4.093960E-01
  4.161074E-01
  4.228188E-01
  4.295302E-01
  4.362416E-01
  4.429530E-01
  4.496644E-01
  4.563758E-01
  4.630872E-01
  4.697987E-01
  4.765101E-01
  4.832215E-01
  4.899329E-01
  4.966443E-01
  5.033557E-01
  5.100671E-01
  5.167785E-01
  5.234899E-01
  5.302013E-01
  5.369128E-01
  5.436242E-01
  5.503356E-01
  5.570470E-01
  5.637584E-01
  5.704698E-01
  5.771812E-01
  5.838926E-01
  5.906040E-01
  5.973154E-01
  6.040268E-01
  6.107383E-01
  6.174497E-01
  6.241611E-01
  6.308725E-01
  6.375839E-01
  6.442953E-01
  6.510067E-01
  6.577181E-01
  6.644295E-01
  6.711409E-01
  6.778524E-01
  6.845638E-01
  6.912752E-01
  6.979866E-01
  7.046980E-01
  7.114094E-01
  7.181208E-01
  7.248322E-01
  7.315436E-01
  7.382550E-01
  7.449664E-01
  7.516779E-01
  7.583893E-01
  7.651007E-01
  7.718121E-01
  7.785235E-01
  7.852349E-01
  7.919463E-01
  7.986577E-01
  8.053691E-01
  8.120805E-01
  8.187919E-01
  8.255034E-01
  8.322148E-01
  8.389262E-01
  8.456376E-01
  8.523490E-01
  8.590604E-01
  8.657718E-01
  8.724832E-01
  8.791946E-01
  8.859060E-01
  8.926175E-01
  8.993289E-01
  9.060403E-01
  9.127517E-01
  9.194631E-01
  9.261745E-01
  9.328859E-01
  9.395973E-01
  9.463087E-01
  9.530201E-01
  9.597315E-01
  9.664430E-01
  9.731544E-01
  9.798658E-01
  9.865772E-01
  9.932886E-01
  1.000000E+00
  0.000000E+00
  0.000000E+00
  0.000000E+00
  0.000000E+00
  0.000000E+00
  0.000000E+00
  0.000000E+00
  0.000000E+00
  0.000000E+00
  0.000000E+00
  0.000000E+00
  0.000000E+00
  0.000000E+00
  0.000000E+00
  0.000000E+00
  0.000000E+00
  0.000000E+00
  0.000000E+00
  0.000000E+00
  0.000000E+00
  0.000000E+00
  0.000000E+00
  0.000000E+00
  0.000000E+00
  0.000000E+00
  0.000000E+00
  0.000000E+00
  0.000000E+00
  0.000000E+00
  0.000000E+00
  0.000000E+00
  0.000000E+00
  0.000000E+00
  0.000000E+00
  0.000000E+00
  0.000000E+00
  0.000000E+00
  0.000000E+00
  0.000000E+00
  0.000000E+00
  0.000000E+00
  0.000000E+00
  0.000000E+00
  0.000000E+00
  0.000000E+00
  0.000000E+00
  0.000000E+00
  0.000000E+00
  0.000000E+00
  0.000000E+00
  0.000000E+00
  0.000000E+00
  0.000000E+00
  0.000000E+00
  0.000000E+00
  0.000000E+00
  0.000000E+00
  0.000000E+00
  0.000000E+00
  0.000000E+00
  0.000000E+00
  0.000000E+00
  0.000000E+00
  0.000000E+00
  0.000000E+00
  0.000000E+00
  0.000000E+00
  0.000000E+00
  0.000000E+00
  0.000000E+00
  0.000000E+00
  0.000000E+00
  0.000000E+00
  0.000000E+00
  0.000000E+00
  0.000000E+00
  0.000000E+00
  0.000000E+00
  0.000000E+00
  0.000000E+00
  0.000000E+00
  0.000000E+00
  0.000000E+00
  0.000000E+00
  0.000000E+00
  0.000000E+00
  0.000000E+00
  0.000000E+00
  0.000000E+00
  0.000000E+00
  0.000000E+00
  0.000000E+00
  0.000000E+00
  0.000000E+00
  0.000000E+00
  0.000000E+00
  0.000000E+00
  0.000000E+00
  0.000000E+00
  0.000000E+00
  0.000000E+00
  0.000000E+00
  0.000000E+00
  0.000000E+00
  0.000000E+00
  0.000000E+00
  0.000000E+00
  0.000000E+00
  0.000000E+00
  0.000000E+00
  0.000000E+00
  0.000000E+00
  0.000000E+00
  0.000000E+00
  0.000000E+00
  0.000000E+00
  0.000000E+00
  0.000000E+00
  0.000000E+00
  0.000000E+00
  0.000000E+00
  0.000000E+00
  0.000000E+00
  0.000000E+00
  0.000000E+00
  0.000000E+00
  0.000000E+00
  0.000000E+00
  0.000000E+00
  0.000000E+00
  0.000000E+00
  0.000000E+00
  0.000000E+00
  0.000000E+00
  0.000000E+00
  0.000000E+00
  0.000000E+00
  0.000000E+00
  0.000000E+00
  0.000000E+00
  0.000000E+00
  0.000000E+00
  0.000000E+00
  0.000000E+00
  0.000000E+00
  0.000000E+00
  0.000000E+00
  0.000000E+00
  0.000000E+00
  0.000000E+00
  0.000000E+00
  0.000000E+00
  0.000000E+00
  0.000000E+00
  0.000000E+00
  0.000000E+00
  0.000000E+00
  0.000000E+00
  0.000000E+00
  0.000000E+00
  0.000000E+00
  0.000000E+00
  0.000000E+00
  0.000000E+00
  0.000000E+00
  0.000000E+00
  0.000000E+00
  0.000000E+00
  0.000000E+00
  0.000000E+00
  0.000000E+00
  0.000000E+00
  0.000000E+00
  0.000000E+00
  0.000000E+00
  0.000000E+00
  0.000000E+00
  0.000000E+00
  0.000000E+00
  0.000000E+00
  0.000000E+00
  0.000000E+00
  0.000000E+00
  0.000000E+00
  0.000000E+00
  0.000000E+00
  0.000000E+00
  0.000000E+00
  0.000000E+00
  0.000000E+00
  0.000000E+00
  0.000000E+00
  0.000000E+00
  0.000000E+00
  0.000000E+00
  0.000000E+00
  0.000000E+00
  0.000000E+00
  0.000000E+00
  0.000000E+00
  0.000000E+00
  0.000000E+00
  0.000000E+00
  0.000000E+00
  0.000000E+00
  0.000000E+00
  0.000000E+00
  0.000000E+00
  0.000000E+00
  0.000000E+00
  0.000000E+00
  0.000000E+00
  0.000000E+00
  0.000000E+00
  0.000000E+00
  0.000000E+00
  0.000000E+00
  0.000000E+00
  0.000000E+00
  0.000000E+00
  0.000000E+00
  0.000000E+00
  0.000000E+00
  0.000000E+00
  0.000000E+00
  0.000000E+00
  0.000000E+00
  0.000000E+00
  0.000000E+00
  0.000000E+00
  0.000000E+00
  0.000000E+00
  0.000000E+00
  0.000000E+00
  0.000000E+00
  0.000000E+00
  0.000000E+00
  0.000000E+00
  0.000000E+00
  0.000000E+00
  0.000000E+00
  0.000000E+00
  0.000000E+00
  0.000000E+00
  0.000000E+00
  0.000000E+00
  0.000000E+00
  0.000000E+00
  0.000000E+00
  0.000000E+00
  0.000000E+00
  0.000000E+00
  0.000000E+00
  0.000000E+00
  0.000000E+00
  0.000000E+00
  0.000000E+00
  0.000000E+00
  0.000000E+00
  0.000000E+00
  0.000000E+00
  0.000000E+00
  0.000000E+00
  0.000000E+00
  0.000000E+00
  0.000000E+00
  0.000000E+00
  0.000000E+00
  0.000000E+00
  0.000000E+00
  0.000000E+00
  0.000000E+00
  0.000000E+00
  0.000000E+00
  0.000000E+00
  0.000000E+00
  0.000000E+00
  0.000000E+00
  0.000000E+00
  0.000000E+00
  0.000000E+00
  0.000000E+00
  0.000000E+00
  0.000000E+00
  0.000000E+00
  0.000000E+00
  0.000000E+00
  0.000000E+00
  0.000000E+00
  0.000000E+00
  0.000000E+00
  0.000000E+00
  0.000000E+00
  0.000000E+00
  0.000000E+00
  0.000000E+00
  0.000000E+00
  0.000000E+00
  0.000000E+00
  0.000000E+00
  1.000000E-08
  1.695085E-02
  3.390169E-02
  5.085254E-02
  6.780338E-02
  8.475423E-02
  1.017051E-01
  1.186559E-01
  1.356068E-01
  1.525576E-01
  1.695085E-01
  1.864593E-01
  2.034101E-01
  2.203610E-01
  2.373118E-01
  2.542627E-01
  2.712135E-01
  2.881644E-01
  3.051152E-01
  3.220661E-01
  3.390169E-01
  3.559678E-01
  3.729186E-01
  3.898694E-01
  4.068203E-01
  4.237711E-01
  4.407220E-01
  4.576728E-01
  4.746237E-01
  4.915745E-01
  5.085254E-01
  5.254762E-01
  5.424271E-01
  5.593779E-01
  5.763287E-01
  5.932796E-01
  6.102304E-01
  6.271813E-01
  6.441321E-01
  6.610830E-01
  6.780338E-01
  6.949847E-01
  7.119355E-01
  7.288864E-01
  7.458372E-01
  7.627880E-01
  7.797389E-01
  7.966897E-01
  8.136406E-01
  8.305914E-01
  8.475423E-01
  8.644931E-01
  8.814440E-01
  8.983948E-01
  9.153457E-01
  9.322965E-01
  9.492473E-01
  9.661982E-01
  9.831490E-01
  1.000100E+00
  1.017051E+00
  1.034002E+00
  1.050952E+00
  1.067903E+00
  1.084854E+00
  1.101805E+00
  1.118756E+00
  1.135707E+00
  1.152657E+00
  1.169608E+00
  1.186559E+00
  1.203510E+00
  1.220461E+00
  1.237412E+00
  1.254363E+00
  1.271313E+00
  1.288264E+00
  1.305215E+00
  1.322166E+00
  1.339117E+00
  1.356068E+00
  1.373018E+00
  1.389969E+00
  1.406920E+00
  1.423871E+00
  1.440822E+00
  1.457773E+00
  1.474724E+00
  1.491674E+00
  1.508625E+00
  1.525576E+00
  1.542527E+00
  1.559478E+00
  1.576429E+00
  1.593379E+00
  1.610330E+00
  1.627281E+00
  1.644232E+00
  1.661183E+00
  1.678134E+00
  1.695085E+00
  1.712035E+00
  1.728986E+00
  1.745937E+00
  1.762888E+00
  1.779839E+00
  1.796790E+00
  1.813740E+00
  1.830691E+00
  1.847642E+00
  1.864593E+00
  1.881544E+00
  1.898495E+00
  1.915446E+00
  1.932396E+00
  1.949347E+00
  1.966298E+00
  1.983249E+00
  2.000200E+00
  2.017151E+00
  2.034101E+00
  2.051052E+00
  2.068003E+00
  2.084954E+00
  2.101905E+00
  2.118856E+00
  2.135807E+00
  2.152757E+00
  2.169708E+00
  2.186659E+00
  2.203610E+00
  2.220561E+00
  2.237512E+00
  2.254462E+00
  2.271413E+00
  2.288364E+00
  2.305315E+00
  2.322266E+00
  2.339217E+00
  2.356168E+00
  2.373118E+00
  2.390069E+00
  2.407020E+00
  2.423971E+00
  2.440922E+00
  2.457873E+00
  2.474823E+00
  2.491774E+00
  2.508725E+00
  2.525676E+00
  1.106789E+04
  1.106599E+04
  1.106409E+04
  1.106219E+04
  1.106029E+04
  1.105839E+04
  1.105649E+04
  1.105459E+04
  1.105269E+04
  1.104692E+04
  1.104105E+04
  1.103518E+04
  1.102932E+04
  1.102345E+04
  1.101758E+04
  1.101172E+04
  1.100459E+04
  1.099516E+04
  1.098573E+04
  1.097629E+04
  1.096686E+04
  1.095743E+04
  1.094800E+04
  1.093822E+04
  1.092566E+04
  1.091310E+04
  1.090054E+04
  1.088798E+04
  1.087543E+04
  1.086287E+04
  1.084956E+04
  1.083376E+04
  1.081795E+04
  1.080215E+04
  1.078634E+04
  1.077054E+04
  1.075474E+04
  1.073663E+04
  1.071751E+04
  1.069839E+04
  1.067927E+04
  1.066016E+04
  1.064104E+04
  1.062036E+04
  1.059804E+04
  1.057571E+04
  1.055338E+04
  1.053106E+04
  1.050874E+04
  1.048456E+04
  1.045908E+04
  1.043360E+04
  1.040812E+04
  1.038264E+04
  1.035717E+04
  1.032859E+04
  1.029997E+04
  1.027135E+04
  1.024273E+04
  1.021412E+04
  1.018345E+04
  1.015173E+04
  1.012001E+04
  1.008830E+04
  1.005659E+04
  1.002294E+04
  9.988028E+03
  9.953119E+03
  9.918213E+03
  9.883311E+03
  9.845601E+03
  9.807187E+03
  9.768777E+03
  9.730370E+03
  9.691071E+03
  9.648865E+03
  9.606662E+03
  9.564460E+03
  9.522260E+03
  9.476534E+03
  9.430415E+03
  9.384297E+03
  9.338180E+03
  9.289033E+03
  9.239034E+03
  9.189037E+03
  9.139040E+03
  9.086021E+03
  9.032540E+03
  8.979060E+03
  8.925147E+03
  8.868764E+03
  8.812384E+03
  8.756008E+03
  8.698002E+03
  8.638994E+03
  8.579997E+03
  8.520334E+03
  8.458792E+03
  8.397275E+03
  8.335609E+03
  8.271860E+03
  8.208150E+03
  8.144360E+03
  8.078231E+03
  8.012150E+03
  7.945551E+03
  7.876269E+03
  7.807036E+03
  7.736109E+03
  7.662995E+03
  7.589925E+03
  7.513259E+03
  7.435947E+03
  7.357007E+03
  7.275332E+03
  7.193541E+03
  7.107522E+03
  7.021524E+03
  6.932065E+03
  6.841791E+03
  6.748591E+03
  6.654098E+03
  6.556746E+03
  6.458076E+03
  6.356283E+03
  6.253594E+03
  6.147309E+03
  6.040077E+03
  5.930270E+03
  5.818603E+03
  5.705574E+03
  5.589811E+03
  5.472425E+03
  5.353320E+03
  5.231750E+03
  5.107524E+03
  4.980964E+03
  4.852235E+03
  4.722596E+03
  4.596306E+03
  4.483651E+03
  4.402260E+03
  4.387287E+03
  4.475939E+03
  4.437913E+03
  3.998426E+03
  4.497045E+03
  1.339657E+03
 -1.089149E-04
  6.302734E+02
  6.302364E+02
  6.301994E+02
  6.301624E+02
  6.301255E+02
  6.300886E+02
  6.300517E+02
  6.300148E+02
  6.299780E+02
  6.298655E+02
  6.297512E+02
  6.296369E+02
  6.295226E+02
  6.294084E+02
  6.292942E+02
  6.291800E+02
  6.290502E+02
  6.288916E+02
  6.287331E+02
  6.285746E+02
  6.284161E+02
  6.282576E+02
  6.280991E+02
  6.279357E+02
  6.277329E+02
  6.275300E+02
  6.273272E+02
  6.271243E+02
  6.269215E+02
  6.267186E+02
  6.264919E+02
  6.261859E+02
  6.258799E+02
  6.255738E+02
  6.252678E+02
  6.249617E+02
  6.246556E+02
  6.242699E+02
  6.238494E+02
  6.234288E+02
  6.230082E+02
  6.225875E+02
  6.221668E+02
  6.216816E+02
  6.211284E+02
  6.205750E+02
  6.200216E+02
  6.194680E+02
  6.189144E+02
  6.182400E+02
  6.174808E+02
  6.167215E+02
  6.159621E+02
  6.152026E+02
  6.144429E+02
  6.134125E+02
  6.123777E+02
  6.113427E+02
  6.103077E+02
  6.092725E+02
  6.080630E+02
  6.067641E+02
  6.054650E+02
  6.041658E+02
  6.028665E+02
  6.014397E+02
  5.999291E+02
  5.984183E+02
  5.969073E+02
  5.953960E+02
  5.937792E+02
  5.921356E+02
  5.904917E+02
  5.888474E+02
  5.872027E+02
  5.855573E+02
  5.839115E+02
  5.822653E+02
  5.806186E+02
  5.789729E+02
  5.773270E+02
  5.756809E+02
  5.740346E+02
  5.722311E+02
  5.703831E+02
  5.685349E+02
  5.666865E+02
  5.645023E+02
  5.622664E+02
  5.600302E+02
  5.577185E+02
  5.549787E+02
  5.522393E+02
  5.495002E+02
  5.462928E+02
  5.427977E+02
  5.393052E+02
  5.355712E+02
  5.311584E+02
  5.267525E+02
  5.223034E+02
  5.172502E+02
  5.122081E+02
  5.071645E+02
  5.018840E+02
  4.966161E+02
  4.913599E+02
  4.861136E+02
  4.808784E+02
  4.757474E+02
  4.707450E+02
  4.657506E+02
  4.610985E+02
  4.565139E+02
  4.521276E+02
  4.480654E+02
  4.440237E+02
  4.405478E+02
  4.370704E+02
  4.341005E+02
  4.312493E+02
  4.288232E+02
  4.265835E+02
  4.247258E+02
  4.230435E+02
  4.217718E+02
  4.206194E+02
  4.199854E+02
  4.195135E+02
  4.194857E+02
  4.198572E+02
  4.205356E+02
  4.219426E+02
  4.238769E+02
  4.263928E+02
  4.298068E+02
  4.343086E+02
  4.399633E+02
  4.471643E+02
  4.566348E+02
  4.698311E+02
  4.895684E+02
  5.204630E+02
  5.706425E+02
  6.480623E+02
  7.163155E+02
  7.295238E+02
  8.815355E+02
  2.106834E+02
  3.891004E-04
  1.814485E+03
  1.813753E+03
  1.813021E+03
  1.812289E+03
  1.811558E+03
  1.810826E+03
  1.810094E+03
  1.809362E+03
  1.808631E+03
  1.806812E+03
  1.804966E+03
  1.803120E+03
  1.801274E+03
  1.799428E+03
  1.797583E+03
  1.795737E+03
  1.793691E+03
  1.791279E+03
  1.788867E+03
  1.786455E+03
  1.784043E+03
  1.781631E+03
  1.779219E+03
  1.776747E+03
  1.773788E+03
  1.770829E+03
  1.767870E+03
  1.764911E+03
  1.761952E+03
  1.758994E+03
  1.755893E+03
  1.752318E+03
  1.748744E+03
  1.745170E+03
  1.741596E+03
  1.738022E+03
  1.734448E+03
  1.730462E+03
  1.726297E+03
  1.722131E+03
  1.717965E+03
  1.713800E+03
  1.709635E+03
  1.705216E+03
  1.700531E+03
  1.695846E+03
  1.691161E+03
  1.686476E+03
  1.681792E+03
  1.676848E+03
  1.671723E+03
  1.666599E+03
  1.661475E+03
  1.656352E+03
  1.651229E+03
  1.645782E+03
  1.640332E+03
  1.634882E+03
  1.629433E+03
  1.623984E+03
  1.618378E+03
  1.612692E+03
  1.607006E+03
  1.601322E+03
  1.595638E+03
  1.589779E+03
  1.583805E+03
  1.577833E+03
  1.571860E+03
  1.565889E+03
  1.559648E+03
  1.553339E+03
  1.547032E+03
  1.540724E+03
  1.534385E+03
  1.527939E+03
  1.521493E+03
  1.515048E+03
  1.508603E+03
  1.502136E+03
  1.495667E+03
  1.489198E+03
  1.482730E+03
  1.476087E+03
  1.469396E+03
  1.462705E+03
  1.456014E+03
  1.449175E+03
  1.442314E+03
  1.435454E+03
  1.428619E+03
  1.421932E+03
  1.415245E+03
  1.408561E+03
  1.401926E+03
  1.395325E+03
  1.388728E+03
  1.382033E+03
  1.375058E+03
  1.368094E+03
  1.361104E+03
  1.353683E+03
  1.346279E+03
  1.338868E+03
  1.330977E+03
  1.323108E+03
  1.315089E+03
  1.306259E+03
  1.297451E+03
  1.288011E+03
  1.277753E+03
  1.267516E+03
  1.255857E+03
  1.243943E+03
  1.231380E+03
  1.217724E+03
  1.204022E+03
  1.188641E+03
  1.173267E+03
  1.156617E+03
  1.139664E+03
  1.121812E+03
  1.103562E+03
  1.084643E+03
  1.065415E+03
  1.045700E+03
  1.025845E+03
  1.005767E+03
  9.857318E+02
  9.658514E+02
  9.463565E+02
  9.271687E+02
  9.089533E+02
  8.915059E+02
  8.749002E+02
  8.595995E+02
  8.458096E+02
  8.335921E+02
  8.235830E+02
  8.171828E+02
  8.176494E+02
  8.320414E+02
  8.722268E+02
  9.566517E+02
  1.099758E+03
  1.209125E+03
  1.141305E+03
  1.294219E+03
  2.071917E+02
 -7.835452E-11
  1.245460E+00
  1.245246E+00
  1.245032E+00
  1.244818E+00
  1.244604E+00
  1.244390E+00
  1.244176E+00
  1.243962E+00
  1.243748E+00
  1.243099E+00
  1.242439E+00
  1.241779E+00
  1.241118E+00
  1.240458E+00
  1.239798E+00
  1.239138E+00
  1.238336E+00
  1.237275E+00
  1.236213E+00
  1.235152E+00
  1.234090E+00
  1.233029E+00
  1.231968E+00
  1.230867E+00
  1.229454E+00
  1.228041E+00
  1.226627E+00
  1.225214E+00
  1.223801E+00
  1.222388E+00
  1.220891E+00
  1.219112E+00
  1.217334E+00
  1.215555E+00
  1.213777E+00
  1.211998E+00
  1.210220E+00
  1.208182E+00
  1.206031E+00
  1.203880E+00
  1.201728E+00
  1.199577E+00
  1.197426E+00
  1.195099E+00
  1.192587E+00
  1.190074E+00
  1.187562E+00
  1.185050E+00
  1.182538E+00
  1.179817E+00
  1.176950E+00
  1.174083E+00
  1.171216E+00
  1.168349E+00
  1.165483E+00
  1.162267E+00
  1.159046E+00
  1.155825E+00
  1.152605E+00
  1.149385E+00
  1.145934E+00
  1.142364E+00
  1.138795E+00
  1.135226E+00
  1.131658E+00
  1.127872E+00
  1.123943E+00
  1.120015E+00
  1.116087E+00
  1.112160E+00
  1.107916E+00
  1.103593E+00
  1.099271E+00
  1.094949E+00
  1.090527E+00
  1.085778E+00
  1.081028E+00
  1.076280E+00
  1.071531E+00
  1.066385E+00
  1.061196E+00
  1.056006E+00
  1.050816E+00
  1.045286E+00
  1.039660E+00
  1.034034E+00
  1.028407E+00
  1.022441E+00
  1.016423E+00
  1.010405E+00
  1.004338E+00
  9.979935E-01
  9.916491E-01
  9.853052E-01
  9.787779E-01
  9.721378E-01
  9.654989E-01
  9.587850E-01
  9.518598E-01
  9.449374E-01
  9.379981E-01
  9.308245E-01
  9.236553E-01
  9.164770E-01
  9.090356E-01
  9.015995E-01
  8.941053E-01
  8.863091E-01
  8.785183E-01
  8.705369E-01
  8.623095E-01
  8.540870E-01
  8.454598E-01
  8.367600E-01
  8.278769E-01
  8.186862E-01
  8.094823E-01
  7.998026E-01
  7.901253E-01
  7.800587E-01
  7.699003E-01
  7.594125E-01
  7.487793E-01
  7.378243E-01
  7.267211E-01
  7.152665E-01
  7.037109E-01
  6.917508E-01
  6.796841E-01
  6.673276E-01
  6.547618E-01
  6.420428E-01
  6.290161E-01
  6.158067E-01
  6.024040E-01
  5.887239E-01
  5.747448E-01
  5.605031E-01
  5.460173E-01
  5.314292E-01
  5.172179E-01
  5.045410E-01
  4.953821E-01
  4.936973E-01
  5.036732E-01
  4.993941E-01
  4.499390E-01
  5.060482E-01
  1.507503E-01
 -1.225609E-08
  1.125293E+00
  1.125227E+00
  1.125161E+00
  1.125095E+00
  1.125029E+00
  1.124963E+00
  1.124897E+00
  1.124832E+00
  1.124766E+00
  1.124565E+00
  1.124361E+00
  1.124157E+00
  1.123953E+00
  1.123749E+00
  1.123545E+00
  1.123341E+00
  1.123109E+00
  1.122826E+00
  1.122543E+00
  1.122260E+00
  1.121977E+00
  1.121694E+00
  1.121411E+00
  1.121120E+00
  1.120757E+00
  1.120395E+00
  1.120033E+00
  1.119671E+00
  1.119309E+00
  1.118946E+00
  1.118542E+00
  1.117995E+00
  1.117449E+00
  1.116903E+00
  1.116356E+00
  1.115810E+00
  1.115263E+00
  1.114575E+00
  1.113824E+00
  1.113073E+00
  1.112322E+00
  1.111571E+00
  1.110820E+00
  1.109953E+00
  1.108966E+00
  1.107978E+00
  1.106989E+00
  1.106001E+00
  1.105013E+00
  1.103809E+00
  1.102453E+00
  1.101098E+00
  1.099742E+00
  1.098386E+00
  1.097029E+00
  1.095190E+00
  1.093342E+00
  1.091494E+00
  1.089646E+00
  1.087798E+00
  1.085639E+00
  1.083320E+00
  1.081000E+00
  1.078681E+00
  1.076361E+00
  1.073813E+00
  1.071116E+00
  1.068419E+00
  1.065721E+00
  1.063023E+00
  1.060136E+00
  1.057202E+00
  1.054267E+00
  1.051331E+00
  1.048395E+00
  1.045457E+00
  1.042518E+00
  1.039579E+00
  1.036639E+00
  1.033701E+00
  1.030762E+00
  1.027824E+00
  1.024884E+00
  1.021664E+00
  1.018365E+00
  1.015065E+00
  1.011765E+00
  1.007865E+00
  1.003873E+00
  9.998806E-01
  9.957532E-01
  9.908616E-01
  9.859706E-01
  9.810803E-01
  9.753538E-01
  9.691136E-01
  9.628780E-01
  9.562114E-01
  9.483328E-01
  9.404665E-01
  9.325230E-01
  9.235010E-01
  9.144988E-01
  9.054940E-01
  8.960662E-01
  8.866607E-01
  8.772763E-01
  8.679096E-01
  8.585627E-01
  8.494017E-01
  8.404704E-01
  8.315534E-01
  8.232474E-01
  8.150621E-01
  8.072307E-01
  7.999781E-01
  7.927620E-01
  7.865561E-01
  7.803476E-01
  7.750452E-01
  7.699546E-01
  7.656229E-01
  7.616243E-01
  7.583075E-01
  7.553039E-01
  7.530334E-01
  7.509759E-01
  7.498439E-01
  7.490014E-01
  7.489518E-01
  7.496151E-01
  7.508263E-01
  7.533383E-01
  7.567918E-01
  7.612837E-01
  7.673791E-01
  7.754167E-01
  7.855126E-01
  7.983693E-01
  8.152781E-01
  8.388387E-01
  8.740778E-01
  9.292372E-01
  1.018828E+00
  1.157054E+00
  1.278913E+00
  1.302495E+00
  1.573898E+00
  3.761552E-01
  6.947018E-07
  1.247033E+00
  1.246530E+00
  1.246027E+00
  1.245524E+00
  1.245021E+00
  1.244518E+00
  1.244016E+00
  1.243513E+00
  1.243010E+00
  1.241760E+00
  1.240491E+00
  1.239222E+00
  1.237954E+00
  1.236685E+00
  1.235417E+00
  1.234148E+00
  1.232743E+00
  1.231085E+00
  1.229427E+00
  1.227769E+00
  1.226112E+00
  1.224454E+00
  1.222796E+00
  1.221097E+00
  1.219063E+00
  1.217030E+00
  1.214996E+00
  1.212963E+00
  1.210929E+00
  1.208896E+00
  1.206765E+00
  1.204308E+00
  1.201852E+00
  1.199395E+00
  1.196939E+00
  1.194483E+00
  1.192027E+00
  1.189288E+00
  1.186424E+00
  1.183561E+00
  1.180699E+00
  1.177836E+00
  1.174973E+00
  1.171937E+00
  1.168717E+00
  1.165497E+00
  1.162277E+00
  1.159057E+00
  1.155838E+00
  1.152440E+00
  1.148918E+00
  1.145396E+00
  1.141875E+00
  1.138354E+00
  1.134833E+00
  1.131090E+00
  1.127344E+00
  1.123598E+00
  1.119853E+00
  1.116109E+00
  1.112256E+00
  1.108348E+00
  1.104440E+00
  1.100534E+00
  1.096628E+00
  1.092601E+00
  1.088495E+00
  1.084390E+00
  1.080286E+00
  1.076182E+00
  1.071893E+00
  1.067557E+00
  1.063222E+00
  1.058887E+00
  1.054530E+00
  1.050100E+00
  1.045670E+00
  1.041240E+00
  1.036811E+00
  1.032366E+00
  1.027921E+00
  1.023475E+00
  1.019029E+00
  1.014464E+00
  1.009865E+00
  1.005267E+00
  1.000669E+00
  9.959684E-01
  9.912530E-01
  9.865380E-01
  9.818410E-01
  9.772448E-01
  9.726497E-01
  9.680556E-01
  9.634958E-01
  9.589589E-01
  9.544250E-01
  9.498236E-01
  9.450303E-01
  9.402440E-01
  9.354398E-01
  9.303396E-01
  9.252514E-01
  9.201578E-01
  9.147349E-01
  9.093269E-01
  9.038155E-01
  8.977467E-01
  8.916933E-01
  8.852057E-01
  8.781560E-01
  8.711200E-01
  8.631071E-01
  8.549196E-01
  8.462854E-01
  8.369001E-01
  8.274828E-01
  8.169124E-01
  8.063464E-01
  7.949034E-01
  7.832522E-01
  7.709830E-01
  7.584401E-01
  7.454376E-01
  7.322235E-01
  7.186735E-01
  7.050280E-01
  6.912291E-01
  6.774597E-01
  6.637966E-01
  6.503984E-01
  6.372112E-01
  6.246924E-01
  6.127014E-01
  6.012889E-01
  5.907733E-01
  5.812959E-01
  5.728993E-01
  5.660204E-01
  5.616217E-01
  5.619424E-01
  5.718335E-01
  5.994516E-01
  6.574739E-01
  7.558257E-01
  8.309898E-01
  7.843799E-01
  8.894724E-01
  1.423957E-01
 -5.385037E-14
  9.896399E-01
  9.894699E-01
  9.892999E-01
  9.891300E-01
  9.889601E-01
  9.887902E-01
  9.886202E-01
  9.884504E-01
  9.882805E-01
  9.877645E-01
  9.872400E-01
  9.867155E-01
  9.861910E-01
  9.856665E-01
  9.851420E-01
  9.846176E-01
  9.839806E-01
  9.831372E-01
  9.822937E-01
  9.814503E-01
  9.806070E-01
  9.797636E-01
  9.789203E-01
  9.780459E-01
  9.769230E-01
  9.758001E-01
  9.746773E-01
  9.735545E-01
  9.724317E-01
  9.713090E-01
  9.701191E-01
  9.687059E-01
  9.672927E-01
  9.658796E-01
  9.644666E-01
  9.630536E-01
  9.616406E-01
  9.600214E-01
  9.583120E-01
  9.566026E-01
  9.548933E-01
  9.531841E-01
  9.514749E-01
  9.496260E-01
  9.476295E-01
  9.456332E-01
  9.436371E-01
  9.416410E-01
  9.396451E-01
  9.374830E-01
  9.352046E-01
  9.329264E-01
  9.306484E-01
  9.283706E-01
  9.260929E-01
  9.235376E-01
  9.209783E-01
  9.184191E-01
  9.158603E-01
  9.133017E-01
  9.105593E-01
  9.077229E-01
  9.048868E-01
  9.020510E-01
  8.992156E-01
  8.962071E-01
  8.930853E-01
  8.899638E-01
  8.868427E-01
  8.837218E-01
  8.803498E-01
  8.769150E-01
  8.734805E-01
  8.700463E-01
  8.665322E-01
  8.627584E-01
  8.589848E-01
  8.552113E-01
  8.514379E-01
  8.473494E-01
  8.432257E-01
  8.391020E-01
  8.349785E-01
  8.305841E-01
  8.261134E-01
  8.216428E-01
  8.171724E-01
  8.124316E-01
  8.076495E-01
  8.028675E-01
  7.980468E-01
  7.930050E-01
  7.879635E-01
  7.829224E-01
  7.777353E-01
  7.724585E-01
  7.671826E-01
  7.618469E-01
  7.563429E-01
  7.508408E-01
  7.453253E-01
  7.396229E-01
  7.339237E-01
  7.282171E-01
  7.223011E-01
  7.163889E-01
  7.104304E-01
  7.042318E-01
  6.980373E-01
  6.916914E-01
  6.851503E-01
  6.786128E-01
  6.717546E-01
  6.648387E-01
  6.577775E-01
  6.504726E-01
  6.431572E-01
  6.354651E-01
  6.277749E-01
  6.197764E-01
  6.117052E-01
  6.033732E-01
  5.949260E-01
  5.862239E-01
  5.774042E-01
  5.683060E-01
  5.591275E-01
  5.496283E-01
  5.400441E-01
  5.302299E-01
  5.202494E-01
  5.101469E-01
  4.997998E-01
  4.893072E-01
  4.786607E-01
  4.677933E-01
  4.566879E-01
  4.453735E-01
  4.338645E-01
  4.222737E-01
  4.109817E-01
  4.009079E-01
  3.936291E-01
  3.922885E-01
  4.002128E-01
  3.968095E-01
  3.575099E-01
  4.020881E-01
  1.645286E-01
 -2.369026E-03
  5.635613E-02
  5.635283E-02
  5.634952E-02
  5.634622E-02
  5.634292E-02
  5.633962E-02
  5.633632E-02
  5.633303E-02
  5.632974E-02
  5.631968E-02
  5.630946E-02
  5.629925E-02
  5.628903E-02
  5.627882E-02
  5.626861E-02
  5.625841E-02
  5.624680E-02
  5.623263E-02
  5.621846E-02
  5.620429E-02
  5.619012E-02
  5.617595E-02
  5.616178E-02
  5.614718E-02
  5.612904E-02
  5.611091E-02
  5.609277E-02
  5.607464E-02
  5.605650E-02
  5.603837E-02
  5.601810E-02
  5.599074E-02
  5.596338E-02
  5.593602E-02
  5.590865E-02
  5.588129E-02
  5.585392E-02
  5.581944E-02
  5.578184E-02
  5.574424E-02
  5.570663E-02
  5.566902E-02
  5.563141E-02
  5.558802E-02
  5.553856E-02
  5.548908E-02
  5.543960E-02
  5.539011E-02
  5.534061E-02
  5.528030E-02
  5.521242E-02
  5.514453E-02
  5.507663E-02
  5.500872E-02
  5.494079E-02
  5.484866E-02
  5.475613E-02
  5.466358E-02
  5.457103E-02
  5.447847E-02
  5.437032E-02
  5.425418E-02
  5.413802E-02
  5.402185E-02
  5.390566E-02
  5.377808E-02
  5.364301E-02
  5.350791E-02
  5.337280E-02
  5.323766E-02
  5.309309E-02
  5.294613E-02
  5.279914E-02
  5.265211E-02
  5.250504E-02
  5.235792E-02
  5.221076E-02
  5.206356E-02
  5.191633E-02
  5.176917E-02
  5.162201E-02
  5.147483E-02
  5.132762E-02
  5.116636E-02
  5.100112E-02
  5.083587E-02
  5.067059E-02
  5.047529E-02
  5.027536E-02
  5.007540E-02
  4.986869E-02
  4.962370E-02
  4.937874E-02
  4.913381E-02
  4.884699E-02
  4.853444E-02
  4.822211E-02
  4.788818E-02
  4.749353E-02
  4.709948E-02
  4.670156E-02
  4.624958E-02
  4.579859E-02
  4.534744E-02
  4.487509E-02
  4.440384E-02
  4.393364E-02
  4.346431E-02
  4.299597E-02
  4.253694E-02
  4.208943E-02
  4.164262E-02
  4.122645E-02
  4.081633E-02
  4.042396E-02
  4.006061E-02
  3.969909E-02
  3.938824E-02
  3.907725E-02
  3.881170E-02
  3.855678E-02
  3.833991E-02
  3.813975E-02
  3.797378E-02
  3.782351E-02
  3.771000E-02
  3.760716E-02
  3.755071E-02
  3.750876E-02
  3.750654E-02
  3.754002E-02
  3.760094E-02
  3.772700E-02
  3.790020E-02
  3.812539E-02
  3.843088E-02
  3.883360E-02
  3.933937E-02
  3.998338E-02
  4.083028E-02
  4.201025E-02
  4.377501E-02
  4.653732E-02
  5.102390E-02
  5.794602E-02
  6.404831E-02
  6.522867E-02
  7.881952E-02
  2.587488E-02
  8.463391E-03
  1.622429E-01
  1.621774E-01
  1.621120E-01
  1.620466E-01
  1.619811E-01
  1.619157E-01
  1.618503E-01
  1.617849E-01
  1.617194E-01
  1.615568E-01
  1.613918E-01
  1.612267E-01
  1.610617E-01
  1.608967E-01
  1.607316E-01
  1.605666E-01
  1.603837E-01
  1.601680E-01
  1.599524E-01
  1.597367E-01
  1.595211E-01
  1.593054E-01
  1.590897E-01
  1.588687E-01
  1.586041E-01
  1.583395E-01
  1.580750E-01
  1.578104E-01
  1.575459E-01
  1.572813E-01
  1.570040E-01
  1.566844E-01
  1.563649E-01
  1.560453E-01
  1.557257E-01
  1.554062E-01
  1.550866E-01
  1.547303E-01
  1.543578E-01
  1.539853E-01
  1.536128E-01
  1.532404E-01
  1.528680E-01
  1.524729E-01
  1.520540E-01
  1.516350E-01
  1.512162E-01
  1.507973E-01
  1.503784E-01
  1.499364E-01
  1.494782E-01
  1.490200E-01
  1.485618E-01
  1.481037E-01
  1.476456E-01
  1.471586E-01
  1.466713E-01
  1.461840E-01
  1.456967E-01
  1.452095E-01
  1.447083E-01
  1.441998E-01
  1.436914E-01
  1.431832E-01
  1.426749E-01
  1.421510E-01
  1.416169E-01
  1.410828E-01
  1.405488E-01
  1.400149E-01
  1.394568E-01
  1.388927E-01
  1.383287E-01
  1.377647E-01
  1.371978E-01
  1.366215E-01
  1.360451E-01
  1.354688E-01
  1.348925E-01
  1.343143E-01
  1.337359E-01
  1.331575E-01
  1.325791E-01
  1.319851E-01
  1.313868E-01
  1.307886E-01
  1.301903E-01
  1.295788E-01
  1.289653E-01
  1.283519E-01
  1.277407E-01
  1.271427E-01
  1.265449E-01
  1.259471E-01
  1.253538E-01
  1.247634E-01
  1.241734E-01
  1.235747E-01
  1.229508E-01
  1.223279E-01
  1.217026E-01
  1.210386E-01
  1.203762E-01
  1.197131E-01
  1.190070E-01
  1.183028E-01
  1.175852E-01
  1.167950E-01
  1.160068E-01
  1.151620E-01
  1.142442E-01
  1.133282E-01
  1.122851E-01
  1.112194E-01
  1.100956E-01
  1.088742E-01
  1.076487E-01
  1.062733E-01
  1.048986E-01
  1.034099E-01
  1.018942E-01
  1.002982E-01
  9.866664E-02
  9.697545E-02
  9.525675E-02
  9.349447E-02
  9.171976E-02
  8.992518E-02
  8.813442E-02
  8.635751E-02
  8.461506E-02
  8.290002E-02
  8.127191E-02
  7.971243E-02
  7.822814E-02
  7.686049E-02
  7.562785E-02
  7.453574E-02
  7.364101E-02
  7.306888E-02
  7.311066E-02
  7.439741E-02
  7.799037E-02
  8.553885E-02
  9.833402E-02
  1.081121E-01
  1.020471E-01
  1.157182E-01
  2.544604E-02
 -1.704303E-09
  9.897689E-01
  9.895990E-01
  9.894291E-01
  9.892593E-01
  9.890894E-01
  9.889196E-01
  9.887498E-01
  9.885800E-01
  9.884102E-01
  9.878944E-01
  9.873701E-01
  9.868458E-01
  9.863216E-01
  9.857973E-01
  9.852731E-01
  9.847489E-01
  9.841122E-01
  9.832691E-01
  9.824260E-01
  9.815829E-01
  9.807399E-01
  9.798969E-01
  9.790539E-01
  9.781799E-01
  9.770575E-01