 Title = "ADflow Slice Data"
Variables =  "CoordinateX"  "CoordinateY"  "CoordinateZ"  "XoC"  "YoC"  "ZoC" "VelocityX" "VelocityY" "VelocityZ" "CoefPressure" "Mach" 
Zone T= "Slice_0001 None Relative Regular z = 0.10000000"
 Nodes =          114  Elements=          106  ZONETYPE=FELINESEG
 DATAPACKING=POINT
  7.301402E-01  6.729165E-02  1.000000E-01  7.450344E-01  5.878694E-02  1.416122E-17  2.547976E-02 -4.236086E-03 -1.928389E-04 -4.342616E-01  0.000000E+00
  7.043967E-01  7.142760E-02  1.000000E-01  7.187651E-01  6.300735E-02 -4.248367E-17  2.681232E-02 -4.152716E-03 -1.938565E-04 -4.692101E-01  0.000000E+00
  6.775455E-01  7.543778E-02  1.000000E-01  6.913655E-01  6.709944E-02  3.965143E-16  2.795854E-02 -4.026716E-03 -1.930558E-04 -5.020980E-01  0.000000E+00
  6.496792E-01  7.930639E-02  1.000000E-01  6.629301E-01  7.104706E-02  4.248367E-17  2.895449E-02 -3.888535E-03 -1.901207E-04 -5.360285E-01  0.000000E+00
  6.209097E-01  8.304061E-02  1.000000E-01  6.335730E-01  7.485755E-02 -2.832245E-17  2.990615E-02 -3.748954E-03 -1.849604E-04 -5.731701E-01  0.000000E+00
  5.913667E-01  8.661284E-02  1.000000E-01  6.034266E-01  7.850274E-02 -2.832245E-17  3.094310E-02 -3.598285E-03 -1.777100E-04 -6.138936E-01  0.000000E+00
  5.611982E-01  8.998042E-02  1.000000E-01  5.726420E-01  8.193909E-02  0.000000E+00  3.216305E-02 -3.428946E-03 -1.685437E-04 -6.591223E-01  0.000000E+00
  5.305654E-01  9.309065E-02  1.000000E-01  5.413835E-01  8.511285E-02 -5.664490E-17  3.363744E-02 -3.231990E-03 -1.576508E-04 -7.106394E-01  0.000000E+00
  4.996398E-01  9.589083E-02  1.000000E-01  5.098263E-01  8.797022E-02  0.000000E+00  3.543276E-02 -2.983042E-03 -1.452886E-04 -7.695629E-01  0.000000E+00
  4.685986E-01  9.830524E-02  1.000000E-01  4.781511E-01  9.043394E-02  1.416122E-17  3.760151E-02 -2.635767E-03 -1.318172E-04 -8.343222E-01  0.000000E+00
  4.376215E-01  1.002395E-01  1.000000E-01  4.465414E-01  9.240767E-02 -8.496735E-17  4.012629E-02 -2.140731E-03 -1.176563E-04 -9.011255E-01  0.000000E+00
  4.068895E-01  1.016030E-01  1.000000E-01  4.151817E-01  9.379902E-02  0.000000E+00  4.288852E-02 -1.460657E-03 -1.032747E-04 -9.652943E-01  0.000000E+00
  3.765814E-01  1.023259E-01  1.000000E-01  3.842546E-01  9.453676E-02 -5.664490E-17  4.568564E-02 -5.982657E-04 -8.918429E-05 -1.024205E+00  0.000000E+00
  3.468696E-01  1.023955E-01  1.000000E-01  3.539360E-01  9.460778E-02 -5.664490E-17  4.834844E-02  4.253731E-04 -7.595552E-05 -1.076659E+00  0.000000E+00
  3.179133E-01  1.018156E-01  1.000000E-01  3.243883E-01  9.401600E-02 -2.832245E-17  5.081694E-02  1.598575E-03 -6.411551E-05 -1.122302E+00  0.000000E+00
  2.898519E-01  1.006061E-01  1.000000E-01  2.957538E-01  9.278178E-02 -4.248367E-17  5.310288E-02  2.898326E-03 -5.392932E-05 -1.164304E+00  0.000000E+00
  2.628044E-01  9.880958E-02  1.000000E-01  2.681539E-01  9.094858E-02  0.000000E+00  5.528292E-02  4.312670E-03 -4.535072E-05 -1.206756E+00  0.000000E+00
  9.800000E-01  1.196478E-02  1.000000E-01  9.999973E-01  2.330082E-03 -2.832245E-17  1.060521E-02 -1.315233E-02 -1.866249E-04 -5.619381E-02  0.000000E+00
  9.720124E-01  1.408832E-02  1.000000E-01  9.918466E-01  4.496998E-03 -2.832245E-17  1.212899E-02 -3.296594E-03 -1.799177E-04  6.925726E-02  0.000000E+00
  9.632634E-01  1.642841E-02  1.000000E-01  9.829189E-01  6.884875E-03 -2.832245E-17  9.092614E-03 -2.369944E-03 -1.525781E-04  2.250947E-02  0.000000E+00
  9.536907E-01  1.897361E-02  1.000000E-01  9.731507E-01  9.482064E-03 -2.832245E-17  7.188992E-03 -1.901446E-03 -1.333701E-04  4.677838E-03  0.000000E+00
  9.432303E-01  2.170834E-02  1.000000E-01  9.624766E-01  1.227264E-02  1.416122E-17  6.753438E-03 -1.750441E-03 -1.264048E-04 -1.506370E-02  0.000000E+00
  9.318220E-01  2.463608E-02  1.000000E-01  9.508353E-01  1.526017E-02  1.416122E-17  7.461076E-03 -1.894050E-03 -1.282687E-04 -4.077522E-02  0.000000E+00
  9.194070E-01  2.776005E-02  1.000000E-01  9.381667E-01  1.844796E-02 -8.496735E-17  8.817335E-03 -2.192896E-03 -1.345788E-04 -6.843833E-02  0.000000E+00
  9.059278E-01  3.107853E-02  1.000000E-01  9.244122E-01  2.183421E-02 -5.664490E-17  1.041195E-02 -2.530725E-03 -1.422922E-04 -9.791483E-02  0.000000E+00
  8.913299E-01  3.458575E-02  1.000000E-01  9.095162E-01  2.541306E-02  0.000000E+00  1.204049E-02 -2.854230E-03 -1.499105E-04 -1.297426E-01  0.000000E+00
  8.755643E-01  3.827652E-02  1.000000E-01  8.934286E-01  2.917921E-02 -2.832245E-17  1.366994E-02 -3.154151E-03 -1.570482E-04 -1.640413E-01  0.000000E+00
  8.585885E-01  4.214021E-02  1.000000E-01  8.761061E-01  3.312181E-02  4.106755E-16  1.534355E-02 -3.434205E-03 -1.638709E-04 -2.003915E-01  0.000000E+00
  8.403666E-01  4.615462E-02  1.000000E-01  8.575120E-01  3.721820E-02  3.965143E-16  1.708243E-02 -3.691157E-03 -1.704471E-04 -2.381927E-01  0.000000E+00
  8.208730E-01  5.029016E-02  1.000000E-01  8.376204E-01  4.143822E-02 -8.496735E-17  1.885627E-02 -3.913823E-03 -1.765644E-04 -2.771234E-01  0.000000E+00
  8.000947E-01  5.451414E-02  1.000000E-01  8.164177E-01  4.574846E-02 -2.832245E-17  2.062105E-02 -4.089519E-03 -1.820074E-04 -3.169123E-01  0.000000E+00
  7.780326E-01  5.878700E-02  1.000000E-01  7.939050E-01  5.010859E-02 -2.832245E-17  2.233985E-02 -4.207007E-03 -1.866468E-04 -3.570565E-01  0.000000E+00
  7.547032E-01  6.306316E-02  1.000000E-01  7.700991E-01  5.447209E-02  4.389979E-16  2.397476E-02 -4.256890E-03 -1.903350E-04 -3.965891E-01  0.000000E+00
  7.301402E-01  6.729165E-02  1.000000E-01  7.450344E-01  5.878694E-02  2.832245E-17  2.547976E-02 -4.236086E-03 -1.928389E-04 -4.342616E-01  0.000000E+00
  2.444131E-01 -2.563232E-03  1.000000E-01  2.493869E-01 -1.249464E-02  3.681918E-16  2.787318E-02  1.276945E-03  4.494719E-05  1.677035E-01  0.000000E+00
  2.700250E-01 -1.393156E-03  1.000000E-01  2.755220E-01 -1.130067E-02 -4.248367E-17  2.812123E-02  1.264302E-03  4.748982E-05  1.659439E-01  0.000000E+00
  2.967058E-01 -2.134789E-04  1.000000E-01  3.027477E-01 -1.009690E-02 -2.832245E-17  2.849310E-02  1.296215E-03  5.093107E-05  1.580469E-01  0.000000E+00
  3.243554E-01  1.078887E-03  1.000000E-01  3.309619E-01 -8.778140E-03  4.248367E-16  2.863481E-02  1.449896E-03  5.539347E-05  1.452366E-01  0.000000E+00
  3.528511E-01  2.633888E-03  1.000000E-01  3.600397E-01 -7.191380E-03 -4.248367E-17  2.815039E-02  1.744243E-03  6.079304E-05  1.338048E-01  0.000000E+00
  3.820469E-01  4.667361E-03  1.000000E-01  3.898317E-01 -5.116376E-03  5.664490E-17  2.678304E-02  2.128985E-03  6.676237E-05  1.314860E-01  0.000000E+00
  4.117740E-01  7.346902E-03  1.000000E-01  4.201660E-01 -2.382109E-03 -5.664490E-17  2.460833E-02  2.486188E-03  7.275017E-05  1.453008E-01  0.000000E+00
  4.418498E-01  1.074715E-02  1.000000E-01  4.508560E-01  1.087587E-03 -2.832245E-17  2.206407E-02  2.679360E-03  7.829128E-05  1.755036E-01  0.000000E+00
  4.721105E-01  1.471504E-02  1.000000E-01  4.817348E-01  5.136517E-03 -5.664490E-17  1.992017E-02  2.512524E-03  8.343016E-05  2.275977E-01  0.000000E+00
  5.024968E-01  1.838503E-02  1.000000E-01  5.127417E-01  8.881461E-03  1.416122E-17  1.863493E-02  2.069625E-03  8.845621E-05  2.825940E-01  0.000000E+00
  5.328693E-01  2.142952E-02  1.000000E-01  5.437345E-01  1.198813E-02 -4.248367E-17  1.800357E-02  1.666276E-03  9.353817E-05  3.094057E-01  0.000000E+00
  5.630297E-01  2.397509E-02  1.000000E-01  5.745109E-01  1.458569E-02  1.416122E-17  1.766656E-02  1.392842E-03  9.870051E-05  3.165320E-01  0.000000E+00
  5.927917E-01  2.615257E-02  1.000000E-01  6.048807E-01  1.680765E-02  5.664490E-17  1.735184E-02  1.211750E-03  1.035424E-04  3.221262E-01  0.000000E+00
  6.219828E-01  2.808594E-02  1.000000E-01  6.346681E-01  1.878050E-02 -4.248367E-17  1.691801E-02  1.074601E-03  1.074737E-04  3.314528E-01  0.000000E+00
  6.504533E-01  2.980612E-02  1.000000E-01  6.637200E-01  2.053581E-02  5.664490E-17  1.637978E-02  9.230073E-04  1.102458E-04  3.449666E-01  0.000000E+00
  6.780742E-01  3.123587E-02  1.000000E-01  6.919050E-01  2.199477E-02  4.531592E-16  1.584394E-02  7.258187E-04  1.120273E-04  3.607050E-01  0.000000E+00
  7.047326E-01  3.228088E-02  1.000000E-01  7.191079E-01  2.306111E-02  0.000000E+00  1.542551E-02  4.885576E-04  1.132228E-04  3.750695E-01  0.000000E+00
  1.215943E-04  9.343575E-03  1.000000E-01  1.060953E-04 -3.446563E-04 -5.664490E-17 -4.541963E-02  8.102101E-02  6.929092E-05  7.515748E-01  0.000000E+00
  4.902502E-03  3.676222E-03  1.000000E-01  4.984647E-03 -6.127758E-03 -8.496735E-17 -1.682997E-02  1.959698E-02  5.466543E-05  9.384238E-01  0.000000E+00
  1.254908E-02  3.672749E-05  1.000000E-01  1.278740E-02 -9.841584E-03 -2.832245E-17  7.858667E-03 -2.044825E-03  4.088810E-05  5.434797E-01  0.000000E+00
  2.163699E-02 -2.349978E-03  1.000000E-01  2.206092E-02 -1.227704E-02  1.416122E-17  2.164864E-02 -4.459720E-03  3.492642E-05  3.419762E-01  0.000000E+00
  3.184423E-02 -4.024611E-03  1.000000E-01  3.247662E-02 -1.398587E-02 -2.832245E-17  2.740796E-02 -3.594602E-03  3.414469E-05  3.079601E-01  0.000000E+00
  4.311596E-02 -5.197355E-03  1.000000E-01  4.397857E-02 -1.518257E-02 -8.496735E-17  2.960566E-02 -2.379135E-03  3.466151E-05  2.726770E-01  0.000000E+00
  5.546913E-02 -5.911407E-03  1.000000E-01  5.658403E-02 -1.591120E-02  1.416122E-17  3.027187E-02 -1.405491E-03  3.539298E-05  2.401016E-01  0.000000E+00
  6.891473E-02 -6.380473E-03  1.000000E-01  7.030424E-02 -1.638985E-02 -8.496735E-17  3.050881E-02 -8.735201E-04  3.619189E-05  2.280720E-01  0.000000E+00
  8.348882E-02 -6.711196E-03  1.000000E-01  8.517599E-02 -1.672733E-02  5.664490E-17  3.063335E-02 -5.241058E-04  3.692206E-05  2.159784E-01  0.000000E+00
  9.923792E-02 -6.897482E-03  1.000000E-01  1.012467E-01 -1.691742E-02 -9.912857E-17  3.060329E-02 -1.658505E-04  3.759388E-05  1.970403E-01  0.000000E+00
  1.162051E-01 -6.881591E-03  1.000000E-01  1.185604E-01 -1.690120E-02 -8.496735E-17  3.038223E-02  2.016420E-04  3.828780E-05  1.801732E-01  0.000000E+00
  1.344203E-01 -6.655990E-03  1.000000E-01  1.371477E-01 -1.667099E-02 -8.496735E-17  2.999396E-02  5.233822E-04  3.903172E-05  1.708523E-01  0.000000E+00
  1.539027E-01 -6.217824E-03  1.000000E-01  1.570280E-01 -1.622388E-02  4.389979E-16  2.945831E-02  8.005120E-04  3.981526E-05  1.658050E-01  0.000000E+00
  1.746592E-01 -5.556237E-03  1.000000E-01  1.782084E-01 -1.554878E-02  3.257082E-16  2.885006E-02  1.019966E-03  4.068664E-05  1.638624E-01  0.000000E+00
  1.966815E-01 -4.700038E-03  1.000000E-01  2.006805E-01 -1.467509E-02 -2.832245E-17  2.829989E-02  1.165954E-03  4.174203E-05  1.650418E-01  0.000000E+00
  2.199461E-01 -3.687662E-03  1.000000E-01  2.244203E-01 -1.364204E-02 -4.248367E-17  2.793806E-02  1.250063E-03  4.310352E-05  1.669094E-01  0.000000E+00
  2.444131E-01 -2.563232E-03  1.000000E-01  2.493869E-01 -1.249464E-02  3.823531E-16  2.787318E-02  1.276945E-03  4.494719E-05  1.677035E-01  0.000000E+00
  7.047326E-01  3.228088E-02  1.000000E-01  7.191079E-01  2.306111E-02 -2.832245E-17  1.542551E-02  4.885576E-04  1.132228E-04  3.750695E-01  0.000000E+00
  7.303325E-01  3.288175E-02  1.000000E-01  7.452306E-01  2.367426E-02 -2.832245E-17  1.521590E-02  2.245892E-04  1.142904E-04  3.857380E-01  0.000000E+00
  7.547951E-01  3.301670E-02  1.000000E-01  7.701929E-01  2.381196E-02  4.389979E-16  1.529008E-02 -6.905515E-05  1.156290E-04  3.925397E-01  0.000000E+00
  7.780600E-01  3.267063E-02  1.000000E-01  7.939329E-01  2.345883E-02  1.416122E-17  1.570306E-02 -4.068844E-04  1.175134E-04  3.952295E-01  0.000000E+00
  8.000833E-01  3.185551E-02  1.000000E-01  8.164060E-01  2.262706E-02 -4.248367E-17  1.646676E-02 -8.028529E-04  1.200556E-04  3.930996E-01  0.000000E+00
  8.208376E-01  3.060357E-02  1.000000E-01  8.375842E-01  2.134955E-02 -2.832245E-17  1.751433E-02 -1.240764E-03  1.231241E-04  3.850894E-01  0.000000E+00
  8.403144E-01  2.902223E-02  1.000000E-01  8.574588E-01  1.973591E-02  4.389979E-16  1.868494E-02 -1.655405E-03  1.263200E-04  3.703778E-01  0.000000E+00
  8.585258E-01  2.727382E-02  1.000000E-01  8.760421E-01  1.795179E-02  3.965143E-16  1.978184E-02 -1.980249E-03  1.291387E-04  3.514758E-01  0.000000E+00
  8.754993E-01  2.550152E-02  1.000000E-01  8.933623E-01  1.614330E-02 -2.832245E-17  2.066071E-02 -2.197669E-03  1.311117E-04  3.326226E-01  0.000000E+00
  8.912718E-01  2.378813E-02  1.000000E-01  9.094570E-01  1.439492E-02 -2.832245E-17  2.130622E-02 -2.365778E-03  1.319894E-04  3.175145E-01  0.000000E+00
  9.058836E-01  2.212639E-02  1.000000E-01  9.243671E-01  1.269923E-02 -4.248367E-17  2.184349E-02 -2.570441E-03  1.319140E-04  3.067591E-01  0.000000E+00
  9.193796E-01  2.048019E-02  1.000000E-01  9.381388E-01  1.101941E-02 -5.664490E-17  2.246525E-02 -2.839644E-03  1.315586E-04  2.956815E-01  0.000000E+00
  9.318118E-01  1.884982E-02  1.000000E-01  9.508249E-01  9.355746E-03  4.248367E-17  2.337494E-02 -3.189579E-03  1.322966E-04  2.816016E-01  0.000000E+00
  9.432349E-01  1.722961E-02  1.000000E-01  9.624813E-01  7.702440E-03 -2.832245E-17  2.461253E-02 -3.636475E-03  1.351544E-04  2.650587E-01  0.000000E+00
  9.537058E-01  1.561906E-02  1.000000E-01  9.731661E-01  6.059001E-03  0.000000E+00  2.553962E-02 -4.080167E-03  1.377931E-04  2.404949E-01  0.000000E+00
  9.632829E-01  1.402233E-02  1.000000E-01  9.829388E-01  4.429658E-03 -2.832245E-17  2.455900E-02 -4.269197E-03  1.325840E-04  2.058407E-01  0.000000E+00
  9.720275E-01  1.247186E-02  1.000000E-01  9.918620E-01  2.847523E-03  0.000000E+00  2.087962E-02 -3.721787E-03  1.139101E-04  2.034225E-01  0.000000E+00
  9.800000E-01  1.098956E-02  1.000000E-01  9.999973E-01  1.334945E-03  1.416122E-17  1.389705E-02  4.363711E-03  6.818556E-05 -1.006075E-02  0.000000E+00
  1.215943E-04  1.002425E-02  1.000000E-01  1.060953E-04  3.499168E-04 -9.912857E-17  2.284782E-02  5.296721E-02  3.328241E-05  4.584667E-01  0.000000E+00
  7.278129E-05  9.909586E-03  1.000000E-01  5.628532E-05  2.329149E-04  1.416122E-17  1.552841E-02  7.596013E-02  4.590689E-05  2.985511E-01  0.000000E+00
  1.762252E-05  9.681333E-03  1.000000E-01  0.000000E+00  0.000000E+00  0.000000E+00 -1.213950E-02  1.218775E-01  6.645866E-05  3.384293E-01  0.000000E+00
  8.694958E-05  9.456167E-03  1.000000E-01  7.074297E-05 -2.297647E-04  0.000000E+00 -5.083654E-02  1.319963E-01  7.598380E-05  3.875310E-01  0.000000E+00
  1.215943E-04  9.343575E-03  1.000000E-01  1.060953E-04 -3.446563E-04 -4.248367E-17 -4.541963E-02  8.102101E-02  6.929092E-05  7.515748E-01  0.000000E+00
  9.800000E-01  1.098956E-02  1.000000E-01  9.999973E-01  1.334945E-03  0.000000E+00  1.389705E-02  4.363711E-03  6.818556E-05 -1.006075E-02  0.000000E+00
  9.800000E-01  1.115210E-02  1.000000E-01  9.999973E-01  1.500802E-03  0.000000E+00  4.504668E-03 -1.564472E-03 -1.385258E-05 -2.107084E-01  0.000000E+00
  9.800000E-01  1.147717E-02  1.000000E-01  9.999973E-01  1.832514E-03 -2.832245E-17 -4.422176E-04 -1.596382E-02 -1.019900E-04 -1.750532E-01  0.000000E+00
  9.800000E-01  1.180224E-02  1.000000E-01  9.999973E-01  2.164226E-03 -5.664490E-17  3.431385E-03 -1.963637E-02 -1.599480E-04 -1.934613E-01  0.000000E+00
  9.800000E-01  1.196478E-02  1.000000E-01  9.999973E-01  2.330082E-03  0.000000E+00  1.060521E-02 -1.315233E-02 -1.866249E-04 -5.619381E-02  0.000000E+00
  2.628044E-01  9.880958E-02  1.000000E-01  2.681539E-01  9.094858E-02 -2.832245E-17  5.528292E-02  4.312670E-03 -4.535072E-05 -1.206756E+00  0.000000E+00
  2.368706E-01  9.647544E-02  1.000000E-01  2.416904E-01  8.856676E-02  3.681918E-16  5.751298E-02  5.926024E-03 -3.817095E-05 -1.246669E+00  0.000000E+00
  2.121362E-01  9.359613E-02  1.000000E-01  2.164508E-01  8.562865E-02  1.416122E-17  5.982063E-02  7.813613E-03 -3.211508E-05 -1.277238E+00  0.000000E+00
  1.886687E-01  9.018922E-02  1.000000E-01  1.925041E-01  8.215216E-02 -4.248367E-17  6.202672E-02  9.953575E-03 -2.691354E-05 -1.293574E+00  0.000000E+00
  1.665185E-01  8.628681E-02  1.000000E-01  1.699014E-01  7.817005E-02  4.814816E-16  6.390311E-02  1.227935E-02 -2.237912E-05 -1.293207E+00  0.000000E+00
  1.457161E-01  8.194576E-02  1.000000E-01  1.486742E-01  7.374034E-02  4.531592E-16  6.529666E-02  1.471726E-02 -1.838580E-05 -1.277715E+00  0.000000E+00
  1.262764E-01  7.722575E-02  1.000000E-01  1.288375E-01  6.892393E-02  0.000000E+00  6.619025E-02  1.723080E-02 -1.481498E-05 -1.252308E+00  0.000000E+00
  1.081990E-01  7.218646E-02  1.000000E-01  1.103908E-01  6.378171E-02  0.000000E+00  6.662080E-02  1.979640E-02 -1.151359E-05 -1.224086E+00  0.000000E+00
  9.146971E-02  6.689021E-02  1.000000E-01  9.331988E-02  5.837730E-02  0.000000E+00  6.669784E-02  2.256884E-02 -8.356874E-06 -1.188240E+00  0.000000E+00
  7.608258E-02  6.133266E-02  1.000000E-01  7.761849E-02  5.270624E-02  0.000000E+00  6.637937E-02  2.571949E-02 -5.291529E-06 -1.126411E+00  0.000000E+00
  6.202881E-02  5.550311E-02  1.000000E-01  6.327769E-02  4.675763E-02 -5.664490E-17  6.532792E-02  2.910917E-02 -2.321784E-06 -1.021411E+00  0.000000E+00
  4.929579E-02  4.941843E-02  1.000000E-01  5.028461E-02  4.054868E-02 -8.496735E-17  6.318611E-02  3.218938E-02  5.448342E-07 -8.782775E-01  0.000000E+00
  3.782553E-02  4.318931E-02  1.000000E-01  3.858009E-02  3.419234E-02  4.248367E-17  6.008934E-02  3.474209E-02  3.358006E-06 -7.238165E-01  0.000000E+00
  2.757469E-02  3.686955E-02  1.000000E-01  2.811989E-02  2.774351E-02 -2.832245E-17  5.654030E-02  3.700686E-02  6.388964E-06 -6.056762E-01  0.000000E+00
  1.848362E-02  3.053585E-02  1.000000E-01  1.884315E-02  2.128045E-02  5.664490E-17  5.321510E-02  4.043500E-02  1.041806E-05 -5.080274E-01  0.000000E+00
  1.064273E-02  2.406229E-02  1.000000E-01  1.084211E-02  1.467467E-02  1.416122E-17  4.946315E-02  4.665527E-02  1.683834E-05 -2.683621E-01  0.000000E+00
  4.262692E-03  1.729890E-02  1.000000E-01  4.331770E-03  7.773148E-03  1.416122E-17  4.010212E-02  5.389619E-02  2.584131E-05  2.426552E-01  0.000000E+00
  1.215943E-04  1.002425E-02  1.000000E-01  1.060953E-04  3.499168E-04 -8.496735E-17  2.284782E-02  5.296721E-02  3.328241E-05  4.584667E-01  0.000000E+00
    1    2
    2    3
    3    4
    4    5
    5    6
    6    7
    7    8
    8    9
    9   10
   10   11
   11   12
   12   13
   13   14
   14   15
   15   16
   16   17
   18   19
   19   20
   20   21
   21   22
   22   23
   23   24
   24   25
   25   26
   26   27
   27   28
   28   29
   29   30
   30   31
   31   32
   32   33
   33   34
   35   36
   36   37
   37   38
   38   39
   39   40
   40   41
   41   42
   42   43
   43   44
   44   45
   45   46
   46   47
   47   48
   48   49
   49   50
   50   51
   52   53
   53   54
   54   55
   55   56
   56   57
   57   58
   58   59
   59   60
   60   61
   61   62
   62   63
   63   64
   64   65
   65   66
   66   67
   67   68
   69   70
   70   71
   71   72
   72   73
   73   74
   74   75
   75   76
   76   77
   77   78
   78   79
   79   80
   80   81
   81   82
   82   83
   83   84
   84   85
   85   86
   87   88
   88   89
   89   90
   90   91
   92   93
   93   94
   94   95
   95   96
   97   98
   98   99
   99  100
  100  101
  101  102
  102  103
  103  104
  104  105
  105  106
  106  107
  107  108
  108  109
  109  110
  110  111
  111  112
  112  113
  113  114
Zone T= "Slice_0002 None Relative Regular z = 0.36666667"
 Nodes =          114  Elements=          106  ZONETYPE=FELINESEG
 DATAPACKING=POINT
  7.301402E-01  6.673977E-02  3.666667E-01  7.450346E-01  5.824939E-02 -5.664491E-17  2.570705E-02 -4.231323E-03 -6.039552E-04 -4.284763E-01  0.000000E+00
  7.043967E-01  7.083174E-02  3.666667E-01  7.187653E-01  6.242492E-02 -1.132898E-16  2.702319E-02 -4.144259E-03 -6.010233E-04 -4.623737E-01  0.000000E+00
  6.775455E-01  7.480049E-02  3.666667E-01  6.913657E-01  6.647474E-02  3.058825E-14  2.814741E-02 -4.017083E-03 -5.936548E-04 -4.942014E-01  0.000000E+00
  6.496792E-01  7.863367E-02  3.666667E-01  6.629302E-01  7.038620E-02 -1.699347E-16  2.911614E-02 -3.881157E-03 -5.820809E-04 -5.271919E-01  0.000000E+00
  6.209097E-01  8.234274E-02  3.666667E-01  6.335732E-01  7.417103E-02  0.000000E+00  3.003769E-02 -3.747156E-03 -5.667950E-04 -5.635990E-01  0.000000E+00
  5.913667E-01  8.590287E-02  3.666667E-01  6.034268E-01  7.780387E-02  1.132898E-16  3.104489E-02 -3.604421E-03 -5.482481E-04 -6.037979E-01  0.000000E+00
  5.611982E-01  8.927243E-02  3.666667E-01  5.726422E-01  8.124225E-02  2.265796E-16  3.223845E-02 -3.444827E-03 -5.264004E-04 -6.487086E-01  0.000000E+00
  5.305654E-01  9.239887E-02  3.666667E-01  5.413836E-01  8.443254E-02  1.132898E-16  3.369309E-02 -3.259225E-03 -5.008956E-04 -7.001076E-01  0.000000E+00
  4.996398E-01  9.522850E-02  3.666667E-01  5.098264E-01  8.731996E-02 -1.699347E-16  3.547914E-02 -3.022868E-03 -4.714190E-04 -7.590919E-01  0.000000E+00
  4.685986E-01  9.768358E-02  3.666667E-01  4.781512E-01  8.982519E-02  1.132898E-16  3.765175E-02 -2.688677E-03 -4.379298E-04 -8.240751E-01  0.000000E+00
  4.376215E-01  9.966690E-02  3.666667E-01  4.465415E-01  9.184902E-02 -5.664491E-17  4.019361E-02 -2.206031E-03 -4.005751E-04 -8.912602E-01  0.000000E+00
  4.068895E-01  1.010847E-01  3.666667E-01  4.151818E-01  9.329582E-02 -5.664491E-17  4.298429E-02 -1.536180E-03 -3.598192E-04 -9.559749E-01  0.000000E+00
  3.765814E-01  1.018642E-01  3.666667E-01  3.842547E-01  9.409125E-02  5.664491E-17  4.581975E-02 -6.804421E-04 -3.166732E-04 -1.015599E+00  0.000000E+00
  3.468696E-01  1.019899E-01  3.666667E-01  3.539361E-01  9.421948E-02 -5.664491E-17  4.853018E-02  3.414216E-04 -2.730624E-04 -1.068890E+00  0.000000E+00
  3.179133E-01  1.014633E-01  3.666667E-01  3.243884E-01  9.368215E-02  0.000000E+00  5.105379E-02  1.518733E-03 -2.315090E-04 -1.115385E+00  0.000000E+00
  2.898519E-01  1.003027E-01  3.666667E-01  2.957538E-01  9.249785E-02  5.664491E-17  5.339785E-02  2.828310E-03 -1.939631E-04 -1.158157E+00  0.000000E+00
  2.628044E-01  9.854989E-02  3.666667E-01  2.681539E-01  9.070919E-02  5.664491E-17  5.563336E-02  4.256956E-03 -1.612214E-04 -1.201252E+00  0.000000E+00
  9.800000E-01  1.182816E-02  3.666667E-01  9.999975E-01  2.216264E-03  5.664491E-17  1.059481E-02 -1.306185E-02 -6.187352E-04 -5.709158E-02  0.000000E+00
  9.720124E-01  1.394108E-02  3.666667E-01  9.918468E-01  4.372336E-03  0.000000E+00  1.214960E-02 -3.284834E-03 -5.871829E-04  6.939166E-02  0.000000E+00
  9.632634E-01  1.626928E-02  3.666667E-01  9.829192E-01  6.748082E-03  1.132898E-16  9.193463E-03 -2.383386E-03 -4.989560E-04  2.269240E-02  0.000000E+00
  9.536907E-01  1.880117E-02  3.666667E-01  9.731509E-01  9.331689E-03 -5.664491E-17  7.350754E-03 -1.932971E-03 -4.376241E-04  4.837691E-03  0.000000E+00
  9.432303E-01  2.152099E-02  3.666667E-01  9.624768E-01  1.210706E-02 -1.699347E-16  6.949650E-03 -1.790526E-03 -4.157724E-04 -1.490040E-02  0.000000E+00
  9.318220E-01  2.443205E-02  3.666667E-01  9.508355E-01  1.507758E-02 -5.664491E-17  7.674089E-03 -1.936136E-03 -4.222464E-04 -4.054144E-02  0.000000E+00
  9.194070E-01  2.753739E-02  3.666667E-01  9.381670E-01  1.824633E-02  0.000000E+00  9.036112E-03 -2.232952E-03 -4.427805E-04 -6.807261E-02  0.000000E+00
  9.059278E-01  3.083506E-02  3.666667E-01  9.244125E-01  2.161135E-02 -1.132898E-16  1.063142E-02 -2.566860E-03 -4.675935E-04 -9.736526E-02  0.000000E+00
  8.913299E-01  3.431908E-02  3.666667E-01  9.095164E-01  2.516653E-02  0.000000E+00  1.226314E-02 -2.886755E-03 -4.919798E-04 -1.289490E-01  0.000000E+00
  8.755643E-01  3.798406E-02  3.666667E-01  8.934289E-01  2.890637E-02 -1.132898E-16  1.390372E-02 -3.184651E-03 -5.147108E-04 -1.629317E-01  0.000000E+00
  8.585885E-01  4.181919E-02  3.666667E-01  8.761063E-01  3.281982E-02  3.098477E-14  1.559260E-02 -3.463156E-03 -5.360124E-04 -1.988907E-01  0.000000E+00
  8.403666E-01  4.580208E-02  3.666667E-01  8.575123E-01  3.688407E-02  3.098477E-14  1.734090E-02 -3.716745E-03 -5.556317E-04 -2.362191E-01  0.000000E+00
  8.208730E-01  4.990309E-02  3.666667E-01  8.376206E-01  4.106883E-02 -5.664491E-17  1.911514E-02 -3.933813E-03 -5.726437E-04 -2.745884E-01  0.000000E+00
  8.000947E-01  5.408949E-02  3.666667E-01  8.164179E-01  4.534074E-02 -5.664491E-17  2.087526E-02 -4.102892E-03 -5.863432E-04 -3.137203E-01  0.000000E+00
  7.780326E-01  5.832197E-02  3.666667E-01  7.939052E-01  4.965965E-02 -1.132898E-16  2.258737E-02 -4.213726E-03 -5.963529E-04 -3.531056E-01  0.000000E+00
  7.547032E-01  6.255541E-02  3.666667E-01  7.700993E-01  5.397956E-02  3.075819E-14  2.421376E-02 -4.257415E-03 -6.023396E-04 -3.917732E-01  0.000000E+00
  7.301402E-01  6.673977E-02  3.666667E-01  7.450346E-01  5.824939E-02 -5.664491E-17  2.570705E-02 -4.231323E-03 -6.039552E-04 -4.284763E-01  0.000000E+00
  2.444131E-01 -2.798098E-03  3.666667E-01  2.493870E-01 -1.270872E-02  3.092812E-14  2.813421E-02  1.249801E-03  1.518973E-04  1.656290E-01  0.000000E+00
  2.700250E-01 -1.666085E-03  3.666667E-01  2.755220E-01 -1.155359E-02  5.664491E-17  2.840321E-02  1.234046E-03  1.623893E-04  1.636923E-01  0.000000E+00
  2.967058E-01 -5.295657E-04  3.666667E-01  3.027478E-01 -1.039386E-02 -5.664491E-17  2.880066E-02  1.263376E-03  1.757189E-04  1.555386E-01  0.000000E+00
  3.243554E-01  7.147144E-04  3.666667E-01  3.309620E-01 -9.124167E-03  3.070154E-14  2.896602E-02  1.416828E-03  1.920185E-04  1.423770E-01  0.000000E+00
  3.528511E-01  2.217465E-03  3.666667E-01  3.600398E-01 -7.590725E-03 -5.664491E-17  2.849591E-02  1.714992E-03  2.106259E-04  1.305058E-01  0.000000E+00
  3.820469E-01  4.196073E-03  3.666667E-01  3.898318E-01 -5.571705E-03 -1.132898E-16  2.713042E-02  2.108243E-03  2.299526E-04  1.277066E-01  0.000000E+00
  4.117740E-01  6.820291E-03  3.666667E-01  4.201661E-01 -2.893890E-03  1.132898E-16  2.494621E-02  2.477292E-03  2.479949E-04  1.410653E-01  0.000000E+00
  4.418498E-01  1.016745E-02  3.666667E-01  4.508561E-01  5.216306E-04 -1.699347E-16  2.238382E-02  2.682489E-03  2.633592E-04  1.708874E-01  0.000000E+00
  4.721105E-01  1.408753E-02  3.666667E-01  4.817349E-01  4.521778E-03 -1.132898E-16  2.022072E-02  2.522408E-03  2.769539E-04  2.227580E-01  0.000000E+00
  5.024968E-01  1.771797E-02  3.666667E-01  5.127418E-01  8.226367E-03  5.664491E-17  1.892106E-02  2.080745E-03  2.901140E-04  2.776584E-01  0.000000E+00
  5.328693E-01  2.073395E-02  3.666667E-01  5.437346E-01  1.130394E-02 -2.265796E-16  1.827812E-02  1.678416E-03  3.032050E-04  3.043504E-01  0.000000E+00
  5.630297E-01  2.326414E-02  3.666667E-01  5.745111E-01  1.388581E-02  1.132898E-16  1.792871E-02  1.407797E-03  3.166294E-04  3.113185E-01  0.000000E+00
  5.927917E-01  2.544037E-02  3.666667E-01  6.048809E-01  1.610648E-02  0.000000E+00  1.759846E-02  1.230843E-03  3.296224E-04  3.168291E-01  0.000000E+00
  6.219828E-01  2.738652E-02  3.666667E-01  6.346682E-01  1.809238E-02  5.664491E-17  1.714561E-02  1.098138E-03  3.406793E-04  3.262247E-01  0.000000E+00
  6.504533E-01  2.913247E-02  3.666667E-01  6.637202E-01  1.987399E-02 -1.132898E-16  1.658665E-02  9.498619E-04  3.492505E-04  3.399676E-01  0.000000E+00
  6.780742E-01  3.059812E-02  3.666667E-01  6.919052E-01  2.136958E-02  3.092812E-14  1.603123E-02  7.539347E-04  3.558410E-04  3.560692E-01  0.000000E+00
  7.047326E-01  3.168486E-02  3.666667E-01  7.191081E-01  2.247852E-02 -5.664491E-17  1.559663E-02  5.161447E-04  3.613792E-04  3.708503E-01  0.000000E+00
  1.215943E-04  9.318463E-03  3.666667E-01  1.060953E-04 -3.446958E-04 -2.265796E-16 -4.447056E-02  7.937274E-02  2.152681E-04  7.558650E-01  0.000000E+00
  4.902502E-03  3.649235E-03  3.666667E-01  4.984648E-03 -6.129711E-03  5.664491E-17 -1.614973E-02  1.897813E-02  1.677505E-04  9.361532E-01  0.000000E+00
  1.254908E-02  6.545711E-06  3.666667E-01  1.278740E-02 -9.846799E-03  2.265796E-16  8.255604E-03 -2.208583E-03  1.241097E-04  5.392206E-01  0.000000E+00
  2.163699E-02 -2.384222E-03  3.666667E-01  2.206093E-02 -1.228640E-02  5.664491E-17  2.189402E-02 -4.523826E-03  1.054996E-04  3.381975E-01  0.000000E+00
  3.184423E-02 -4.063750E-03  3.666667E-01  3.247663E-02 -1.400023E-02  0.000000E+00  2.762891E-02 -3.638099E-03  1.032269E-04  3.049041E-01  0.000000E+00
  4.311596E-02 -5.242306E-03  3.666667E-01  4.397858E-02 -1.520285E-02 -1.132898E-16  2.983738E-02 -2.414176E-03  1.050680E-04  2.700148E-01  0.000000E+00
  5.546913E-02 -5.963226E-03  3.666667E-01  5.658405E-02 -1.593850E-02 -5.664491E-17  3.051187E-02 -1.434705E-03  1.076235E-04  2.376285E-01  0.000000E+00
  6.891473E-02 -6.440377E-03  3.666667E-01  7.030426E-02 -1.642539E-02  1.699347E-16  3.075331E-02 -9.001694E-04  1.105139E-04  2.257758E-01  0.000000E+00
  8.348882E-02 -6.780606E-03  3.666667E-01  8.517601E-02 -1.677257E-02  2.832246E-16  3.088155E-02 -5.496610E-04  1.133927E-04  2.138499E-01  0.000000E+00
  9.923792E-02 -6.978066E-03  3.666667E-01  1.012468E-01 -1.697407E-02 -1.132898E-16  3.085405E-02 -1.902709E-04  1.163332E-04  1.950288E-01  0.000000E+00
  1.162051E-01 -6.975305E-03  3.666667E-01  1.185605E-01 -1.697125E-02  5.664491E-17  3.063328E-02  1.784188E-04  1.196046E-04  1.782311E-01  0.000000E+00
  1.344203E-01 -6.765115E-03  3.666667E-01  1.371477E-01 -1.675676E-02  0.000000E+00  3.024289E-02  5.009392E-04  1.232948E-04  1.689562E-01  0.000000E+00
  1.539027E-01 -6.345015E-03  3.666667E-01  1.570281E-01 -1.632808E-02  3.064490E-14  2.970341E-02  7.784370E-04  1.273560E-04  1.639386E-01  0.000000E+00
  1.746592E-01 -5.704568E-03  3.666667E-01  1.782084E-01 -1.567456E-02  3.109806E-14  2.909173E-02  9.977109E-04  1.319183E-04  1.620001E-01  0.000000E+00
  1.966815E-01 -4.873040E-03  3.666667E-01  2.006805E-01 -1.482605E-02 -1.132898E-16  2.854157E-02  1.142800E-03  1.372599E-04  1.631509E-01  0.000000E+00
  2.199461E-01 -3.889352E-03  3.666667E-01  2.244203E-01 -1.382227E-02 -1.699347E-16  2.818569E-02  1.225316E-03  1.437394E-04  1.649509E-01  0.000000E+00
  2.444131E-01 -2.798098E-03  3.666667E-01  2.493870E-01 -1.270872E-02  3.092812E-14  2.813421E-02  1.249801E-03  1.518973E-04  1.656290E-01  0.000000E+00
  7.047326E-01  3.168486E-02  3.666667E-01  7.191081E-01  2.247852E-02 -5.664491E-17  1.559663E-02  5.161447E-04  3.613792E-04  3.708503E-01  0.000000E+00