 Title= "ADflow Lift Distribution Data"
Variables = "eta" "CoordinateX" "CoordinateY" "CoordinateZ" "Lift" "Drag" "Moment" "Normalized Lift" "Normalized Drag" "Normalized Moment" "CL" "CD" "CM" "CLp" "CDp" "CMp" "CLv" "CDv" "CMv" "Elliptical" "thickness" "twist" "chord" "fx" "fy" "fz" 
Zone T= "LiftDist_01 allWalls: : z normal"
 I=          150
 DATAPACKING=BLOCK
  0.000000E+00
  6.711405E-03
  1.342281E-02
  2.013422E-02
  2.684563E-02
  3.355704E-02
  4.026845E-02
  4.697986E-02
  5.369127E-02
  6.040268E-02
  6.711409E-02
  7.382550E-02
  8.053691E-02
  8.724832E-02
  9.395973E-02
  1.006711E-01
  1.073825E-01
  1.140940E-01
  1.208054E-01
  1.275168E-01
  1.342282E-01
  1.409396E-01
  1.476510E-01
  1.543624E-01
  1.610738E-01
  1.677852E-01
  1.744966E-01
  1.812081E-01
  1.879195E-01
  1.946309E-01
  2.013423E-01
  2.080537E-01
  2.147651E-01
  2.214765E-01
  2.281879E-01
  2.348993E-01
  2.416107E-01
  2.483221E-01
  2.550336E-01
  2.617450E-01
  2.684564E-01
  2.751678E-01
  2.818792E-01
  2.885906E-01
  2.953020E-01
  3.020134E-01
  3.087248E-01
  3.154362E-01
  3.221476E-01
  3.288591E-01
  3.355705E-01
  3.422819E-01
  3.489933E-01
  3.557047E-01
  3.624161E-01
  3.691275E-01
  3.758389E-01
  3.825503E-01
  3.892617E-01
  3.959732E-01
  4.026846E-01
  4.093960E-01
  4.161074E-01
  4.228188E-01
  4.295302E-01
  4.362416E-01
  4.429530E-01
  4.496644E-01
  4.563758E-01
  4.630872E-01
  4.697987E-01
  4.765101E-01
  4.832215E-01
  4.899329E-01
  4.966443E-01
  5.033557E-01
  5.100671E-01
  5.167785E-01
  5.234899E-01
  5.302013E-01
  5.369128E-01
  5.436242E-01
  5.503356E-01
  5.570470E-01
  5.637584E-01
  5.704698E-01
  5.771812E-01
  5.838926E-01
  5.906040E-01
  5.973154E-01
  6.040268E-01
  6.107383E-01
  6.174497E-01
  6.241611E-01
  6.308725E-01
  6.375839E-01
  6.442953E-01
  6.510067E-01
  6.577181E-01
  6.644295E-01
  6.711409E-01
  6.778524E-01
  6.845638E-01
  6.912752E-01
  6.979866E-01
  7.046980E-01
  7.114094E-01
  7.181208E-01
  7.248322E-01
  7.315436E-01
  7.382550E-01
  7.449664E-01
  7.516779E-01
  7.583893E-01
  7.651007E-01
  7.718121E-01
  7.785235E-01
  7.852349E-01
  7.919463E-01
  7.986577E-01
  8.053691E-01
  8.120805E-01
  8.187919E-01
  8.255034E-01
  8.322148E-01
  8.389262E-01
  8.456376E-01
  8.523490E-01
  8.590604E-01
  8.657718E-01
  8.724832E-01
  8.791946E-01
  8.859060E-01
  8.926175E-01
  8.993289E-01
  9.060403E-01
  9.127517E-01
  9.194631E-01
  9.261745E-01
  9.328859E-01
  9.395973E-01
  9.463087E-01
  9.530201E-01
  9.597315E-01
  9.664430E-01
  9.731544E-01
  9.798658E-01
  9.865772E-01
  9.932886E-01
  1.000000E+00
  0.000000E+00
  0.000000E+00
  0.000000E+00
  0.000000E+00
  0.000000E+00
  0.000000E+00
  0.000000E+00
  0.000000E+00
  0.000000E+00
  0.000000E+00
  0.000000E+00
  0.000000E+00
  0.000000E+00
  0.000000E+00
  0.000000E+00
  0.000000E+00
  0.000000E+00
  0.000000E+00
  0.000000E+00
  0.000000E+00
  0.000000E+00
  0.000000E+00
  0.000000E+00
  0.000000E+00
  0.000000E+00
  0.000000E+00
  0.000000E+00
  0.000000E+00
  0.000000E+00
  0.000000E+00
  0.000000E+00
  0.000000E+00
  0.000000E+00
  0.000000E+00
  0.000000E+00
  0.000000E+00
  0.000000E+00
  0.000000E+00
  0.000000E+00
  0.000000E+00
  0.000000E+00
  0.000000E+00
  0.000000E+00
  0.000000E+00
  0.000000E+00
  0.000000E+00
  0.000000E+00
  0.000000E+00
  0.000000E+00
  0.000000E+00
  0.000000E+00
  0.000000E+00
  0.000000E+00
  0.000000E+00
  0.000000E+00
  0.000000E+00
  0.000000E+00
  0.000000E+00
  0.000000E+00
  0.000000E+00
  0.000000E+00
  0.000000E+00
  0.000000E+00
  0.000000E+00
  0.000000E+00
  0.000000E+00
  0.000000E+00
  0.000000E+00
  0.000000E+00
  0.000000E+00
  0.000000E+00
  0.000000E+00
  0.000000E+00
  0.000000E+00
  0.000000E+00
  0.000000E+00
  0.000000E+00
  0.000000E+00
  0.000000E+00
  0.000000E+00
  0.000000E+00
  0.000000E+00
  0.000000E+00
  0.000000E+00
  0.000000E+00
  0.000000E+00
  0.000000E+00
  0.000000E+00
  0.000000E+00
  0.000000E+00
  0.000000E+00
  0.000000E+00
  0.000000E+00
  0.000000E+00
  0.000000E+00
  0.000000E+00
  0.000000E+00
  0.000000E+00
  0.000000E+00
  0.000000E+00
  0.000000E+00
  0.000000E+00
  0.000000E+00
  0.000000E+00
  0.000000E+00
  0.000000E+00
  0.000000E+00
  0.000000E+00
  0.000000E+00
  0.000000E+00
  0.000000E+00
  0.000000E+00
  0.000000E+00
  0.000000E+00
  0.000000E+00
  0.000000E+00
  0.000000E+00
  0.000000E+00
  0.000000E+00
  0.000000E+00
  0.000000E+00
  0.000000E+00
  0.000000E+00
  0.000000E+00
  0.000000E+00
  0.000000E+00
  0.000000E+00
  0.000000E+00
  0.000000E+00
  0.000000E+00
  0.000000E+00
  0.000000E+00
  0.000000E+00
  0.000000E+00
  0.000000E+00
  0.000000E+00
  0.000000E+00
  0.000000E+00
  0.000000E+00
  0.000000E+00
  0.000000E+00
  0.000000E+00
  0.000000E+00
  0.000000E+00
  0.000000E+00
  0.000000E+00
  0.000000E+00
  0.000000E+00
  0.000000E+00
  0.000000E+00
  0.000000E+00
  0.000000E+00
  0.000000E+00
  0.000000E+00
  0.000000E+00
  0.000000E+00
  0.000000E+00
  0.000000E+00
  0.000000E+00
  0.000000E+00
  0.000000E+00
  0.000000E+00
  0.000000E+00
  0.000000E+00
  0.000000E+00
  0.000000E+00
  0.000000E+00
  0.000000E+00
  0.000000E+00
  0.000000E+00
  0.000000E+00
  0.000000E+00
  0.000000E+00
  0.000000E+00
  0.000000E+00
  0.000000E+00
  0.000000E+00
  0.000000E+00
  0.000000E+00
  0.000000E+00
  0.000000E+00
  0.000000E+00
  0.000000E+00
  0.000000E+00
  0.000000E+00
  0.000000E+00
  0.000000E+00
  0.000000E+00
  0.000000E+00
  0.000000E+00
  0.000000E+00
  0.000000E+00
  0.000000E+00
  0.000000E+00
  0.000000E+00
  0.000000E+00
  0.000000E+00
  0.000000E+00
  0.000000E+00
  0.000000E+00
  0.000000E+00
  0.000000E+00
  0.000000E+00
  0.000000E+00
  0.000000E+00
  0.000000E+00
  0.000000E+00
  0.000000E+00
  0.000000E+00
  0.000000E+00
  0.000000E+00
  0.000000E+00
  0.000000E+00
  0.000000E+00
  0.000000E+00
  0.000000E+00
  0.000000E+00
  0.000000E+00
  0.000000E+00
  0.000000E+00
  0.000000E+00
  0.000000E+00
  0.000000E+00
  0.000000E+00
  0.000000E+00
  0.000000E+00
  0.000000E+00
  0.000000E+00
  0.000000E+00
  0.000000E+00
  0.000000E+00
  0.000000E+00
  0.000000E+00
  0.000000E+00
  0.000000E+00
  0.000000E+00
  0.000000E+00
  0.000000E+00
  0.000000E+00
  0.000000E+00
  0.000000E+00
  0.000000E+00
  0.000000E+00
  0.000000E+00
  0.000000E+00
  0.000000E+00
  0.000000E+00
  0.000000E+00
  0.000000E+00
  0.000000E+00
  0.000000E+00
  0.000000E+00
  0.000000E+00
  0.000000E+00
  0.000000E+00
  0.000000E+00
  0.000000E+00
  0.000000E+00
  0.000000E+00
  0.000000E+00
  0.000000E+00
  0.000000E+00
  0.000000E+00
  0.000000E+00
  0.000000E+00
  0.000000E+00
  0.000000E+00
  0.000000E+00
  0.000000E+00
  0.000000E+00
  0.000000E+00
  0.000000E+00
  0.000000E+00
  0.000000E+00
  0.000000E+00
  0.000000E+00
  0.000000E+00
  0.000000E+00
  0.000000E+00
  0.000000E+00
  0.000000E+00
  0.000000E+00
  0.000000E+00
  0.000000E+00
  0.000000E+00
  0.000000E+00
  0.000000E+00
  0.000000E+00
  0.000000E+00
  0.000000E+00
  0.000000E+00
  0.000000E+00
  0.000000E+00
  0.000000E+00
  0.000000E+00
  0.000000E+00
  0.000000E+00
  0.000000E+00
  0.000000E+00
  0.000000E+00
  1.000000E-08
  1.695085E-02
  3.390169E-02
  5.085254E-02
  6.780338E-02
  8.475423E-02
  1.017051E-01
  1.186559E-01
  1.356068E-01
  1.525576E-01
  1.695085E-01
  1.864593E-01
  2.034101E-01
  2.203610E-01
  2.373118E-01
  2.542627E-01
  2.712135E-01
  2.881644E-01
  3.051152E-01
  3.220661E-01
  3.390169E-01
  3.559678E-01
  3.729186E-01
  3.898694E-01
  4.068203E-01
  4.237711E-01
  4.407220E-01
  4.576728E-01
  4.746237E-01
  4.915745E-01
  5.085254E-01
  5.254762E-01
  5.424271E-01
  5.593779E-01
  5.763287E-01
  5.932796E-01
  6.102304E-01
  6.271813E-01
  6.441321E-01
  6.610830E-01
  6.780338E-01
  6.949847E-01
  7.119355E-01
  7.288864E-01
  7.458372E-01
  7.627880E-01
  7.797389E-01
  7.966897E-01
  8.136406E-01
  8.305914E-01
  8.475423E-01
  8.644931E-01
  8.814440E-01
  8.983948E-01
  9.153457E-01
  9.322965E-01
  9.492473E-01
  9.661982E-01
  9.831490E-01
  1.000100E+00
  1.017051E+00
  1.034002E+00
  1.050952E+00
  1.067903E+00
  1.084854E+00
  1.101805E+00
  1.118756E+00
  1.135707E+00
  1.152657E+00
  1.169608E+00
  1.186559E+00
  1.203510E+00
  1.220461E+00
  1.237412E+00
  1.254363E+00
  1.271313E+00
  1.288264E+00
  1.305215E+00
  1.322166E+00
  1.339117E+00
  1.356068E+00
  1.373018E+00
  1.389969E+00
  1.406920E+00
  1.423871E+00
  1.440822E+00
  1.457773E+00
  1.474724E+00
  1.491674E+00
  1.508625E+00
  1.525576E+00
  1.542527E+00
  1.559478E+00
  1.576429E+00
  1.593379E+00
  1.610330E+00
  1.627281E+00
  1.644232E+00
  1.661183E+00
  1.678134E+00
  1.695085E+00
  1.712035E+00
  1.728986E+00
  1.745937E+00
  1.762888E+00
  1.779839E+00
  1.796790E+00
  1.813740E+00
  1.830691E+00
  1.847642E+00
  1.864593E+00
  1.881544E+00
  1.898495E+00
  1.915446E+00
  1.932396E+00
  1.949347E+00
  1.966298E+00
  1.983249E+00
  2.000200E+00
  2.017151E+00
  2.034101E+00
  2.051052E+00
  2.068003E+00
  2.084954E+00
  2.101905E+00
  2.118856E+00
  2.135807E+00
  2.152757E+00
  2.169708E+00
  2.186659E+00
  2.203610E+00
  2.220561E+00
  2.237512E+00
  2.254462E+00
  2.271413E+00
  2.288364E+00
  2.305315E+00
  2.322266E+00
  2.339217E+00
  2.356168E+00
  2.373118E+00
  2.390069E+00
  2.407020E+00
  2.423971E+00
  2.440922E+00
  2.457873E+00
  2.474823E+00
  2.491774E+00
  2.508725E+00
  2.525676E+00
  1.108109E+04
  1.107869E+04
  1.107629E+04
  1.107390E+04
  1.107150E+04
  1.106911E+04
  1.106672E+04
  1.106433E+04
  1.106194E+04
  1.105575E+04
  1.104947E+04
  1.104319E+04
  1.103690E+04
  1.103063E+04
  1.102435E+04
  1.101807E+04
  1.101079E+04
  1.100167E+04
  1.099254E+04
  1.098342E+04
  1.097430E+04
  1.096518E+04
  1.095606E+04
  1.094664E+04
  1.093476E+04
  1.092289E+04
  1.091102E+04
  1.089914E+04
  1.088727E+04
  1.087540E+04
  1.086284E+04
  1.084800E+04
  1.083316E+04
  1.081832E+04
  1.080349E+04
  1.078865E+04
  1.077381E+04
  1.075685E+04
  1.073896E+04
  1.072107E+04
  1.070317E+04
  1.068528E+04
  1.066739E+04
  1.064796E+04
  1.062691E+04
  1.060585E+04
  1.058479E+04
  1.056374E+04
  1.054269E+04
  1.051962E+04
  1.049515E+04
  1.047068E+04
  1.044622E+04
  1.042175E+04
  1.039728E+04
  1.036916E+04
  1.034098E+04
  1.031280E+04
  1.028462E+04
  1.025644E+04
  1.022565E+04
  1.019353E+04
  1.016141E+04
  1.012929E+04
  1.009717E+04
  1.006257E+04
  1.002633E+04
  9.990100E+03
  9.953873E+03
  9.917650E+03
  9.878041E+03
  9.837586E+03
  9.797135E+03
  9.756688E+03
  9.715250E+03
  9.670582E+03
  9.625917E+03
  9.581256E+03
  9.536599E+03
  9.488276E+03
  9.439546E+03
  9.390820E+03
  9.342097E+03
  9.290399E+03
  9.237864E+03
  9.185334E+03
  9.132808E+03
  9.077433E+03
  9.021626E+03
  8.965824E+03
  8.909636E+03
  8.851237E+03
  8.792844E+03
  8.734459E+03
  8.674704E+03
  8.614110E+03
  8.553528E+03
  8.492392E+03
  8.429688E+03
  8.367006E+03
  8.304193E+03
  8.239514E+03
  8.174869E+03
  8.110145E+03
  8.043206E+03
  7.976306E+03
  7.908906E+03
  7.838938E+03
  7.769007E+03
  7.697444E+03
  7.623774E+03
  7.550137E+03
  7.473030E+03
  7.395293E+03
  7.315975E+03
  7.234013E+03
  7.151931E+03
  7.065767E+03
  6.979621E+03
  6.890172E+03
  6.799947E+03
  6.706946E+03
  6.612723E+03
  6.515747E+03
  6.417507E+03
  6.316219E+03
  6.214060E+03
  6.108368E+03
  6.001745E+03
  5.892582E+03
  5.781583E+03
  5.669236E+03
  5.554172E+03
  5.437487E+03
  5.319088E+03
  5.198232E+03
  5.074769E+03
  4.949080E+03
  4.821421E+03
  4.693194E+03
  4.568839E+03
  4.458792E+03
  4.380742E+03
  4.369906E+03
  4.463412E+03
  4.428938E+03
  3.988877E+03
  4.486017E+03
  1.342685E+03
 -1.269034E-04
  6.355420E+02
  6.352414E+02
  6.349410E+02
  6.346411E+02
  6.343416E+02
  6.340425E+02
  6.337437E+02
  6.334453E+02
  6.331473E+02
  6.327128E+02
  6.322752E+02
  6.318381E+02
  6.314012E+02
  6.309648E+02
  6.305287E+02
  6.300930E+02
  6.297226E+02
  6.294714E+02
  6.292204E+02
  6.289697E+02
  6.287191E+02
  6.284688E+02
  6.282187E+02
  6.279605E+02
  6.276370E+02
  6.273135E+02
  6.269902E+02
  6.266670E+02
  6.263440E+02
  6.260211E+02
  6.256625E+02
  6.251849E+02
  6.247074E+02
  6.242300E+02
  6.237527E+02
  6.232754E+02
  6.227982E+02
  6.222440E+02
  6.216562E+02
  6.210684E+02
  6.204806E+02
  6.198928E+02
  6.193049E+02
  6.186805E+02
  6.180174E+02
  6.173542E+02
  6.166910E+02
  6.160277E+02
  6.153643E+02
  6.146570E+02
  6.139188E+02
  6.131805E+02
  6.124422E+02
  6.117037E+02
  6.109651E+02
  6.101412E+02
  6.093158E+02
  6.084904E+02
  6.076648E+02
  6.068390E+02
  6.059544E+02
  6.050396E+02
  6.041246E+02
  6.032095E+02
  6.022942E+02
  6.013056E+02
  6.002689E+02
  5.992320E+02
  5.981949E+02
  5.971578E+02
  5.959829E+02
  5.947733E+02
  5.935636E+02
  5.923538E+02
  5.910983E+02
  5.896945E+02
  5.882906E+02
  5.868865E+02
  5.854823E+02
  5.838422E+02
  5.821755E+02
  5.805088E+02
  5.788421E+02
  5.768613E+02
  5.747920E+02
  5.727227E+02
  5.706535E+02
  5.681613E+02
  5.656045E+02
  5.630479E+02
  5.604141E+02
  5.573397E+02
  5.542664E+02
  5.511942E+02
  5.477333E+02
  5.440339E+02
  5.403373E+02
  5.364593E+02
  5.320688E+02
  5.276843E+02
  5.232669E+02
  5.183827E+02
  5.135070E+02
  5.086287E+02
  5.035397E+02
  4.984597E+02
  4.933822E+02
  4.882825E+02
  4.831906E+02
  4.781650E+02
  4.732206E+02
  4.682820E+02
  4.635934E+02
  4.589540E+02
  4.544677E+02
  4.502318E+02
  4.460121E+02
  4.422418E+02
  4.384702E+02
  4.351330E+02
  4.318967E+02
  4.290504E+02
  4.263743E+02
  4.240568E+02
  4.219025E+02
  4.201460E+02
  4.185026E+02
  4.173838E+02
  4.164308E+02
  4.159409E+02
  4.158739E+02
  4.161300E+02
  4.171636E+02
  4.187542E+02
  4.209579E+02
  4.241080E+02
  4.284012E+02
  4.339050E+02
  4.410322E+02
  4.505336E+02
  4.638998E+02
  4.839798E+02
  5.154190E+02
  5.663840E+02
  6.448346E+02
  7.139180E+02
  7.269225E+02
  8.777564E+02
  2.120752E+02
  3.884298E-04
  1.815317E+03
  1.814108E+03
  1.812899E+03
  1.811691E+03
  1.810483E+03
  1.809276E+03
  1.808070E+03
  1.806865E+03
  1.805660E+03
  1.803571E+03
  1.801461E+03
  1.799352E+03
  1.797243E+03
  1.795134E+03
  1.793026E+03
  1.790919E+03
  1.788948E+03
  1.787229E+03
  1.785509E+03
  1.783790E+03
  1.782071E+03
  1.780352E+03
  1.778634E+03
  1.776885E+03
  1.774889E+03
  1.772893E+03
  1.770898E+03
  1.768902E+03
  1.766907E+03
  1.764912E+03
  1.762803E+03
  1.760313E+03
  1.757824E+03
  1.755334E+03
  1.752845E+03
  1.750356E+03
  1.747867E+03
  1.745070E+03
  1.742140E+03
  1.739209E+03
  1.736278E+03
  1.733348E+03
  1.730418E+03
  1.727223E+03
  1.723750E+03
  1.720277E+03
  1.716804E+03
  1.713332E+03
  1.709859E+03
  1.705877E+03
  1.701539E+03
  1.697201E+03
  1.692863E+03
  1.688525E+03
  1.684188E+03
  1.678689E+03
  1.673171E+03
  1.667654E+03
  1.662138E+03
  1.656622E+03
  1.650270E+03
  1.643491E+03
  1.636712E+03
  1.629934E+03
  1.623156E+03
  1.615631E+03
  1.607617E+03
  1.599604E+03
  1.591591E+03
  1.583579E+03
  1.574663E+03
  1.565521E+03
  1.556380E+03
  1.547240E+03
  1.537917E+03
  1.527999E+03
  1.518081E+03
  1.508165E+03
  1.498249E+03
  1.487969E+03
  1.477649E+03
  1.467330E+03
  1.457011E+03
  1.446525E+03
  1.435992E+03
  1.425459E+03
  1.414929E+03
  1.404501E+03
  1.394091E+03
  1.383732E+03
  1.373365E+03
  1.363561E+03
  1.353760E+03
  1.343961E+03
  1.334600E+03
  1.325513E+03
  1.316430E+03
  1.307462E+03
  1.298810E+03
  1.290168E+03
  1.281554E+03
  1.273189E+03
  1.264840E+03
  1.256505E+03
  1.248205E+03
  1.239922E+03
  1.231559E+03
  1.222737E+03
  1.213932E+03
  1.204647E+03
  1.194740E+03
  1.184848E+03
  1.173761E+03
  1.162457E+03
  1.150570E+03
  1.137704E+03
  1.124792E+03
  1.110301E+03
  1.095815E+03
  1.080103E+03
  1.064101E+03
  1.047260E+03
  1.030048E+03
  1.012247E+03
  9.941758E+02
  9.757133E+02
  9.571405E+02
  9.384593E+02
  9.198510E+02
  9.014774E+02
  8.835413E+02
  8.659492E+02
  8.493892E+02
  8.336200E+02
  8.187144E+02
  8.051399E+02
  7.931195E+02
  7.827450E+02
  7.747080E+02
  7.704826E+02
  7.734732E+02
  7.908036E+02
  8.344127E+02
  9.227585E+02
  1.070157E+03
  1.183705E+03
  1.118703E+03
  1.270525E+03
  2.067998E+02
 -9.551091E-11
  1.247068E+00
  1.246797E+00
  1.246528E+00
  1.246258E+00
  1.245988E+00
  1.245719E+00
  1.245450E+00
  1.245181E+00
  1.244913E+00
  1.244216E+00
  1.243509E+00
  1.242802E+00
  1.242095E+00
  1.241388E+00
  1.240682E+00
  1.239975E+00
  1.239156E+00
  1.238129E+00
  1.237102E+00
  1.236076E+00
  1.235049E+00
  1.234023E+00
  1.232997E+00
  1.231936E+00
  1.230600E+00
  1.229263E+00
  1.227927E+00
  1.226591E+00
  1.225255E+00
  1.223919E+00
  1.222506E+00
  1.220836E+00
  1.219166E+00
  1.217496E+00
  1.215826E+00
  1.214156E+00
  1.212486E+00
  1.210577E+00
  1.208564E+00
  1.206550E+00
  1.204537E+00
  1.202523E+00
  1.200510E+00
  1.198323E+00
  1.195953E+00
  1.193584E+00
  1.191214E+00
  1.188845E+00
  1.186475E+00
  1.183880E+00
  1.181126E+00
  1.178372E+00
  1.175618E+00
  1.172865E+00
  1.170112E+00
  1.166946E+00
  1.163775E+00
  1.160603E+00
  1.157432E+00
  1.154261E+00
  1.150797E+00
  1.147181E+00
  1.143566E+00
  1.139951E+00
  1.136337E+00
  1.132443E+00
  1.128365E+00
  1.124287E+00
  1.120210E+00
  1.116134E+00
  1.111676E+00
  1.107123E+00
  1.102571E+00
  1.098019E+00
  1.093356E+00
  1.088329E+00
  1.083302E+00
  1.078276E+00
  1.073250E+00
  1.067812E+00
  1.062328E+00
  1.056844E+00
  1.051361E+00
  1.045543E+00
  1.039630E+00
  1.033719E+00
  1.027807E+00
  1.021576E+00
  1.015295E+00
  1.009015E+00
  1.002692E+00
  9.961194E-01
  9.895478E-01
  9.829771E-01
  9.762523E-01
  9.694330E-01
  9.626151E-01
  9.557349E-01
  9.486782E-01
  9.416240E-01
  9.345550E-01
  9.272760E-01
  9.200008E-01
  9.127167E-01
  9.051835E-01
  8.976545E-01
  8.900693E-01
  8.821951E-01
  8.743251E-01
  8.662713E-01
  8.579806E-01
  8.496934E-01
  8.410158E-01
  8.322672E-01
  8.233408E-01
  8.141167E-01
  8.048792E-01
  7.951824E-01
  7.854874E-01
  7.754209E-01
  7.652669E-01
  7.548006E-01
  7.441967E-01
  7.332830E-01
  7.222270E-01
  7.108281E-01
  6.993311E-01
  6.874365E-01
  6.754371E-01
  6.631520E-01
  6.506601E-01
  6.380166E-01
  6.250672E-01
  6.119355E-01
  5.986109E-01
  5.850098E-01
  5.711152E-01
  5.569701E-01
  5.426034E-01
  5.281727E-01
  5.141777E-01
  5.017931E-01
  4.930092E-01
  4.917897E-01
  5.023130E-01
  4.984333E-01
  4.489087E-01
  5.048569E-01
  1.511059E-01
 -1.428172E-08
  1.134688E+00
  1.134151E+00
  1.133615E+00
  1.133080E+00
  1.132545E+00
  1.132011E+00
  1.131478E+00
  1.130945E+00
  1.130413E+00
  1.129637E+00
  1.128856E+00
  1.128075E+00
  1.127295E+00
  1.126516E+00
  1.125738E+00
  1.124960E+00
  1.124298E+00
  1.123850E+00
  1.123402E+00
  1.122954E+00
  1.122507E+00
  1.122060E+00
  1.121613E+00
  1.121152E+00
  1.120575E+00
  1.119997E+00
  1.119420E+00
  1.118843E+00
  1.118266E+00
  1.117690E+00
  1.117049E+00
  1.116197E+00
  1.115344E+00
  1.114492E+00
  1.113640E+00
  1.112788E+00
  1.111936E+00
  1.110946E+00
  1.109897E+00
  1.108847E+00
  1.107798E+00
  1.106748E+00
  1.105699E+00
  1.104584E+00
  1.103400E+00
  1.102216E+00
  1.101032E+00
  1.099848E+00
  1.098663E+00
  1.097400E+00
  1.096082E+00
  1.094764E+00
  1.093446E+00
  1.092128E+00
  1.090809E+00
  1.089338E+00
  1.087864E+00
  1.086391E+00
  1.084917E+00
  1.083442E+00
  1.081863E+00
  1.080230E+00
  1.078596E+00
  1.076962E+00
  1.075328E+00
  1.073563E+00
  1.071712E+00
  1.069861E+00
  1.068009E+00
  1.066158E+00
  1.064060E+00
  1.061900E+00
  1.059741E+00
  1.057581E+00
  1.055339E+00
  1.052833E+00
  1.050326E+00
  1.047819E+00
  1.045312E+00
  1.042384E+00
  1.039408E+00
  1.036433E+00
  1.033457E+00
  1.029920E+00
  1.026226E+00
  1.022532E+00
  1.018837E+00
  1.014388E+00
  1.009823E+00
  1.005258E+00
  1.000556E+00
  9.950669E-01
  9.895798E-01
  9.840948E-01
  9.779157E-01
  9.713108E-01
  9.647111E-01
  9.577873E-01
  9.499486E-01
  9.421205E-01
  9.342337E-01
  9.255136E-01
  9.168086E-01
  9.080990E-01
  8.990131E-01
  8.899433E-01
  8.808781E-01
  8.717731E-01
  8.626821E-01
  8.537093E-01
  8.448818E-01
  8.360645E-01
  8.276935E-01
  8.194104E-01
  8.114006E-01
  8.038379E-01
  7.963040E-01
  7.895727E-01
  7.828389E-01
  7.768806E-01
  7.711026E-01
  7.660209E-01
  7.612430E-01
  7.571053E-01
  7.532591E-01
  7.501231E-01
  7.471890E-01
  7.451915E-01
  7.434900E-01
  7.426153E-01
  7.424958E-01
  7.429529E-01
  7.447984E-01
  7.476382E-01
  7.515727E-01
  7.571968E-01
  7.648617E-01
  7.746881E-01
  7.874130E-01
  8.043767E-01
  8.282405E-01
  8.640910E-01
  9.202222E-01
  1.011214E+00
  1.151279E+00
  1.274620E+00
  1.297838E+00
  1.567135E+00
  3.786362E-01
  6.934975E-07
  1.266637E+00
  1.265793E+00
  1.264949E+00
  1.264106E+00
  1.263264E+00
  1.262422E+00
  1.261580E+00
  1.260739E+00
  1.259899E+00
  1.258441E+00
  1.256969E+00
  1.255497E+00
  1.254026E+00
  1.252554E+00
  1.251084E+00
  1.249613E+00
  1.248238E+00
  1.247038E+00
  1.245838E+00
  1.244639E+00
  1.243439E+00
  1.242240E+00
  1.241041E+00
  1.239821E+00
  1.238428E+00
  1.237036E+00
  1.235643E+00
  1.234251E+00
  1.232859E+00
  1.231467E+00
  1.229995E+00
  1.228258E+00
  1.226521E+00
  1.224784E+00
  1.223047E+00
  1.221310E+00
  1.219573E+00
  1.217622E+00
  1.215577E+00
  1.213532E+00
  1.211488E+00
  1.209443E+00
  1.207398E+00
  1.205170E+00
  1.202746E+00
  1.200323E+00
  1.197900E+00
  1.195476E+00
  1.193053E+00
  1.190275E+00
  1.187248E+00
  1.184221E+00
  1.181195E+00
  1.178168E+00
  1.175142E+00
  1.171304E+00
  1.167455E+00
  1.163605E+00
  1.159756E+00
  1.155907E+00
  1.151475E+00
  1.146745E+00
  1.142015E+00
  1.137286E+00
  1.132557E+00
  1.127306E+00
  1.121714E+00
  1.116123E+00
  1.110532E+00
  1.104942E+00
  1.098721E+00
  1.092342E+00
  1.085964E+00
  1.079586E+00
  1.073081E+00
  1.066160E+00
  1.059241E+00
  1.052321E+00
  1.045403E+00
  1.038230E+00
  1.031029E+00
  1.023829E+00
  1.016629E+00
  1.009312E+00
  1.001963E+00
  9.946138E-01
  9.872659E-01
  9.799901E-01
  9.727264E-01
  9.654988E-01
  9.582649E-01
  9.514243E-01
  9.445855E-01
  9.377486E-01
  9.312169E-01
  9.248759E-01
  9.185385E-01
  9.122810E-01
  9.062441E-01
  9.002139E-01
  8.942039E-01
  8.883675E-01
  8.825414E-01
  8.767262E-01
  8.709347E-01
  8.651554E-01
  8.593196E-01
  8.531640E-01
  8.470204E-01
  8.405419E-01
  8.336296E-01
  8.267275E-01
  8.189910E-01
  8.111041E-01
  8.028100E-01
  7.938328E-01
  7.848233E-01
  7.747120E-01
  7.646043E-01
  7.536415E-01
  7.424760E-01
  7.307252E-01
  7.187155E-01
  7.062950E-01
  6.936858E-01
  6.808036E-01
  6.678444E-01
  6.548096E-01
  6.418257E-01
  6.290055E-01
  6.164906E-01
  6.042157E-01
  5.926610E-01
  5.816580E-01
  5.712577E-01
  5.617861E-01
  5.533989E-01
  5.461600E-01
  5.405522E-01
  5.376040E-01
  5.396906E-01
  5.517829E-01
  5.822111E-01
  6.438544E-01
  7.467015E-01
  8.259299E-01
  7.805743E-01
  8.865083E-01
  1.442945E-01
 -6.664270E-14
  9.908222E-01
  9.906075E-01
  9.903930E-01
  9.901786E-01
  9.899644E-01
  9.897504E-01
  9.895366E-01
  9.893229E-01
  9.891094E-01
  9.885557E-01
  9.879938E-01
  9.874320E-01
  9.868703E-01
  9.863088E-01
  9.857474E-01
  9.851861E-01
  9.845350E-01
  9.837191E-01
  9.829033E-01
  9.820875E-01
  9.812719E-01
  9.804563E-01
  9.796409E-01
  9.787982E-01
  9.777363E-01
  9.766745E-01
  9.756128E-01
  9.745512E-01
  9.734897E-01
  9.724282E-01
  9.713054E-01
  9.699784E-01
  9.686514E-01
  9.673245E-01
  9.659977E-01
  9.646710E-01
  9.633443E-01
  9.618275E-01
  9.602276E-01
  9.586278E-01
  9.570280E-01
  9.554283E-01
  9.538287E-01
  9.520912E-01
  9.502084E-01
  9.483257E-01
  9.464430E-01
  9.445605E-01
  9.426780E-01
  9.406158E-01
  9.384278E-01
  9.362398E-01
  9.340521E-01
  9.318644E-01
  9.296769E-01
  9.271620E-01
  9.246422E-01
  9.221225E-01
  9.196031E-01
  9.170839E-01
  9.143310E-01
  9.114585E-01
  9.085863E-01
  9.057145E-01
  9.028429E-01
  8.997488E-01
  8.965089E-01
  8.932694E-01
  8.900303E-01
  8.867914E-01
  8.832499E-01
  8.796327E-01
  8.760159E-01
  8.723995E-01
  8.686944E-01
  8.647004E-01
  8.607068E-01
  8.567136E-01
  8.527207E-01
  8.484000E-01
  8.440429E-01
  8.396861E-01
  8.353296E-01
  8.307070E-01
  8.260097E-01
  8.213127E-01
  8.166161E-01
  8.116647E-01
  8.066747E-01
  8.016851E-01
  7.966611E-01
  7.914392E-01
  7.862179E-01
  7.809973E-01
  7.756541E-01
  7.702359E-01
  7.648186E-01
  7.593518E-01
  7.537444E-01
  7.481390E-01
  7.425217E-01
  7.367371E-01
  7.309554E-01
  7.251663E-01
  7.191790E-01
  7.131948E-01
  7.071658E-01
  7.009070E-01
  6.946514E-01
  6.882498E-01
  6.816599E-01
  6.750728E-01
  6.681758E-01
  6.612226E-01
  6.541283E-01
  6.467979E-01
  6.394569E-01
  6.317518E-01
  6.240483E-01
  6.160502E-01
  6.079829E-01
  5.996681E-01
  5.912442E-01
  5.825748E-01
  5.737926E-01
  5.647384E-01
  5.556062E-01
  5.461586E-01
  5.366278E-01
  5.268700E-01
  5.169479E-01
  5.069052E-01
  4.966194E-01
  4.861885E-01
  4.756040E-01
  4.647996E-01
  4.537617E-01
  4.425242E-01
  4.311103E-01
  4.196450E-01
  4.085251E-01
  3.986842E-01
  3.917038E-01
  3.907329E-01
  3.990911E-01
  3.960053E-01
  3.566545E-01
  4.011003E-01
  1.649010E-01
 -2.760284E-03
  5.682735E-02
  5.680046E-02
  5.677361E-02
  5.674679E-02
  5.672000E-02
  5.669325E-02
  5.666653E-02
  5.663985E-02
  5.661320E-02
  5.657434E-02
  5.653521E-02
  5.649612E-02
  5.645706E-02
  5.641803E-02
  5.637903E-02
  5.634007E-02
  5.630694E-02
  5.628448E-02
  5.626203E-02
  5.623961E-02
  5.621720E-02
  5.619481E-02
  5.617244E-02
  5.614936E-02
  5.612042E-02
  5.609150E-02
  5.606258E-02
  5.603368E-02
  5.600479E-02
  5.597592E-02
  5.594385E-02
  5.590115E-02
  5.585845E-02
  5.581576E-02
  5.577307E-02
  5.573039E-02
  5.568772E-02
  5.563817E-02
  5.558561E-02
  5.553305E-02
  5.548048E-02
  5.542792E-02
  5.537536E-02
  5.531953E-02
  5.526023E-02
  5.520093E-02
  5.514163E-02
  5.508232E-02
  5.502301E-02
  5.495977E-02
  5.489376E-02
  5.482775E-02
  5.476173E-02
  5.469570E-02
  5.462966E-02
  5.455600E-02
  5.448220E-02
  5.440840E-02
  5.433458E-02
  5.426075E-02
  5.418165E-02
  5.409986E-02
  5.401805E-02
  5.393623E-02
  5.385439E-02
  5.376600E-02
  5.367331E-02
  5.358060E-02
  5.348788E-02
  5.339515E-02
  5.329010E-02
  5.318196E-02
  5.307380E-02
  5.296563E-02
  5.285337E-02
  5.272786E-02
  5.260234E-02
  5.247680E-02
  5.235125E-02
  5.220460E-02
  5.205559E-02
  5.190656E-02
  5.175754E-02
  5.158042E-02
  5.139540E-02
  5.121038E-02
  5.102536E-02
  5.080252E-02
  5.057390E-02
  5.034531E-02
  5.010980E-02
  4.983490E-02
  4.956009E-02
  4.928539E-02
  4.897592E-02
  4.864512E-02
  4.831457E-02
  4.796780E-02
  4.757518E-02
  4.718309E-02
  4.678805E-02
  4.635125E-02
  4.591520E-02
  4.547890E-02
  4.502373E-02
  4.456937E-02
  4.411521E-02
  4.365906E-02
  4.320360E-02
  4.275405E-02
  4.231179E-02
  4.187003E-02
  4.145065E-02
  4.103567E-02
  4.063439E-02
  4.025553E-02
  3.987811E-02
  3.954094E-02
  3.920365E-02
  3.890524E-02
  3.861587E-02
  3.836140E-02
  3.812217E-02
  3.791504E-02
  3.772252E-02
  3.756560E-02
  3.741880E-02
  3.731894E-02
  3.723390E-02
  3.719028E-02
  3.718448E-02
  3.720756E-02
  3.730017E-02
  3.744257E-02
  3.763978E-02
  3.792159E-02
  3.830559E-02
  3.879781E-02
  3.943516E-02
  4.028475E-02
  4.147984E-02
  4.327520E-02
  4.608617E-02
  5.064293E-02
  5.765717E-02
  6.383366E-02
  6.499579E-02
  7.848128E-02
  2.604588E-02
  8.448763E-03
  1.623176E-01
  1.622095E-01
  1.621014E-01
  1.619933E-01
  1.618853E-01
  1.617774E-01
  1.616696E-01
  1.615618E-01
  1.614540E-01
  1.612673E-01
  1.610786E-01
  1.608900E-01
  1.607014E-01
  1.605128E-01
  1.603243E-01
  1.601359E-01
  1.599596E-01
  1.598059E-01
  1.596521E-01
  1.594984E-01
  1.593447E-01
  1.591910E-01
  1.590373E-01
  1.588809E-01
  1.587024E-01
  1.585240E-01
  1.583455E-01
  1.581671E-01
  1.579887E-01
  1.578103E-01
  1.576217E-01
  1.573991E-01
  1.571764E-01
  1.569538E-01
  1.567312E-01
  1.565087E-01
  1.562861E-01
  1.560361E-01
  1.557740E-01
  1.555120E-01
  1.552499E-01
  1.549879E-01
  1.547259E-01
  1.544403E-01
  1.541297E-01
  1.538192E-01
  1.535086E-01
  1.531981E-01
  1.528876E-01
  1.525316E-01
  1.521437E-01
  1.517558E-01
  1.513679E-01
  1.509801E-01
  1.505923E-01
  1.501006E-01
  1.496072E-01
  1.491139E-01
  1.486207E-01
  1.481275E-01
  1.475596E-01
  1.469534E-01
  1.463473E-01
  1.457412E-01
  1.451352E-01
  1.444624E-01
  1.437458E-01
  1.430293E-01
  1.423129E-01
  1.415965E-01
  1.407993E-01
  1.399819E-01
  1.391645E-01
  1.383473E-01
  1.375137E-01
  1.366268E-01
  1.357401E-01
  1.348534E-01
  1.339668E-01
  1.330477E-01
  1.321249E-01
  1.312022E-01
  1.302796E-01
  1.293419E-01
  1.284001E-01
  1.274584E-01
  1.265168E-01
  1.255844E-01
  1.246536E-01
  1.237274E-01
  1.228003E-01
  1.219237E-01
  1.210473E-01
  1.201712E-01
  1.193341E-01
  1.185215E-01
  1.177093E-01
  1.169074E-01
  1.161337E-01
  1.153608E-01
  1.145905E-01
  1.138424E-01
  1.130956E-01
  1.123501E-01
  1.116076E-01
  1.108666E-01
  1.101184E-01
  1.093292E-01
  1.085415E-01
  1.077108E-01
  1.068246E-01
  1.059397E-01
  1.049479E-01
  1.039368E-01
  1.028736E-01
  1.017229E-01
  1.005681E-01
  9.927225E-02
  9.797685E-02
  9.657200E-02
  9.514121E-02
  9.363551E-02
  9.209668E-02
  9.050530E-02
  8.888977E-02
  8.723933E-02
  8.557903E-02
  8.390911E-02
  8.224569E-02
  8.060327E-02
  7.899997E-02
  7.742739E-02
  7.594709E-02
  7.453746E-02
  7.320500E-02
  7.199153E-02
  7.091696E-02
  6.998950E-02
  6.927098E-02
  6.889320E-02
  6.916051E-02
  7.070994E-02
  7.460898E-02
  8.250798E-02
  9.568688E-02
  1.058388E-01
  1.000257E-01
  1.135992E-01
  2.539798E-02
 -2.077464E-09
  9.909517E-01
  9.907371E-01
  9.905227E-01
  9.903084E-01
  9.900943E-01
  9.898804E-01
  9.896666E-01
  9.894530E-01
  9.892396E-01
  9.886862E-01
  9.881245E-01
  9.875629E-01
  9.870014E-01
  9.864401E-01
  9.858789E-01
  9.853179E-01
  9.846671E-01
  9.838514E-01
  9.830359E-01
  9.822205E-01
  9.814051E-01
  9.805898E-01
  9.797747E-01
  9.789322E-01
  9.778707E-01