 Title = "ADflow Slice Data"
Variables =  "CoordinateX"  "CoordinateY"  "CoordinateZ"  "XoC"  "YoC"  "ZoC" "VelocityX" "VelocityY" "VelocityZ" "CoefPressure" "Mach" 
Zone T= "Slice_0001 None Relative Regular z = 0.10000000"
 Nodes =          114  Elements=          106  ZONETYPE=FELINESEG
 DATAPACKING=POINT
  7.301402E-01  6.745099E-02  1.000000E-01  7.450342E-01  5.894984E-02  1.416122E-17  2.556448E-02 -4.235987E-03 -1.913040E-04 -4.355711E-01  0.000000E+00
  7.043967E-01  7.157015E-02  1.000000E-01  7.187649E-01  6.315312E-02 -4.248366E-17  2.689415E-02 -4.147759E-03 -1.895637E-04 -4.701974E-01  0.000000E+00
  6.775455E-01  7.556026E-02  1.000000E-01  6.913653E-01  6.722473E-02  3.965142E-16  2.803144E-02 -4.017174E-03 -1.861551E-04 -5.026470E-01  0.000000E+00
  6.496792E-01  7.940698E-02  1.000000E-01  6.629299E-01  7.115002E-02  4.248366E-17  2.901297E-02 -3.875803E-03 -1.811059E-04 -5.361342E-01  0.000000E+00
  6.209097E-01  8.311994E-02  1.000000E-01  6.335728E-01  7.493880E-02 -2.832244E-17  2.994737E-02 -3.734795E-03 -1.745570E-04 -5.729162E-01  0.000000E+00
  5.913667E-01  8.667304E-02  1.000000E-01  6.034264E-01  7.856447E-02 -2.832244E-17  3.096770E-02 -3.583897E-03 -1.666927E-04 -6.133635E-01  0.000000E+00
  5.611982E-01  9.002405E-02  1.000000E-01  5.726418E-01  8.198391E-02  0.000000E+00  3.217365E-02 -3.415143E-03 -1.576134E-04 -6.583894E-01  0.000000E+00
  5.305654E-01  9.312055E-02  1.000000E-01  5.413833E-01  8.514366E-02 -5.664488E-17  3.363709E-02 -3.219457E-03 -1.473738E-04 -7.097762E-01  0.000000E+00
  4.996398E-01  9.590991E-02  1.000000E-01  5.098261E-01  8.798999E-02  0.000000E+00  3.542427E-02 -2.972267E-03 -1.360731E-04 -7.686347E-01  0.000000E+00
  4.685986E-01  9.831625E-02  1.000000E-01  4.781510E-01  9.044548E-02  1.416122E-17  3.758730E-02 -2.627018E-03 -1.239093E-04 -8.333873E-01  0.000000E+00
  4.376215E-01  1.002448E-01  1.000000E-01  4.465413E-01  9.241344E-02 -8.496732E-17  4.010862E-02 -2.134096E-03 -1.111494E-04 -9.002311E-01  0.000000E+00
  4.068895E-01  1.016046E-01  1.000000E-01  4.151816E-01  9.380099E-02  0.000000E+00  4.286963E-02 -1.456047E-03 -9.812451E-05 -9.644717E-01  0.000000E+00
  3.765814E-01  1.023253E-01  1.000000E-01  3.842545E-01  9.453638E-02 -5.664488E-17  4.566754E-02 -5.954019E-04 -8.523882E-05 -1.023466E+00  0.000000E+00
  3.468696E-01  1.023935E-01  1.000000E-01  3.539359E-01  9.460600E-02 -5.664488E-17  4.833252E-02  4.268688E-04 -7.300151E-05 -1.076001E+00  0.000000E+00
  3.179133E-01  1.018128E-01  1.000000E-01  3.243882E-01  9.401344E-02 -2.832244E-17  5.080376E-02  1.599038E-03 -6.192780E-05 -1.121719E+00  0.000000E+00
  2.898519E-01  1.006030E-01  1.000000E-01  2.957537E-01  9.277890E-02 -4.248366E-17  5.309246E-02  2.898041E-03 -5.230910E-05 -1.163789E+00  0.000000E+00
  2.628044E-01  9.880643E-02  1.000000E-01  2.681538E-01  9.094566E-02  0.000000E+00  5.527496E-02  4.311895E-03 -4.414006E-05 -1.206298E+00  0.000000E+00
  9.800000E-01  1.209051E-02  1.000000E-01  9.999970E-01  2.458706E-03 -2.832244E-17  1.060524E-02 -1.316284E-02 -2.004911E-04 -5.646202E-02  0.000000E+00
  9.720124E-01  1.422033E-02  1.000000E-01  9.918462E-01  4.632027E-03 -2.832244E-17  1.212470E-02 -3.303981E-03 -1.881592E-04  6.888703E-02  0.000000E+00
  9.632634E-01  1.656696E-02  1.000000E-01  9.829186E-01  7.026581E-03 -2.832244E-17  9.081548E-03 -2.373019E-03 -1.596357E-04  2.207377E-02  0.000000E+00
  9.536907E-01  1.911892E-02  1.000000E-01  9.731504E-01  9.630658E-03 -2.832244E-17  7.175998E-03 -1.902476E-03 -1.397426E-04  4.191005E-03  0.000000E+00
  9.432303E-01  2.186052E-02  1.000000E-01  9.624763E-01  1.242825E-02  1.416122E-17  6.742221E-03 -1.751369E-03 -1.326884E-04 -1.562721E-02  0.000000E+00
  9.318220E-01  2.479514E-02  1.000000E-01  9.508350E-01  1.542281E-02  1.416122E-17  7.454173E-03 -1.896131E-03 -1.348901E-04 -4.143328E-02  0.000000E+00
  9.194070E-01  2.792588E-02  1.000000E-01  9.381665E-01  1.861749E-02 -8.496732E-17  8.816463E-03 -2.196704E-03 -1.416877E-04 -6.920357E-02  0.000000E+00
  9.059278E-01  3.125078E-02  1.000000E-01  9.244120E-01  2.201030E-02 -5.664488E-17  1.041828E-02 -2.536344E-03 -1.498395E-04 -9.879953E-02  0.000000E+00
  8.913299E-01  3.476387E-02  1.000000E-01  9.095159E-01  2.559513E-02  0.000000E+00  1.205509E-02 -2.861540E-03 -1.577454E-04 -1.307557E-01  0.000000E+00
  8.755643E-01  3.845965E-02  1.000000E-01  8.934284E-01  2.936640E-02 -2.832244E-17  1.369421E-02 -3.163008E-03 -1.649716E-04 -1.651870E-01  0.000000E+00
  8.585885E-01  4.232715E-02  1.000000E-01  8.761058E-01  3.331289E-02  4.106754E-16  1.537885E-02 -3.444365E-03 -1.716376E-04 -2.016673E-01  0.000000E+00
  8.403666E-01  4.634377E-02  1.000000E-01  8.575118E-01  3.741154E-02  3.965142E-16  1.712919E-02 -3.702058E-03 -1.777404E-04 -2.395869E-01  0.000000E+00
  8.208730E-01  5.047946E-02  1.000000E-01  8.376201E-01  4.163169E-02 -8.496732E-17  1.891397E-02 -3.924601E-03 -1.829893E-04 -2.786135E-01  0.000000E+00
  8.000947E-01  5.470101E-02  1.000000E-01  8.164174E-01  4.593946E-02 -2.832244E-17  2.068874E-02 -4.099182E-03 -1.871131E-04 -3.184627E-01  0.000000E+00
  7.780326E-01  5.896835E-02  1.000000E-01  7.939047E-01  5.029395E-02 -2.832244E-17  2.241609E-02 -4.214485E-03 -1.899592E-04 -3.586151E-01  0.000000E+00
  7.547032E-01  6.323544E-02  1.000000E-01  7.700989E-01  5.464819E-02  4.389978E-16  2.405714E-02 -4.261077E-03 -1.914019E-04 -3.980792E-01  0.000000E+00
  7.301402E-01  6.745099E-02  1.000000E-01  7.450342E-01  5.894984E-02  2.832244E-17  2.556448E-02 -4.235987E-03 -1.913040E-04 -4.355711E-01  0.000000E+00
  2.444131E-01 -2.566312E-03  1.000000E-01  2.493868E-01 -1.249746E-02  3.681917E-16  2.787591E-02  1.276842E-03  4.416559E-05  1.675357E-01  0.000000E+00
  2.700250E-01 -1.396344E-03  1.000000E-01  2.755219E-01 -1.130359E-02 -4.248366E-17  2.812505E-02  1.264403E-03  4.654767E-05  1.657528E-01  0.000000E+00
  2.967058E-01 -2.165834E-04  1.000000E-01  3.027476E-01 -1.009974E-02 -2.832244E-17  2.849813E-02  1.296624E-03  4.976567E-05  1.578257E-01  0.000000E+00
  3.243554E-01  1.076173E-03  1.000000E-01  3.309618E-01 -8.780580E-03  4.248366E-16  2.864111E-02  1.450766E-03  5.392043E-05  1.449782E-01  0.000000E+00
  3.528511E-01  2.632022E-03  1.000000E-01  3.600396E-01 -7.192955E-03 -4.248366E-17  2.815779E-02  1.745750E-03  5.891194E-05  1.335041E-01  0.000000E+00
  3.820469E-01  4.666987E-03  1.000000E-01  3.898316E-01 -5.116428E-03  5.664488E-17  2.679109E-02  2.131311E-03  6.437327E-05  1.311406E-01  0.000000E+00
  4.117740E-01  7.349006E-03  1.000000E-01  4.201659E-01 -2.379634E-03 -5.664488E-17  2.461636E-02  2.489459E-03  6.978022E-05  1.449128E-01  0.000000E+00
  4.418498E-01  1.075317E-02  1.000000E-01  4.508559E-01  1.094055E-03 -2.832244E-17  2.207132E-02  2.683564E-03  7.471592E-05  1.750848E-01  0.000000E+00
  4.721105E-01  1.472688E-02  1.000000E-01  4.817347E-01  5.148926E-03 -5.664488E-17  1.992597E-02  2.517562E-03  7.924570E-05  2.271694E-01  0.000000E+00
  5.024968E-01  1.840506E-02  1.000000E-01  5.127415E-01  8.902224E-03  1.416122E-17  1.863850E-02  2.075511E-03  8.370672E-05  2.821771E-01  0.000000E+00
  5.328693E-01  2.146044E-02  1.000000E-01  5.437343E-01  1.202000E-02 -4.248366E-17  1.800365E-02  1.673147E-03  8.835377E-05  3.090165E-01  0.000000E+00
  5.630297E-01  2.401975E-02  1.000000E-01  5.745108E-01  1.463158E-02  1.416122E-17  1.766148E-02  1.400770E-03  9.326678E-05  3.161932E-01  0.000000E+00
  5.927917E-01  2.621374E-02  1.000000E-01  6.048805E-01  1.687038E-02  5.664488E-17  1.733983E-02  1.220645E-03  9.811024E-05  3.218721E-01  0.000000E+00
  6.219828E-01  2.816612E-02  1.000000E-01  6.346679E-01  1.886264E-02 -4.248366E-17  1.689772E-02  1.084237E-03  1.023599E-04  3.313199E-01  0.000000E+00
  6.504533E-01  2.990740E-02  1.000000E-01  6.637198E-01  2.063948E-02  5.664488E-17  1.635096E-02  9.329489E-04  1.057781E-04  3.449955E-01  0.000000E+00
  6.780742E-01  3.135883E-02  1.000000E-01  6.919048E-01  2.212055E-02  4.531590E-16  1.580793E-02  7.353794E-04  1.084820E-04  3.609395E-01  0.000000E+00
  7.047326E-01  3.242370E-02  1.000000E-01  7.191077E-01  2.320718E-02  0.000000E+00  1.538472E-02  4.972036E-04  1.107720E-04  3.755101E-01  0.000000E+00
  1.215943E-04  9.343253E-03  1.000000E-01  1.060953E-04 -3.446570E-04 -5.664488E-17 -4.535185E-02  8.090057E-02  6.921837E-05  7.520104E-01  0.000000E+00
  4.902502E-03  3.675867E-03  1.000000E-01  4.984645E-03 -6.127791E-03 -8.496732E-17 -1.678161E-02  1.955252E-02  5.451949E-05  9.382454E-01  0.000000E+00
  1.254908E-02  3.631715E-05  1.000000E-01  1.278739E-02 -9.841673E-03 -2.832244E-17  7.882976E-03 -2.055190E-03  4.073071E-05  5.431608E-01  0.000000E+00
  2.163699E-02 -2.350460E-03  1.000000E-01  2.206091E-02 -1.227720E-02  1.416122E-17  2.165540E-02 -4.461563E-03  3.476304E-05  3.417163E-01  0.000000E+00
  3.184423E-02 -4.025179E-03  1.000000E-01  3.247661E-02 -1.398612E-02 -2.832244E-17  2.740743E-02 -3.594807E-03  3.396162E-05  3.077474E-01  0.000000E+00
  4.311596E-02 -5.198025E-03  1.000000E-01  4.397855E-02 -1.518292E-02 -8.496732E-17  2.960290E-02 -2.379192E-03  3.445522E-05  2.724896E-01  0.000000E+00
  5.546913E-02 -5.912199E-03  1.000000E-01  5.658402E-02 -1.591168E-02  1.416122E-17  3.026868E-02 -1.405646E-03  3.516208E-05  2.399314E-01  0.000000E+00
  6.891473E-02 -6.381407E-03  1.000000E-01  7.030422E-02 -1.639047E-02 -8.496732E-17  3.050580E-02 -8.737616E-04  3.593394E-05  2.279180E-01  0.000000E+00
  8.348882E-02 -6.712295E-03  1.000000E-01  8.517597E-02 -1.672812E-02  5.664488E-17  3.063076E-02 -5.244161E-04  3.663493E-05  2.158376E-01  0.000000E+00
  9.923792E-02 -6.898772E-03  1.000000E-01  1.012467E-01 -1.691840E-02 -9.912854E-17  3.060121E-02 -1.662196E-04  3.727453E-05  1.969080E-01  0.000000E+00
  1.162051E-01 -6.883099E-03  1.000000E-01  1.185604E-01 -1.690241E-02 -8.496732E-17  3.038071E-02  2.012305E-04  3.793138E-05  1.800458E-01  0.000000E+00
  1.344203E-01 -6.657742E-03  1.000000E-01  1.371476E-01 -1.667245E-02 -8.496732E-17  2.999302E-02  5.229509E-04  3.863232E-05  1.707271E-01  0.000000E+00
  1.539027E-01 -6.219843E-03  1.000000E-01  1.570280E-01 -1.622561E-02  4.389978E-16  2.945799E-02  8.000853E-04  3.936651E-05  1.656791E-01  0.000000E+00
  1.746592E-01 -5.558541E-03  1.000000E-01  1.782083E-01 -1.555080E-02  3.257081E-16  2.885039E-02  1.019570E-03  4.018004E-05  1.637323E-01  0.000000E+00
  1.966815E-01 -4.702630E-03  1.000000E-01  2.006804E-01 -1.467741E-02 -2.832244E-17  2.830093E-02  1.165618E-03  4.116527E-05  1.649038E-01  0.000000E+00
  2.199461E-01 -3.690526E-03  1.000000E-01  2.244202E-01 -1.364463E-02 -4.248366E-17  2.793988E-02  1.249822E-03  4.243851E-05  1.667590E-01  0.000000E+00
  2.444131E-01 -2.566312E-03  1.000000E-01  2.493868E-01 -1.249746E-02  3.823529E-16  2.787591E-02  1.276842E-03  4.416559E-05  1.675357E-01  0.000000E+00
  7.047326E-01  3.242370E-02  1.000000E-01  7.191077E-01  2.320718E-02 -2.832244E-17  1.538472E-02  4.972036E-04  1.107720E-04  3.755101E-01  0.000000E+00
  7.303325E-01  3.304123E-02  1.000000E-01  7.452304E-01  2.383731E-02 -2.832244E-17  1.517279E-02  2.321686E-04  1.129876E-04  3.863375E-01  0.000000E+00
  7.547951E-01  3.318903E-02  1.000000E-01  7.701927E-01  2.398814E-02  4.389978E-16  1.524656E-02 -6.249649E-05  1.154366E-04  3.932497E-01  0.000000E+00
  7.780600E-01  3.285200E-02  1.000000E-01  7.939327E-01  2.364421E-02  1.416122E-17  1.566037E-02 -4.012770E-04  1.183434E-04  3.960166E-01  0.000000E+00
  8.000833E-01  3.204238E-02  1.000000E-01  8.164057E-01  2.281806E-02 -4.248366E-17  1.642569E-02 -7.982164E-04  1.217993E-04  3.939421E-01  0.000000E+00
  8.208376E-01  3.079286E-02  1.000000E-01  8.375839E-01  2.154303E-02 -2.832244E-17  1.747540E-02 -1.237290E-03  1.256783E-04  3.859729E-01  0.000000E+00
  8.403144E-01  2.921138E-02  1.000000E-01  8.574586E-01  1.992925E-02  4.389978E-16  1.864866E-02 -1.653472E-03  1.296102E-04  3.712923E-01  0.000000E+00
  8.585258E-01  2.746077E-02  1.000000E-01  8.760418E-01  1.814288E-02  3.965142E-16  1.974874E-02 -1.980263E-03  1.331070E-04  3.524084E-01  0.000000E+00
  8.754993E-01  2.568467E-02  1.000000E-01  8.933620E-01  1.633051E-02 -2.832244E-17  2.063136E-02 -2.199889E-03  1.356830E-04  3.335539E-01  0.000000E+00
  8.912718E-01  2.396627E-02  1.000000E-01  9.094567E-01  1.457702E-02 -2.832244E-17  2.128107E-02 -2.370238E-03  1.370361E-04  3.184210E-01  0.000000E+00
  9.058836E-01  2.229866E-02  1.000000E-01  9.243669E-01  1.287534E-02 -4.248366E-17  2.182285E-02 -2.577056E-03  1.372633E-04  3.076204E-01  0.000000E+00
  9.193796E-01  2.064603E-02  1.000000E-01  9.381385E-01  1.118896E-02 -5.664488E-17  2.244938E-02 -2.848423E-03  1.370595E-04  2.964847E-01  0.000000E+00
  9.318118E-01  1.900890E-02  1.000000E-01  9.508246E-01  9.518396E-03  4.248366E-17  2.336419E-02 -3.200716E-03  1.378539E-04  2.823382E-01  0.000000E+00
  9.432349E-01  1.738179E-02  1.000000E-01  9.624810E-01  7.858052E-03 -2.832244E-17  2.460684E-02 -3.650193E-03  1.406986E-04  2.657169E-01  0.000000E+00
  9.537058E-01  1.576436E-02  1.000000E-01  9.731658E-01  6.207588E-03  0.000000E+00  2.553705E-02 -4.096041E-03  1.431850E-04  2.410486E-01  0.000000E+00
  9.632829E-01  1.416087E-02  1.000000E-01  9.829384E-01  4.571353E-03 -2.832244E-17  2.455436E-02 -4.285075E-03  1.375169E-04  2.062751E-01  0.000000E+00
  9.720275E-01  1.260386E-02  1.000000E-01  9.918617E-01  2.982543E-03  0.000000E+00  2.086867E-02 -3.734776E-03  1.184573E-04  2.037524E-01  0.000000E+00
  9.800000E-01  1.111529E-02  1.000000E-01  9.999970E-01  1.463570E-03  1.416122E-17  1.389379E-02  4.375651E-03  7.587737E-05 -1.002926E-02  0.000000E+00
  1.215943E-04  1.002392E-02  1.000000E-01  1.060953E-04  3.499160E-04 -9.912854E-17  2.284896E-02  5.297850E-02  3.347415E-05  4.591338E-01  0.000000E+00
  7.278129E-05  9.909265E-03  1.000000E-01  5.628530E-05  2.329145E-04  1.416122E-17  1.553088E-02  7.596443E-02  4.603897E-05  2.993565E-01  0.000000E+00
  1.762252E-05  9.681012E-03  1.000000E-01  0.000000E+00  0.000000E+00  0.000000E+00 -1.211653E-02  1.218020E-01  6.654225E-05  3.393063E-01  0.000000E+00
  8.694958E-05  9.455846E-03  1.000000E-01  7.074295E-05 -2.297651E-04  0.000000E+00 -5.077604E-02  1.318454E-01  7.600425E-05  3.883920E-01  0.000000E+00
  1.215943E-04  9.343253E-03  1.000000E-01  1.060953E-04 -3.446570E-04 -4.248366E-17 -4.535185E-02  8.090057E-02  6.921837E-05  7.520104E-01  0.000000E+00
  9.800000E-01  1.111529E-02  1.000000E-01  9.999970E-01  1.463570E-03  0.000000E+00  1.389379E-02  4.375651E-03  7.587737E-05 -1.002926E-02  0.000000E+00
  9.800000E-01  1.127783E-02  1.000000E-01  9.999970E-01  1.629426E-03  0.000000E+00  4.508945E-03 -1.536866E-03 -1.297237E-05 -2.109453E-01  0.000000E+00
  9.800000E-01  1.160290E-02  1.000000E-01  9.999970E-01  1.961138E-03 -2.832244E-17 -4.415514E-04 -1.595721E-02 -1.131026E-04 -1.753114E-01  0.000000E+00
  9.800000E-01  1.192797E-02  1.000000E-01  9.999970E-01  2.292850E-03 -5.664488E-17  3.431571E-03 -1.964542E-02 -1.758966E-04 -1.936992E-01  0.000000E+00
  9.800000E-01  1.209051E-02  1.000000E-01  9.999970E-01  2.458706E-03  0.000000E+00  1.060524E-02 -1.316284E-02 -2.004911E-04 -5.646202E-02  0.000000E+00
  2.628044E-01  9.880643E-02  1.000000E-01  2.681538E-01  9.094566E-02 -2.832244E-17  5.527496E-02  4.311895E-03 -4.414006E-05 -1.206298E+00  0.000000E+00
  2.368706E-01  9.647242E-02  1.000000E-01  2.416903E-01  8.856398E-02  3.681917E-16  5.750707E-02  5.924950E-03 -3.724707E-05 -1.246259E+00  0.000000E+00
  2.121362E-01  9.359334E-02  1.000000E-01  2.164508E-01  8.562611E-02  1.416122E-17  5.981632E-02  7.812372E-03 -3.138287E-05 -1.276869E+00  0.000000E+00
  1.886687E-01  9.018671E-02  1.000000E-01  1.925040E-01  8.214990E-02 -4.248366E-17  6.202366E-02  9.952267E-03 -2.630246E-05 -1.293238E+00  0.000000E+00
  1.665185E-01  8.628459E-02  1.000000E-01  1.699014E-01  7.816809E-02  4.814815E-16  6.390101E-02  1.227805E-02 -2.183927E-05 -1.292896E+00  0.000000E+00
  1.457161E-01  8.194383E-02  1.000000E-01  1.486742E-01  7.373867E-02  4.531590E-16  6.529528E-02  1.471602E-02 -1.788510E-05 -1.277421E+00  0.000000E+00
  1.262764E-01  7.722408E-02  1.000000E-01  1.288374E-01  6.892253E-02  0.000000E+00  6.618936E-02  1.722964E-02 -1.433623E-05 -1.252020E+00  0.000000E+00
  1.081990E-01  7.218503E-02  1.000000E-01  1.103908E-01  6.378056E-02  0.000000E+00  6.662018E-02  1.979532E-02 -1.105211E-05 -1.223795E+00  0.000000E+00
  9.146971E-02  6.688900E-02  1.000000E-01  9.331985E-02  5.837637E-02  0.000000E+00  6.669726E-02  2.256779E-02 -7.914937E-06 -1.187942E+00  0.000000E+00
  7.608258E-02  6.133163E-02  1.000000E-01  7.761846E-02  5.270550E-02  0.000000E+00  6.637865E-02  2.571840E-02 -4.873137E-06 -1.126106E+00  0.000000E+00
  6.202881E-02  5.550224E-02  1.000000E-01  6.327767E-02  4.675705E-02 -5.664488E-17  6.532697E-02  2.910800E-02 -1.930089E-06 -1.021099E+00  0.000000E+00
  4.929579E-02  4.941769E-02  1.000000E-01  5.028459E-02  4.054824E-02 -8.496732E-17  6.318491E-02  3.218810E-02  9.076582E-07 -8.779575E-01  0.000000E+00
  3.782553E-02  4.318868E-02  1.000000E-01  3.858008E-02  3.419201E-02  4.248366E-17  6.008777E-02  3.474060E-02  3.691468E-06 -7.234778E-01  0.000000E+00
  2.757469E-02  3.686902E-02  1.000000E-01  2.811988E-02  2.774328E-02 -2.832244E-17  5.653795E-02  3.700478E-02  6.691210E-06 -6.053121E-01  0.000000E+00
  1.848362E-02  3.053539E-02  1.000000E-01  1.884314E-02  2.128030E-02  5.664488E-17  5.321121E-02  4.043151E-02  1.068753E-05 -5.076492E-01  0.000000E+00
  1.064273E-02  2.406190E-02  1.000000E-01  1.084211E-02  1.467459E-02  1.416122E-17  4.945759E-02  4.664962E-02  1.708316E-05 -2.679664E-01  0.000000E+00
  4.262692E-03  1.729855E-02  1.000000E-01  4.331768E-03  7.773116E-03  1.416122E-17  4.009775E-02  5.389044E-02  2.607581E-05  2.431792E-01  0.000000E+00
  1.215943E-04  1.002392E-02  1.000000E-01  1.060953E-04  3.499160E-04 -8.496732E-17  2.284896E-02  5.297850E-02  3.347415E-05  4.591338E-01  0.000000E+00
    1    2
    2    3
    3    4
    4    5
    5    6
    6    7
    7    8
    8    9
    9   10
   10   11
   11   12
   12   13
   13   14
   14   15
   15   16
   16   17
   18   19
   19   20
   20   21
   21   22
   22   23
   23   24
   24   25
   25   26
   26   27
   27   28
   28   29
   29   30
   30   31
   31   32
   32   33
   33   34
   35   36
   36   37
   37   38
   38   39
   39   40
   40   41
   41   42
   42   43
   43   44
   44   45
   45   46
   46   47
   47   48
   48   49
   49   50
   50   51
   52   53
   53   54
   54   55
   55   56
   56   57
   57   58
   58   59
   59   60
   60   61
   61   62
   62   63
   63   64
   64   65
   65   66
   66   67
   67   68
   69   70
   70   71
   71   72
   72   73
   73   74
   74   75
   75   76
   76   77
   77   78
   78   79
   79   80
   80   81
   81   82
   82   83
   83   84
   84   85
   85   86
   87   88
   88   89
   89   90
   90   91
   92   93
   93   94
   94   95
   95   96
   97   98
   98   99
   99  100
  100  101
  101  102
  102  103
  103  104
  104  105
  105  106
  106  107
  107  108
  108  109
  109  110
  110  111
  111  112
  112  113
  113  114
Zone T= "Slice_0002 None Relative Regular z = 0.36666667"
 Nodes =          114  Elements=          106  ZONETYPE=FELINESEG
 DATAPACKING=POINT
  7.301402E-01  6.672121E-02  3.666667E-01  7.450347E-01  5.822992E-02 -5.664491E-17  2.571638E-02 -4.234447E-03 -5.993753E-04 -4.286073E-01  0.000000E+00
  7.043967E-01  7.081556E-02  3.666667E-01  7.187653E-01  6.240790E-02 -1.132898E-16  2.703218E-02 -4.147455E-03 -5.915306E-04 -4.625619E-01  0.000000E+00
  6.775455E-01  7.478692E-02  3.666667E-01  6.913657E-01  6.646037E-02  3.058825E-14  2.815611E-02 -4.020184E-03 -5.795777E-04 -4.944439E-01  0.000000E+00
  6.496792E-01  7.862265E-02  3.666667E-01  6.629303E-01  7.037444E-02 -1.699347E-16  2.912466E-02 -3.883930E-03 -5.642739E-04 -5.274692E-01  0.000000E+00
  6.209097E-01  8.233383E-02  3.666667E-01  6.335732E-01  7.416141E-02  0.000000E+00  3.004603E-02 -3.749395E-03 -5.464634E-04 -5.638824E-01  0.000000E+00
  5.913667E-01  8.589543E-02  3.666667E-01  6.034268E-01  7.779575E-02  1.132898E-16  3.105290E-02 -3.606050E-03 -5.266808E-04 -6.040628E-01  0.000000E+00
  5.611982E-01  8.926584E-02  3.666667E-01  5.726422E-01  8.123501E-02  2.265797E-16  3.224592E-02 -3.445865E-03 -5.047863E-04 -6.489364E-01  0.000000E+00
  5.305654E-01  9.239259E-02  3.666667E-01  5.413837E-01  8.442562E-02  1.132898E-16  3.369989E-02 -3.259730E-03 -4.802348E-04 -7.002847E-01  0.000000E+00
  4.996398E-01  9.522210E-02  3.666667E-01  5.098265E-01  8.731292E-02 -1.699347E-16  3.548515E-02 -3.022935E-03 -4.524931E-04 -7.592097E-01  0.000000E+00
  4.685986E-01  9.767681E-02  3.666667E-01  4.781512E-01  8.981776E-02  1.132898E-16  3.765686E-02 -2.688426E-03 -4.213029E-04 -8.241293E-01  0.000000E+00
  4.376215E-01  9.965966E-02  3.666667E-01  4.465415E-01  9.184111E-02 -5.664491E-17  4.019765E-02 -2.205605E-03 -3.866053E-04 -8.912500E-01  0.000000E+00
  4.068895E-01  1.010771E-01  3.666667E-01  4.151818E-01  9.328749E-02 -5.664491E-17  4.298707E-02 -1.535748E-03 -3.486582E-04 -9.559041E-01  0.000000E+00
  3.765814E-01  1.018564E-01  3.666667E-01  3.842547E-01  9.408269E-02  5.664491E-17  4.582112E-02 -6.801947E-04 -3.082615E-04 -1.015478E+00  0.000000E+00
  3.468696E-01  1.019821E-01  3.666667E-01  3.539361E-01  9.421100E-02 -5.664491E-17  4.853013E-02  3.413235E-04 -2.671323E-04 -1.068731E+00  0.000000E+00
  3.179133E-01  1.014559E-01  3.666667E-01  3.243884E-01  9.367401E-02  0.000000E+00  5.105249E-02  1.518219E-03 -2.276205E-04 -1.115200E+00  0.000000E+00
  2.898519E-01  1.002958E-01  3.666667E-01  2.957538E-01  9.249026E-02  5.664491E-17  5.339558E-02  2.827379E-03 -1.915840E-04 -1.157953E+00  0.000000E+00
  2.628044E-01  9.854360E-02  3.666667E-01  2.681540E-01  9.070226E-02  5.664491E-17  5.563037E-02  4.255629E-03 -1.598193E-04 -1.201036E+00  0.000000E+00
  9.800000E-01  1.181060E-02  3.666667E-01  9.999976E-01  2.197812E-03  5.664491E-17  1.059382E-02 -1.305854E-02 -6.394108E-04 -5.701447E-02  0.000000E+00
  9.720124E-01  1.392266E-02  3.666667E-01  9.918468E-01  4.353012E-03  0.000000E+00  1.214920E-02 -3.283498E-03 -6.034770E-04  6.945338E-02  0.000000E+00
  9.632634E-01  1.624998E-02  3.666667E-01  9.829192E-01  6.727866E-03  1.132898E-16  9.194769E-03 -2.382827E-03 -5.131242E-04  2.275959E-02  0.000000E+00
  9.536907E-01  1.878100E-02  3.666667E-01  9.731510E-01  9.310578E-03 -5.664491E-17  7.353463E-03 -1.932972E-03 -4.504944E-04  4.909736E-03  0.000000E+00
  9.432303E-01  2.149995E-02  3.666667E-01  9.624769E-01  1.208506E-02 -1.699347E-16  6.953518E-03 -1.790896E-03 -4.284050E-04 -1.482439E-02  0.000000E+00
  9.318220E-01  2.441018E-02  3.666667E-01  9.508356E-01  1.505473E-02 -5.664491E-17  7.678923E-03 -1.936749E-03 -4.353525E-04 -4.046135E-02  0.000000E+00
  9.194070E-01  2.751474E-02  3.666667E-01  9.381670E-01  1.822269E-02  0.000000E+00  9.041726E-03 -2.233736E-03 -4.565865E-04 -6.798991E-02  0.000000E+00
  9.059278E-01  3.081171E-02  3.666667E-01  9.244125E-01  2.158700E-02 -1.132898E-16  1.063770E-02 -2.567800E-03 -4.819780E-04 -9.728228E-02  0.000000E+00
  8.913299E-01  3.429517E-02  3.666667E-01  9.095165E-01  2.514161E-02  0.000000E+00  1.227013E-02 -2.887889E-03 -5.066333E-04 -1.288686E-01  0.000000E+00
  8.755643E-01  3.795974E-02  3.666667E-01  8.934289E-01  2.888103E-02 -1.132898E-16  1.391156E-02 -3.186046E-03 -5.292241E-04 -1.628574E-01  0.000000E+00
  8.585885E-01  4.179467E-02  3.666667E-01  8.761063E-01  3.279428E-02  3.098477E-14  1.560134E-02 -3.464857E-03 -5.498900E-04 -1.988268E-01  0.000000E+00
  8.403666E-01  4.577764E-02  3.666667E-01  8.575123E-01  3.685859E-02  3.098477E-14  1.735032E-02 -3.718736E-03 -5.682672E-04 -2.361705E-01  0.000000E+00
  8.208730E-01  4.987902E-02  3.666667E-01  8.376206E-01  4.104374E-02 -5.664491E-17  1.912492E-02 -3.936064E-03 -5.833207E-04 -2.745611E-01  0.000000E+00
  8.000947E-01  5.406617E-02  3.666667E-01  8.164179E-01  4.531641E-02 -5.664491E-17  2.088515E-02 -4.105390E-03 -5.942791E-04 -3.137210E-01  0.000000E+00
  7.780326E-01  5.829979E-02  3.666667E-01  7.939052E-01  4.963651E-02 -1.132898E-16  2.259720E-02 -4.216463E-03 -6.007606E-04 -3.531417E-01  0.000000E+00
  7.547032E-01  6.253483E-02  3.666667E-01  7.700993E-01  5.395804E-02  3.075819E-14  2.422340E-02 -4.260371E-03 -6.025097E-04 -3.918527E-01  0.000000E+00
  7.301402E-01  6.672121E-02  3.666667E-01  7.450347E-01  5.822992E-02 -5.664491E-17  2.571638E-02 -4.234447E-03 -5.993753E-04 -4.286073E-01  0.000000E+00
  2.444131E-01 -2.802569E-03  3.666667E-01  2.493870E-01 -1.271381E-02  3.092812E-14  2.813353E-02  1.248716E-03  1.492080E-04  1.656241E-01  0.000000E+00
  2.700250E-01 -1.671607E-03  3.666667E-01  2.755220E-01 -1.155975E-02  5.664491E-17  2.840299E-02  1.232980E-03  1.593319E-04  1.636742E-01  0.000000E+00
  2.967058E-01 -5.361389E-04  3.666667E-01  3.027478E-01 -1.040109E-02 -5.664491E-17  2.880070E-02  1.262417E-03  1.722274E-04  1.555047E-01  0.000000E+00
  3.243554E-01  7.072110E-04  3.666667E-01  3.309620E-01 -9.132351E-03  3.070154E-14  2.896595E-02  1.416116E-03  1.879769E-04  1.423278E-01  0.000000E+00
  3.528511E-01  2.209330E-03  3.666667E-01  3.600398E-01 -7.599553E-03 -5.664491E-17  2.849522E-02  1.714679E-03  2.058710E-04  1.304460E-01  0.000000E+00
  3.820469E-01  4.187808E-03  3.666667E-01  3.898318E-01 -5.580666E-03 -1.132898E-16  2.712866E-02  2.108338E-03  2.243013E-04  1.276507E-01  0.000000E+00
  4.117740E-01  6.812408E-03  3.666667E-01  4.201661E-01 -2.902461E-03  1.132898E-16  2.494323E-02  2.477594E-03  2.412955E-04  1.410342E-01  0.000000E+00
  4.418498E-01  1.016030E-02  3.666667E-01  4.508562E-01  5.138106E-04 -1.699347E-16  2.237973E-02  2.682749E-03  2.555359E-04  1.708963E-01  0.000000E+00
  4.721105E-01  1.408125E-02  3.666667E-01  4.817350E-01  4.514845E-03 -1.132898E-16  2.021575E-02  2.522513E-03  2.679816E-04  2.228101E-01  0.000000E+00
  5.024968E-01  1.771245E-02  3.666667E-01  5.127419E-01  8.220205E-03  5.664491E-17  1.891546E-02  2.080693E-03  2.800514E-04  2.777502E-01  0.000000E+00
  5.328693E-01  2.072883E-02  3.666667E-01  5.437346E-01  1.129819E-02 -2.265797E-16  1.827213E-02  1.678161E-03  2.922482E-04  3.044780E-01  0.000000E+00
  5.630297E-01  2.325887E-02  3.666667E-01  5.745111E-01  1.387990E-02  1.132898E-16  1.792253E-02  1.407253E-03  3.050933E-04  3.114763E-01  0.000000E+00
  5.927917E-01  2.543424E-02  3.666667E-01  6.048809E-01  1.609970E-02  0.000000E+00  1.759227E-02  1.229934E-03  3.179736E-04  3.170066E-01  0.000000E+00
  6.219828E-01  2.737877E-02  3.666667E-01  6.346683E-01  1.808395E-02  5.664491E-17  1.713957E-02  1.096840E-03  3.295283E-04  3.264072E-01  0.000000E+00
  6.504533E-01  2.912235E-02  3.666667E-01  6.637202E-01  1.986314E-02 -1.132898E-16  1.658081E-02  9.482506E-04  3.392377E-04  3.401370E-01  0.000000E+00
  6.780742E-01  3.058515E-02  3.666667E-01  6.919052E-01  2.135581E-02  3.092812E-14  1.602553E-02  7.521998E-04  3.475030E-04  3.562064E-01  0.000000E+00
  7.047326E-01  3.166901E-02  3.666667E-01  7.191081E-01  2.246182E-02 -5.664491E-17  1.559092E-02  5.144781E-04  3.550530E-04  3.709459E-01  0.000000E+00
  1.215943E-04  9.318978E-03  3.666667E-01  1.060954E-04 -3.446970E-04 -2.265797E-16 -4.441422E-02  7.927261E-02  2.150270E-04  7.562253E-01  0.000000E+00
  4.902502E-03  3.649729E-03  3.666667E-01  4.984648E-03 -6.129734E-03  5.664491E-17 -1.610900E-02  1.894064E-02  1.680435E-04  9.360099E-01  0.000000E+00
  1.254908E-02  7.025777E-06  3.666667E-01  1.278740E-02 -9.846837E-03  2.265797E-16  8.276081E-03 -2.217258E-03  1.244415E-04  5.389676E-01  0.000000E+00
  2.163699E-02 -2.383757E-03  3.666667E-01  2.206093E-02 -1.228645E-02  5.664491E-17  2.189933E-02 -4.525115E-03  1.057120E-04  3.380027E-01  0.000000E+00
  3.184423E-02 -4.063307E-03  3.666667E-01  3.247663E-02 -1.400030E-02  0.000000E+00  2.762763E-02 -3.637931E-03  1.033367E-04  3.047589E-01  0.000000E+00
  4.311596E-02 -5.241905E-03  3.666667E-01  4.397858E-02 -1.520297E-02 -1.132898E-16  2.983385E-02 -2.413904E-03  1.050751E-04  2.699009E-01  0.000000E+00
  5.546913E-02 -5.962894E-03  3.666667E-01  5.658405E-02 -1.593869E-02 -5.664491E-17  3.050767E-02 -1.434577E-03  1.075136E-04  2.375388E-01  0.000000E+00
  6.891473E-02 -6.440150E-03  3.666667E-01  7.030426E-02 -1.642569E-02  1.699347E-16  3.074900E-02 -9.001858E-04  1.102684E-04  2.257089E-01  0.000000E+00
  8.348882E-02 -6.780531E-03  3.666667E-01  8.517602E-02 -1.677302E-02  2.832246E-16  3.087738E-02 -5.498173E-04  1.129839E-04  2.138035E-01  0.000000E+00
  9.923792E-02 -6.978204E-03  3.666667E-01  1.012468E-01 -1.697473E-02 -1.132898E-16  3.085013E-02 -1.905803E-04  1.157264E-04  1.949998E-01  0.000000E+00
  1.162051E-01 -6.975730E-03  3.666667E-01  1.185605E-01 -1.697221E-02  5.664491E-17  3.062968E-02  1.779501E-04  1.187638E-04  1.782164E-01  0.000000E+00
  1.344203E-01 -6.765918E-03  3.666667E-01  1.371477E-01 -1.675811E-02  0.000000E+00  3.023967E-02  5.003180E-04  1.221886E-04  1.689529E-01  0.000000E+00
  1.539027E-01 -6.346303E-03  3.666667E-01  1.570281E-01 -1.632993E-02  3.064490E-14  2.970063E-02  7.776750E-04  1.259592E-04  1.639434E-01  0.000000E+00
  1.746592E-01 -5.706462E-03  3.666667E-01  1.782084E-01 -1.567702E-02  3.109806E-14  2.908944E-02  9.968267E-04  1.302128E-04  1.620091E-01  0.000000E+00
  1.966815E-01 -4.875670E-03  3.666667E-01  2.006805E-01 -1.482926E-02 -1.132898E-16  2.853981E-02  1.141818E-03  1.352347E-04  1.631597E-01  0.000000E+00
  2.199461E-01 -3.892846E-03  3.666667E-01  2.244203E-01 -1.382636E-02 -1.699347E-16  2.818448E-02  1.224265E-03  1.413879E-04  1.649551E-01  0.000000E+00
  2.444131E-01 -2.802569E-03  3.666667E-01  2.493870E-01 -1.271381E-02  3.092812E-14  2.813353E-02  1.248716E-03  1.492080E-04  1.656241E-01  0.000000E+00
  7.047326E-01  3.166901E-02  3.666667E-01  7.191081E-01  2.246182E-02 -5.664491E-17  1.559092E-02  5.144781E-04  3.550530E-04  3.709459E-01  0.000000E+00