 Title= "ADflow Lift Distribution Data"
Variables = "eta" "CoordinateX" "CoordinateY" "CoordinateZ" "Lift" "Drag" "Moment" "Normalized Lift" "Normalized Drag" "Normalized Moment" "CL" "CD" "CM" "CLp" "CDp" "CMp" "CLv" "CDv" "CMv" "Elliptical" "thickness" "twist" "chord" "fx" "fy" "fz" 
Zone T= "LiftDist_01 allWalls: : z normal"
 I=          150
 DATAPACKING=BLOCK
  0.000000E+00
  6.711405E-03
  1.342281E-02
  2.013422E-02
  2.684563E-02
  3.355704E-02
  4.026845E-02
  4.697986E-02
  5.369127E-02
  6.040268E-02
  6.711409E-02
  7.382550E-02
  8.053691E-02
  8.724832E-02
  9.395973E-02
  1.006711E-01
  1.073825E-01
  1.140940E-01
  1.208054E-01
  1.275168E-01
  1.342282E-01
  1.409396E-01
  1.476510E-01
  1.543624E-01
  1.610738E-01
  1.677852E-01
  1.744966E-01
  1.812081E-01
  1.879195E-01
  1.946309E-01
  2.013423E-01
  2.080537E-01
  2.147651E-01
  2.214765E-01
  2.281879E-01
  2.348993E-01
  2.416107E-01
  2.483221E-01
  2.550336E-01
  2.617450E-01
  2.684564E-01
  2.751678E-01
  2.818792E-01
  2.885906E-01
  2.953020E-01
  3.020134E-01
  3.087248E-01
  3.154362E-01
  3.221476E-01
  3.288591E-01
  3.355705E-01
  3.422819E-01
  3.489933E-01
  3.557047E-01
  3.624161E-01
  3.691275E-01
  3.758389E-01
  3.825503E-01
  3.892617E-01
  3.959732E-01
  4.026846E-01
  4.093960E-01
  4.161074E-01
  4.228188E-01
  4.295302E-01
  4.362416E-01
  4.429530E-01
  4.496644E-01
  4.563758E-01
  4.630872E-01
  4.697987E-01
  4.765101E-01
  4.832215E-01
  4.899329E-01
  4.966443E-01
  5.033557E-01
  5.100671E-01
  5.167785E-01
  5.234899E-01
  5.302013E-01
  5.369128E-01
  5.436242E-01
  5.503356E-01
  5.570470E-01
  5.637584E-01
  5.704698E-01
  5.771812E-01
  5.838926E-01
  5.906040E-01
  5.973154E-01
  6.040268E-01
  6.107383E-01
  6.174497E-01
  6.241611E-01
  6.308725E-01
  6.375839E-01
  6.442953E-01
  6.510067E-01
  6.577181E-01
  6.644295E-01
  6.711409E-01
  6.778524E-01
  6.845638E-01
  6.912752E-01
  6.979866E-01
  7.046980E-01
  7.114094E-01
  7.181208E-01
  7.248322E-01
  7.315436E-01
  7.382550E-01
  7.449664E-01
  7.516779E-01
  7.583893E-01
  7.651007E-01
  7.718121E-01
  7.785235E-01
  7.852349E-01
  7.919463E-01
  7.986577E-01
  8.053691E-01
  8.120805E-01
  8.187919E-01
  8.255034E-01
  8.322148E-01
  8.389262E-01
  8.456376E-01
  8.523490E-01
  8.590604E-01
  8.657718E-01
  8.724832E-01
  8.791946E-01
  8.859060E-01
  8.926175E-01
  8.993289E-01
  9.060403E-01
  9.127517E-01
  9.194631E-01
  9.261745E-01
  9.328859E-01
  9.395973E-01
  9.463087E-01
  9.530201E-01
  9.597315E-01
  9.664430E-01
  9.731544E-01
  9.798658E-01
  9.865772E-01
  9.932886E-01
  1.000000E+00
  0.000000E+00
  0.000000E+00
  0.000000E+00
  0.000000E+00
  0.000000E+00
  0.000000E+00
  0.000000E+00
  0.000000E+00
  0.000000E+00
  0.000000E+00
  0.000000E+00
  0.000000E+00
  0.000000E+00
  0.000000E+00
  0.000000E+00
  0.000000E+00
  0.000000E+00
  0.000000E+00
  0.000000E+00
  0.000000E+00
  0.000000E+00
  0.000000E+00
  0.000000E+00
  0.000000E+00
  0.000000E+00
  0.000000E+00
  0.000000E+00
  0.000000E+00
  0.000000E+00
  0.000000E+00
  0.000000E+00
  0.000000E+00
  0.000000E+00
  0.000000E+00
  0.000000E+00
  0.000000E+00
  0.000000E+00
  0.000000E+00
  0.000000E+00
  0.000000E+00
  0.000000E+00
  0.000000E+00
  0.000000E+00
  0.000000E+00
  0.000000E+00
  0.000000E+00
  0.000000E+00
  0.000000E+00
  0.000000E+00
  0.000000E+00
  0.000000E+00
  0.000000E+00
  0.000000E+00
  0.000000E+00
  0.000000E+00
  0.000000E+00
  0.000000E+00
  0.000000E+00
  0.000000E+00
  0.000000E+00
  0.000000E+00
  0.000000E+00
  0.000000E+00
  0.000000E+00
  0.000000E+00
  0.000000E+00
  0.000000E+00
  0.000000E+00
  0.000000E+00
  0.000000E+00
  0.000000E+00
  0.000000E+00
  0.000000E+00
  0.000000E+00
  0.000000E+00
  0.000000E+00
  0.000000E+00
  0.000000E+00
  0.000000E+00
  0.000000E+00
  0.000000E+00
  0.000000E+00
  0.000000E+00
  0.000000E+00
  0.000000E+00
  0.000000E+00
  0.000000E+00
  0.000000E+00
  0.000000E+00
  0.000000E+00
  0.000000E+00
  0.000000E+00
  0.000000E+00
  0.000000E+00
  0.000000E+00
  0.000000E+00
  0.000000E+00
  0.000000E+00
  0.000000E+00
  0.000000E+00
  0.000000E+00
  0.000000E+00
  0.000000E+00
  0.000000E+00
  0.000000E+00
  0.000000E+00
  0.000000E+00
  0.000000E+00
  0.000000E+00
  0.000000E+00
  0.000000E+00
  0.000000E+00
  0.000000E+00
  0.000000E+00
  0.000000E+00
  0.000000E+00
  0.000000E+00
  0.000000E+00
  0.000000E+00
  0.000000E+00
  0.000000E+00
  0.000000E+00
  0.000000E+00
  0.000000E+00
  0.000000E+00
  0.000000E+00
  0.000000E+00
  0.000000E+00
  0.000000E+00
  0.000000E+00
  0.000000E+00
  0.000000E+00
  0.000000E+00
  0.000000E+00
  0.000000E+00
  0.000000E+00
  0.000000E+00
  0.000000E+00
  0.000000E+00
  0.000000E+00
  0.000000E+00
  0.000000E+00
  0.000000E+00
  0.000000E+00
  0.000000E+00
  0.000000E+00
  0.000000E+00
  0.000000E+00
  0.000000E+00
  0.000000E+00
  0.000000E+00
  0.000000E+00
  0.000000E+00
  0.000000E+00
  0.000000E+00
  0.000000E+00
  0.000000E+00
  0.000000E+00
  0.000000E+00
  0.000000E+00
  0.000000E+00
  0.000000E+00
  0.000000E+00
  0.000000E+00
  0.000000E+00
  0.000000E+00
  0.000000E+00
  0.000000E+00
  0.000000E+00
  0.000000E+00
  0.000000E+00
  0.000000E+00
  0.000000E+00
  0.000000E+00
  0.000000E+00
  0.000000E+00
  0.000000E+00
  0.000000E+00
  0.000000E+00
  0.000000E+00
  0.000000E+00
  0.000000E+00
  0.000000E+00
  0.000000E+00
  0.000000E+00
  0.000000E+00
  0.000000E+00
  0.000000E+00
  0.000000E+00
  0.000000E+00
  0.000000E+00
  0.000000E+00
  0.000000E+00
  0.000000E+00
  0.000000E+00
  0.000000E+00
  0.000000E+00
  0.000000E+00
  0.000000E+00
  0.000000E+00
  0.000000E+00
  0.000000E+00
  0.000000E+00
  0.000000E+00
  0.000000E+00
  0.000000E+00
  0.000000E+00
  0.000000E+00
  0.000000E+00
  0.000000E+00
  0.000000E+00
  0.000000E+00
  0.000000E+00
  0.000000E+00
  0.000000E+00
  0.000000E+00
  0.000000E+00
  0.000000E+00
  0.000000E+00
  0.000000E+00
  0.000000E+00
  0.000000E+00
  0.000000E+00
  0.000000E+00
  0.000000E+00
  0.000000E+00
  0.000000E+00
  0.000000E+00
  0.000000E+00
  0.000000E+00
  0.000000E+00
  0.000000E+00
  0.000000E+00
  0.000000E+00
  0.000000E+00
  0.000000E+00
  0.000000E+00
  0.000000E+00
  0.000000E+00
  0.000000E+00
  0.000000E+00
  0.000000E+00
  0.000000E+00
  0.000000E+00
  0.000000E+00
  0.000000E+00
  0.000000E+00
  0.000000E+00
  0.000000E+00
  0.000000E+00
  0.000000E+00
  0.000000E+00
  0.000000E+00
  0.000000E+00
  0.000000E+00
  0.000000E+00
  0.000000E+00
  0.000000E+00
  0.000000E+00
  0.000000E+00
  0.000000E+00
  0.000000E+00
  0.000000E+00
  0.000000E+00
  0.000000E+00
  0.000000E+00
  0.000000E+00
  0.000000E+00
  0.000000E+00
  0.000000E+00
  0.000000E+00
  0.000000E+00
  0.000000E+00
  0.000000E+00
  0.000000E+00
  0.000000E+00
  0.000000E+00
  0.000000E+00
  0.000000E+00
  0.000000E+00
  0.000000E+00
  0.000000E+00
  0.000000E+00
  0.000000E+00
  0.000000E+00
  0.000000E+00
  0.000000E+00
  0.000000E+00
  0.000000E+00
  0.000000E+00
  0.000000E+00
  0.000000E+00
  0.000000E+00
  0.000000E+00
  0.000000E+00
  0.000000E+00
  0.000000E+00
  0.000000E+00
  0.000000E+00
  0.000000E+00
  1.000000E-08
  1.695085E-02
  3.390169E-02
  5.085254E-02
  6.780338E-02
  8.475423E-02
  1.017051E-01
  1.186559E-01
  1.356068E-01
  1.525576E-01
  1.695085E-01
  1.864593E-01
  2.034101E-01
  2.203610E-01
  2.373118E-01
  2.542627E-01
  2.712135E-01
  2.881644E-01
  3.051152E-01
  3.220661E-01
  3.390169E-01
  3.559678E-01
  3.729186E-01
  3.898694E-01
  4.068203E-01
  4.237711E-01
  4.407220E-01
  4.576728E-01
  4.746237E-01
  4.915745E-01
  5.085254E-01
  5.254762E-01
  5.424271E-01
  5.593779E-01
  5.763287E-01
  5.932796E-01
  6.102304E-01
  6.271813E-01
  6.441321E-01
  6.610830E-01
  6.780338E-01
  6.949847E-01
  7.119355E-01
  7.288864E-01
  7.458372E-01
  7.627880E-01
  7.797389E-01
  7.966897E-01
  8.136406E-01
  8.305914E-01
  8.475423E-01
  8.644931E-01
  8.814440E-01
  8.983948E-01
  9.153457E-01
  9.322965E-01
  9.492473E-01
  9.661982E-01
  9.831490E-01
  1.000100E+00
  1.017051E+00
  1.034002E+00
  1.050952E+00
  1.067903E+00
  1.084854E+00
  1.101805E+00
  1.118756E+00
  1.135707E+00
  1.152657E+00
  1.169608E+00
  1.186559E+00
  1.203510E+00
  1.220461E+00
  1.237412E+00
  1.254363E+00
  1.271313E+00
  1.288264E+00
  1.305215E+00
  1.322166E+00
  1.339117E+00
  1.356068E+00
  1.373018E+00
  1.389969E+00
  1.406920E+00
  1.423871E+00
  1.440822E+00
  1.457773E+00
  1.474724E+00
  1.491674E+00
  1.508625E+00
  1.525576E+00
  1.542527E+00
  1.559478E+00
  1.576429E+00
  1.593379E+00
  1.610330E+00
  1.627281E+00
  1.644232E+00
  1.661183E+00
  1.678134E+00
  1.695085E+00
  1.712035E+00
  1.728986E+00
  1.745937E+00
  1.762888E+00
  1.779839E+00
  1.796790E+00
  1.813740E+00
  1.830691E+00
  1.847642E+00
  1.864593E+00
  1.881544E+00
  1.898495E+00
  1.915446E+00
  1.932396E+00
  1.949347E+00
  1.966298E+00
  1.983249E+00
  2.000200E+00
  2.017151E+00
  2.034101E+00
  2.051052E+00
  2.068003E+00
  2.084954E+00
  2.101905E+00
  2.118856E+00
  2.135807E+00
  2.152757E+00
  2.169708E+00
  2.186659E+00
  2.203610E+00
  2.220561E+00
  2.237512E+00
  2.254462E+00
  2.271413E+00
  2.288364E+00
  2.305315E+00
  2.322266E+00
  2.339217E+00
  2.356168E+00
  2.373118E+00
  2.390069E+00
  2.407020E+00
  2.423971E+00
  2.440922E+00
  2.457873E+00
  2.474823E+00
  2.491774E+00
  2.508725E+00
  2.525676E+00
  1.105636E+04
  1.105453E+04
  1.105270E+04
  1.105087E+04
  1.104904E+04
  1.104721E+04
  1.104539E+04
  1.104356E+04
  1.104173E+04
  1.103645E+04
  1.103108E+04
  1.102572E+04
  1.102035E+04
  1.101499E+04
  1.100962E+04
  1.100426E+04
  1.099777E+04
  1.098923E+04
  1.098069E+04
  1.097214E+04
  1.096360E+04
  1.095506E+04
  1.094652E+04
  1.093761E+04
  1.092574E+04
  1.091387E+04
  1.090200E+04
  1.089013E+04
  1.087827E+04
  1.086640E+04
  1.085371E+04
  1.083830E+04
  1.082288E+04
  1.080747E+04
  1.079206E+04
  1.077664E+04
  1.076123E+04
  1.074335E+04
  1.072438E+04
  1.070541E+04
  1.068644E+04
  1.066747E+04
  1.064850E+04
  1.062787E+04
  1.060547E+04
  1.058308E+04
  1.056069E+04
  1.053830E+04
  1.051591E+04
  1.049155E+04
  1.046581E+04
  1.044008E+04
  1.041434E+04
  1.038861E+04
  1.036288E+04
  1.033390E+04
  1.030487E+04
  1.027585E+04
  1.024682E+04
  1.021781E+04
  1.018670E+04
  1.015452E+04
  1.012235E+04
  1.009018E+04
  1.005802E+04
  1.002394E+04
  9.988612E+03
  9.953288E+03
  9.917968E+03
  9.882651E+03
  9.844600E+03
  9.805865E+03
  9.767133E+03
  9.728404E+03
  9.688816E+03
  9.646429E+03
  9.604045E+03
  9.561662E+03
  9.519281E+03
  9.473516E+03
  9.427374E+03
  9.381232E+03
  9.335091E+03
  9.286017E+03
  9.236118E+03
  9.186219E+03
  9.136322E+03
  9.083464E+03
  9.030155E+03
  8.976847E+03
  8.923111E+03
  8.866931E+03
  8.810756E+03
  8.754585E+03
  8.696782E+03
  8.637976E+03
  8.579181E+03
  8.519713E+03
  8.458342E+03
  8.396995E+03
  8.335495E+03
  8.271862E+03
  8.208266E+03
  8.144587E+03
  8.078515E+03
  8.012489E+03
  7.945937E+03
  7.876666E+03
  7.807440E+03
  7.736506E+03
  7.663370E+03
  7.590273E+03
  7.513567E+03
  7.436209E+03
  7.357218E+03
  7.275484E+03
  7.193632E+03
  7.107548E+03
  7.021483E+03
  6.931961E+03
  6.841625E+03
  6.748369E+03
  6.653824E+03
  6.556429E+03
  6.457724E+03
  6.355916E+03
  6.253217E+03
  6.146955E+03
  6.039753E+03
  5.929999E+03
  5.818403E+03
  5.705456E+03
  5.589797E+03
  5.472525E+03
  5.353547E+03
  5.232120E+03
  5.108057E+03
  4.981692E+03
  4.853208E+03
  4.723898E+03
  4.598076E+03
  4.486110E+03
  4.405745E+03
  4.392274E+03
  4.482856E+03
  4.446193E+03
  4.005668E+03
  4.501193E+03
  1.344981E+03
 -1.132237E-04
  6.310505E+02
  6.309611E+02
  6.308717E+02
  6.307824E+02
  6.306930E+02
  6.306036E+02
  6.305142E+02
  6.304249E+02
  6.303355E+02
  6.301484E+02
  6.299590E+02
  6.297695E+02
  6.295801E+02
  6.293906E+02
  6.292011E+02
  6.290116E+02
  6.288259E+02
  6.286471E+02
  6.284683E+02
  6.282895E+02
  6.281107E+02
  6.279319E+02
  6.277530E+02
  6.275718E+02
  6.273720E+02
  6.271721E+02
  6.269722E+02
  6.267723E+02
  6.265724E+02
  6.263724E+02
  6.261522E+02
  6.258646E+02
  6.255769E+02
  6.252892E+02
  6.250015E+02
  6.247138E+02
  6.244260E+02
  6.240650E+02
  6.236720E+02
  6.232789E+02
  6.228858E+02
  6.224926E+02
  6.220994E+02
  6.216409E+02
  6.211136E+02
  6.205862E+02
  6.200587E+02
  6.195312E+02
  6.190036E+02
  6.183423E+02
  6.175873E+02
  6.168323E+02
  6.160771E+02
  6.153220E+02
  6.145667E+02
  6.134972E+02
  6.124226E+02
  6.113480E+02
  6.102734E+02
  6.091987E+02
  6.079196E+02
  6.065358E+02
  6.051519E+02
  6.037679E+02
  6.023838E+02
  6.008586E+02
  5.992407E+02
  5.976226E+02
  5.960043E+02
  5.943859E+02
  5.926677E+02
  5.909241E+02
  5.891802E+02
  5.874361E+02
  5.856993E+02
  5.839875E+02
  5.822753E+02
  5.805627E+02
  5.788497E+02
  5.771761E+02
  5.755067E+02
  5.738371E+02
  5.721671E+02
  5.703676E+02
  5.685314E+02
  5.666950E+02
  5.648583E+02
  5.627063E+02
  5.605059E+02
  5.583051E+02
  5.560312E+02
  5.533425E+02
  5.506541E+02
  5.479662E+02
  5.448204E+02
  5.413933E+02
  5.379686E+02
  5.343093E+02
  5.299896E+02
  5.256764E+02
  5.213215E+02
  5.163845E+02
  5.114580E+02
  5.065299E+02
  5.013791E+02
  4.962398E+02
  4.911132E+02
  4.860035E+02
  4.809040E+02
  4.759095E+02
  4.710448E+02
  4.661874E+02
  4.616691E+02
  4.572173E+02
  4.529601E+02
  4.490212E+02
  4.451020E+02
  4.417349E+02
  4.383662E+02
  4.354902E+02
  4.327293E+02
  4.303778E+02
  4.282060E+02
  4.263974E+02
  4.247558E+02
  4.235031E+02
  4.223635E+02
  4.217182E+02
  4.212292E+02
  4.211683E+02
  4.214968E+02
  4.221251E+02
  4.234706E+02
  4.253392E+02
  4.277857E+02
  4.311280E+02
  4.355601E+02
  4.411514E+02
  4.483014E+02
  4.577437E+02
  4.709508E+02
  4.907624E+02
  5.218277E+02
  5.723279E+02
  6.502499E+02
  7.189208E+02
  7.318977E+02
  8.837266E+02
  2.130166E+02
  3.892496E-04
  1.794833E+03
  1.794515E+03
  1.794197E+03
  1.793878E+03
  1.793560E+03
  1.793242E+03
  1.792924E+03
  1.792605E+03
  1.792287E+03
  1.791349E+03
  1.790395E+03
  1.789442E+03
  1.788488E+03
  1.787534E+03
  1.786581E+03
  1.785627E+03
  1.784453E+03
  1.782875E+03
  1.781297E+03
  1.779719E+03
  1.778140E+03
  1.776562E+03
  1.774984E+03
  1.773326E+03
  1.771027E+03
  1.768728E+03
  1.766429E+03
  1.764130E+03
  1.761831E+03
  1.759532E+03
  1.757043E+03
  1.753924E+03
  1.750805E+03
  1.747686E+03
  1.744567E+03
  1.741448E+03
  1.738329E+03
  1.734634E+03
  1.730687E+03
  1.726740E+03
  1.722793E+03
  1.718846E+03
  1.714899E+03
  1.710583E+03
  1.705876E+03
  1.701169E+03
  1.696463E+03
  1.691757E+03
  1.687051E+03
  1.681986E+03
  1.676670E+03
  1.671354E+03
  1.666039E+03
  1.660724E+03
  1.655410E+03
  1.649712E+03
  1.644009E+03
  1.638307E+03
  1.632606E+03
  1.626905E+03
  1.621051E+03
  1.615120E+03
  1.609189E+03
  1.603259E+03
  1.597331E+03
  1.591243E+03
  1.585051E+03
  1.578860E+03
  1.572669E+03
  1.566480E+03
  1.560046E+03
  1.553550E+03
  1.547055E+03
  1.540560E+03
  1.534040E+03
  1.527431E+03
  1.520822E+03
  1.514214E+03
  1.507607E+03
  1.500992E+03
  1.494376E+03
  1.487761E+03
  1.481146E+03
  1.474367E+03
  1.467543E+03
  1.460719E+03
  1.453895E+03
  1.446927E+03
  1.439937E+03
  1.432947E+03
  1.425982E+03
  1.419151E+03
  1.412321E+03
  1.405493E+03
  1.398701E+03
  1.391932E+03
  1.385168E+03
  1.378300E+03
  1.371135E+03
  1.363980E+03
  1.356796E+03
  1.349152E+03
  1.341524E+03
  1.333887E+03
  1.325731E+03
  1.317597E+03
  1.309307E+03
  1.300179E+03
  1.291072E+03
  1.281325E+03
  1.270751E+03
  1.260195E+03
  1.248213E+03
  1.235975E+03
  1.223088E+03
  1.209111E+03
  1.195087E+03
  1.179399E+03
  1.163717E+03
  1.146780E+03
  1.129545E+03
  1.111438E+03
  1.092946E+03
  1.073821E+03
  1.054404E+03
  1.034547E+03
  1.014564E+03
  9.944223E+02
  9.743418E+02
  9.544667E+02
  9.350162E+02
  9.159016E+02
  8.978176E+02
  8.805346E+02
  8.641272E+02
  8.490705E+02
  8.355720E+02
  8.236927E+02
  8.140812E+02
  8.081577E+02
  8.092103E+02
  8.243394E+02
  8.654654E+02
  9.510576E+02
  1.095428E+03
  1.205753E+03
  1.137720E+03
  1.288756E+03
  2.073959E+02
 -8.254954E-11
  1.244154E+00
  1.243948E+00
  1.243742E+00
  1.243536E+00
  1.243331E+00
  1.243125E+00
  1.242919E+00
  1.242713E+00
  1.242507E+00
  1.241913E+00
  1.241309E+00
  1.240706E+00
  1.240102E+00
  1.239498E+00
  1.238895E+00
  1.238291E+00
  1.237561E+00
  1.236600E+00
  1.235638E+00
  1.234677E+00
  1.233716E+00
  1.232755E+00
  1.231793E+00
  1.230791E+00
  1.229455E+00
  1.228120E+00
  1.226784E+00
  1.225449E+00
  1.224113E+00
  1.222778E+00
  1.221350E+00
  1.219615E+00
  1.217881E+00
  1.216147E+00
  1.214412E+00
  1.212678E+00
  1.210944E+00
  1.208931E+00
  1.206796E+00
  1.204662E+00
  1.202527E+00
  1.200393E+00
  1.198258E+00
  1.195936E+00
  1.193416E+00
  1.190897E+00
  1.188377E+00
  1.185858E+00
  1.183338E+00
  1.180597E+00
  1.177701E+00
  1.174804E+00
  1.171908E+00
  1.169013E+00
  1.166117E+00
  1.162856E+00
  1.159590E+00
  1.156324E+00
  1.153058E+00
  1.149793E+00
  1.146292E+00
  1.142672E+00
  1.139051E+00
  1.135431E+00
  1.131812E+00
  1.127977E+00
  1.124002E+00
  1.120027E+00
  1.116052E+00
  1.112078E+00
  1.107796E+00
  1.103438E+00
  1.099079E+00
  1.094721E+00
  1.090266E+00
  1.085497E+00
  1.080727E+00
  1.075958E+00
  1.071189E+00
  1.066039E+00
  1.060847E+00
  1.055654E+00
  1.050462E+00
  1.044940E+00
  1.039325E+00
  1.033710E+00
  1.028095E+00
  1.022147E+00
  1.016148E+00
  1.010150E+00
  1.004103E+00
  9.977810E-01
  9.914597E-01
  9.851389E-01
  9.786344E-01
  9.720171E-01
  9.654010E-01
  9.587091E-01
  9.518031E-01
  9.448999E-01
  9.379794E-01
  9.308188E-01
  9.236626E-01
  9.164968E-01
  9.090619E-01
  9.016321E-01
  8.941431E-01
  8.863481E-01
  8.785582E-01
  8.705762E-01
  8.623462E-01
  8.541209E-01
  8.454892E-01
  8.367843E-01
  8.278955E-01
  8.186982E-01
  8.094875E-01
  7.998005E-01
  7.901158E-01
  7.800421E-01
  7.698767E-01
  7.593827E-01
  7.487437E-01
  7.377841E-01
  7.266769E-01
  7.152206E-01
  7.036641E-01
  6.917066E-01
  6.796434E-01
  6.672930E-01
  6.547352E-01
  6.420255E-01
  6.290105E-01
  6.158141E-01
  6.024258E-01
  5.887617E-01
  5.748012E-01
  5.605815E-01
  5.461234E-01
  5.315724E-01
  5.174139E-01
  5.048145E-01
  4.957712E-01
  4.942553E-01
  5.044483E-01
  5.003227E-01
  4.507511E-01
  5.065118E-01
  1.513485E-01
 -1.274087E-08
  1.126714E+00
  1.126554E+00
  1.126395E+00
  1.126235E+00
  1.126075E+00
  1.125916E+00
  1.125756E+00
  1.125597E+00
  1.125437E+00
  1.125103E+00
  1.124765E+00
  1.124427E+00
  1.124088E+00
  1.123750E+00
  1.123412E+00
  1.123073E+00
  1.122742E+00
  1.122423E+00
  1.122103E+00
  1.121784E+00
  1.121465E+00
  1.121146E+00
  1.120826E+00
  1.120503E+00
  1.120146E+00
  1.119789E+00
  1.119432E+00
  1.119075E+00
  1.118718E+00
  1.118361E+00
  1.117968E+00
  1.117455E+00
  1.116941E+00
  1.116427E+00
  1.115914E+00
  1.115400E+00
  1.114886E+00
  1.114242E+00
  1.113540E+00
  1.112838E+00
  1.112136E+00
  1.111434E+00
  1.110732E+00
  1.109913E+00
  1.108972E+00
  1.108030E+00
  1.107088E+00
  1.106147E+00
  1.105205E+00
  1.104024E+00
  1.102676E+00
  1.101328E+00
  1.099980E+00
  1.098631E+00
  1.097283E+00
  1.095373E+00
  1.093455E+00
  1.091536E+00
  1.089617E+00
  1.087698E+00
  1.085415E+00
  1.082944E+00
  1.080473E+00
  1.078002E+00
  1.075531E+00
  1.072807E+00
  1.069919E+00
  1.067030E+00
  1.064140E+00
  1.061251E+00
  1.058183E+00
  1.055070E+00
  1.051956E+00
  1.048842E+00
  1.045741E+00
  1.042685E+00
  1.039628E+00
  1.036570E+00
  1.033511E+00
  1.030523E+00
  1.027543E+00
  1.024562E+00
  1.021580E+00
  1.018367E+00
  1.015089E+00
  1.011810E+00
  1.008530E+00
  1.004688E+00
  1.000759E+00
  9.968301E-01
  9.927701E-01
  9.879695E-01
  9.831695E-01
  9.783702E-01
  9.727536E-01
  9.666347E-01
  9.605201E-01
  9.539864E-01
  9.462739E-01
  9.385729E-01
  9.307973E-01
  9.219826E-01
  9.131864E-01
  9.043875E-01
  8.951910E-01
  8.860151E-01
  8.768617E-01
  8.677386E-01
  8.586337E-01
  8.497161E-01
  8.410304E-01
  8.323577E-01
  8.242905E-01
  8.163420E-01
  8.087409E-01
  8.017083E-01
  7.947107E-01
  7.886988E-01
  7.826842E-01
  7.775492E-01
  7.726197E-01
  7.684213E-01
  7.645436E-01
  7.613145E-01
  7.583834E-01
  7.561467E-01
  7.541120E-01
  7.529598E-01
  7.520867E-01
  7.519781E-01
  7.525646E-01
  7.536864E-01
  7.560887E-01
  7.594250E-01
  7.637931E-01
  7.697607E-01
  7.776741E-01
  7.876570E-01
  8.004231E-01
  8.172820E-01
  8.408626E-01
  8.762353E-01
  9.317012E-01
  1.021867E+00
  1.160993E+00
  1.283603E+00
  1.306772E+00
  1.577856E+00
  3.803320E-01
  6.949886E-07
  1.237033E+00
  1.236813E+00
  1.236594E+00
  1.236375E+00
  1.236155E+00
  1.235936E+00
  1.235717E+00
  1.235497E+00
  1.235278E+00
  1.234631E+00
  1.233974E+00
  1.233317E+00
  1.232659E+00
  1.232002E+00
  1.231345E+00
  1.230688E+00
  1.229879E+00
  1.228791E+00
  1.227703E+00
  1.226615E+00
  1.225528E+00
  1.224440E+00
  1.223352E+00
  1.222210E+00
  1.220625E+00
  1.219040E+00
  1.217456E+00
  1.215871E+00
  1.214287E+00
  1.212702E+00
  1.210987E+00
  1.208837E+00
  1.206688E+00
  1.204538E+00
  1.202388E+00
  1.200239E+00
  1.198089E+00
  1.195542E+00
  1.192822E+00
  1.190101E+00
  1.187381E+00
  1.184661E+00
  1.181941E+00
  1.178966E+00
  1.175722E+00
  1.172478E+00
  1.169234E+00
  1.165990E+00
  1.162747E+00
  1.159256E+00
  1.155592E+00
  1.151929E+00
  1.148265E+00
  1.144602E+00
  1.140940E+00
  1.137013E+00
  1.133082E+00
  1.129152E+00
  1.125222E+00
  1.121293E+00
  1.117259E+00
  1.113171E+00
  1.109083E+00
  1.104996E+00
  1.100910E+00
  1.096714E+00
  1.092447E+00
  1.088180E+00
  1.083913E+00
  1.079648E+00
  1.075213E+00
  1.070736E+00
  1.066259E+00
  1.061783E+00
  1.057289E+00
  1.052734E+00
  1.048179E+00
  1.043625E+00
  1.039071E+00
  1.034512E+00
  1.029952E+00
  1.025393E+00
  1.020834E+00
  1.016162E+00
  1.011458E+00
  1.006755E+00
  1.002052E+00
  9.972492E-01
  9.924315E-01
  9.876142E-01
  9.828135E-01
  9.781054E-01
  9.733984E-01
  9.686925E-01
  9.640107E-01
  9.593458E-01
  9.546839E-01
  9.499501E-01
  9.450117E-01
  9.400804E-01
  9.351293E-01
  9.298606E-01
  9.246036E-01
  9.193398E-01
  9.137190E-01
  9.081128E-01
  9.023988E-01
  8.961075E-01
  8.898310E-01
  8.831134E-01
  8.758252E-01
  8.685500E-01
  8.602918E-01
  8.518572E-01
  8.429754E-01
  8.333421E-01
  8.236765E-01
  8.128639E-01
  8.020556E-01
  7.903821E-01
  7.785035E-01
  7.660242E-01
  7.532788E-01
  7.400974E-01
  7.267152E-01
  7.130291E-01
  6.992568E-01
  6.853745E-01
  6.715347E-01
  6.578364E-01
  6.444308E-01
  6.312566E-01
  6.187928E-01
  6.068810E-01
  5.955727E-01
  5.851953E-01
  5.758919E-01
  5.677045E-01
  5.610801E-01
  5.569975E-01
  5.577229E-01
  5.681502E-01
  5.964950E-01
  6.554868E-01
  7.549898E-01
  8.310278E-01
  7.841380E-01
  8.882348E-01
  1.429411E-01
 -5.689470E-14
  9.886094E-01
  9.884459E-01
  9.882823E-01
  9.881188E-01
  9.879552E-01
  9.877916E-01
  9.876281E-01
  9.874645E-01
  9.873010E-01
  9.868289E-01
  9.863492E-01
  9.858695E-01
  9.853898E-01
  9.849102E-01
  9.844305E-01
  9.839508E-01
  9.833708E-01
  9.826070E-01
  9.818432E-01
  9.810794E-01
  9.803156E-01
  9.795518E-01
  9.787880E-01
  9.779912E-01
  9.769300E-01
  9.758688E-01
  9.748077E-01
  9.737466E-01
  9.726855E-01
  9.716244E-01
  9.704899E-01
  9.691117E-01
  9.677335E-01
  9.663554E-01
  9.649773E-01
  9.635992E-01
  9.622212E-01
  9.606219E-01
  9.589257E-01
  9.572296E-01
  9.555336E-01
  9.538376E-01
  9.521417E-01
  9.502967E-01
  9.482944E-01
  9.462923E-01
  9.442902E-01
  9.422883E-01
  9.402865E-01
  9.381084E-01
  9.358068E-01
  9.335055E-01
  9.312043E-01
  9.289034E-01
  9.266026E-01
  9.240114E-01
  9.214159E-01
  9.188207E-01
  9.162257E-01
  9.136310E-01
  9.108494E-01
  9.079724E-01
  9.050956E-01
  9.022191E-01
  8.993430E-01
  8.962960E-01
  8.931370E-01
  8.899784E-01
  8.868201E-01
  8.836622E-01
  8.802597E-01
  8.767961E-01
  8.733328E-01
  8.698697E-01
  8.663299E-01
  8.625399E-01
  8.587500E-01
  8.549603E-01
  8.511708E-01
  8.470787E-01
  8.429529E-01
  8.388272E-01
  8.347015E-01
  8.303136E-01
  8.258518E-01
  8.213902E-01
  8.169286E-01
  8.122023E-01
  8.074355E-01
  8.026689E-01
  7.978640E-01
  7.928404E-01
  7.878172E-01
  7.827944E-01
  7.776254E-01
  7.723666E-01
  7.671087E-01
  7.617904E-01
  7.563016E-01
  7.508147E-01
  7.453140E-01
  7.396220E-01
  7.339331E-01
  7.282365E-01
  7.223256E-01
  7.164185E-01
  7.104642E-01
  7.042667E-01
  6.980731E-01
  6.917269E-01
  6.851839E-01
  6.786444E-01
  6.717828E-01
  6.648631E-01
  6.577976E-01
  6.504877E-01
  6.431672E-01
  6.354695E-01
  6.277737E-01
  6.197697E-01
  6.116931E-01
  6.033563E-01
  5.949046E-01
  5.861988E-01
  5.773760E-01
  5.682764E-01
  5.590971E-01
  5.495996E-01
  5.400181E-01
  5.302086E-01
  5.202341E-01
  5.101387E-01
  4.998006E-01
  4.893180E-01
  4.786825E-01
  4.678276E-01
  4.567367E-01
  4.454393E-01
  4.339520E-01
  4.223903E-01
  4.111398E-01
  4.011275E-01
  3.939402E-01
  3.927337E-01
  4.008305E-01
  3.975490E-01
  3.581566E-01
  4.024580E-01
  1.651827E-01
 -2.462747E-03
  5.642566E-02
  5.641767E-02
  5.640968E-02
  5.640169E-02
  5.639370E-02
  5.638571E-02
  5.637771E-02
  5.636972E-02
  5.636173E-02
  5.634501E-02
  5.632807E-02
  5.631113E-02
  5.629419E-02
  5.627724E-02
  5.626030E-02
  5.624336E-02
  5.622676E-02
  5.621077E-02
  5.619479E-02
  5.617880E-02
  5.616281E-02
  5.614682E-02
  5.613083E-02
  5.611463E-02
  5.609677E-02
  5.607890E-02
  5.606102E-02
  5.604315E-02
  5.602528E-02
  5.600740E-02
  5.598771E-02
  5.596199E-02
  5.593628E-02
  5.591056E-02
  5.588483E-02
  5.585911E-02
  5.583338E-02
  5.580110E-02
  5.576596E-02
  5.573082E-02
  5.569567E-02
  5.566052E-02
  5.562536E-02
  5.558437E-02
  5.553722E-02
  5.549006E-02
  5.544290E-02
  5.539573E-02
  5.534856E-02
  5.528943E-02
  5.522193E-02
  5.515441E-02
  5.508690E-02
  5.501937E-02
  5.495184E-02
  5.485621E-02
  5.476013E-02
  5.466404E-02
  5.456795E-02
  5.447185E-02
  5.435748E-02
  5.423374E-02
  5.410999E-02
  5.398624E-02
  5.386248E-02
  5.372609E-02
  5.358142E-02
  5.343673E-02
  5.329203E-02
  5.314731E-02
  5.299367E-02
  5.283776E-02
  5.268183E-02
  5.252587E-02
  5.237057E-02
  5.221751E-02
  5.206441E-02
  5.191127E-02
  5.175810E-02
  5.160846E-02
  5.145920E-02
  5.130991E-02
  5.116059E-02
  5.099969E-02
  5.083551E-02
  5.067130E-02
  5.050708E-02
  5.031466E-02
  5.011789E-02
  4.992111E-02
  4.971779E-02
  4.947735E-02
  4.923696E-02
  4.899659E-02
  4.871528E-02
  4.840880E-02
  4.810254E-02
  4.777528E-02
  4.738895E-02
  4.700320E-02
  4.661369E-02
  4.617211E-02
  4.573145E-02
  4.529064E-02
  4.482989E-02
  4.437016E-02
  4.391154E-02
  4.345444E-02
  4.299824E-02
  4.255143E-02
  4.211624E-02
  4.168169E-02
  4.127751E-02
  4.087928E-02
  4.049847E-02
  4.014616E-02
  3.979562E-02
  3.949450E-02
  3.919325E-02
  3.893611E-02
  3.868927E-02
  3.847910E-02
  3.828501E-02
  3.812344E-02
  3.797682E-02
  3.786500E-02
  3.776331E-02
  3.770585E-02
  3.766237E-02
  3.765718E-02
  3.768680E-02
  3.774323E-02
  3.786378E-02
  3.803110E-02
  3.825007E-02
  3.854911E-02
  3.894558E-02
  3.944567E-02
  4.008510E-02
  4.092945E-02
  4.211035E-02
  4.388173E-02
  4.665929E-02
  5.117451E-02
  5.814150E-02
  6.428112E-02
  6.544077E-02
  7.901524E-02
  2.616145E-02
  8.466633E-03
  1.604858E-01
  1.604574E-01
  1.604289E-01
  1.604004E-01
  1.603720E-01
  1.603435E-01
  1.603151E-01
  1.602866E-01
  1.602582E-01
  1.601743E-01
  1.600890E-01
  1.600037E-01
  1.599185E-01
  1.598332E-01
  1.597479E-01
  1.596627E-01
  1.595577E-01
  1.594166E-01
  1.592755E-01
  1.591344E-01
  1.589933E-01
  1.588521E-01
  1.587110E-01
  1.585628E-01
  1.583572E-01
  1.581516E-01
  1.579461E-01
  1.577405E-01
  1.575350E-01
  1.573294E-01
  1.571069E-01
  1.568280E-01
  1.565491E-01
  1.562702E-01
  1.559913E-01
  1.557125E-01
  1.554336E-01
  1.551032E-01
  1.547503E-01
  1.543974E-01
  1.540444E-01
  1.536915E-01
  1.533387E-01
  1.529527E-01
  1.525318E-01
  1.521110E-01
  1.516902E-01
  1.512694E-01
  1.508486E-01
  1.503957E-01
  1.499204E-01
  1.494451E-01
  1.489698E-01
  1.484946E-01
  1.480194E-01
  1.475100E-01
  1.470000E-01
  1.464902E-01
  1.459804E-01
  1.454706E-01
  1.449472E-01
  1.444168E-01
  1.438865E-01
  1.433563E-01
  1.428262E-01
  1.422818E-01
  1.417281E-01
  1.411745E-01
  1.406210E-01
  1.400676E-01
  1.394922E-01
  1.389114E-01
  1.383306E-01
  1.377499E-01
  1.371668E-01
  1.365759E-01
  1.359850E-01
  1.353942E-01
  1.348033E-01
  1.342119E-01
  1.336203E-01
  1.330288E-01
  1.324374E-01
  1.318313E-01
  1.312211E-01
  1.306109E-01
  1.300008E-01
  1.293777E-01
  1.287526E-01
  1.281276E-01
  1.275048E-01
  1.268940E-01
  1.262833E-01
  1.256727E-01
  1.250652E-01
  1.244599E-01
  1.238550E-01
  1.232407E-01
  1.225998E-01
  1.219598E-01
  1.213172E-01
  1.206333E-01
  1.199509E-01
  1.192675E-01
  1.185378E-01
  1.178100E-01
  1.170681E-01
  1.162513E-01
  1.154364E-01
  1.145643E-01
  1.136181E-01
  1.126737E-01
  1.116018E-01
  1.105071E-01
  1.093545E-01
  1.081044E-01
  1.068502E-01
  1.054474E-01
  1.040451E-01
  1.025308E-01
  1.009899E-01
  9.937117E-02
  9.771802E-02
  9.600842E-02
  9.427279E-02
  9.249784E-02
  9.071170E-02
  8.891137E-02
  8.711651E-02
  8.534004E-02
  8.360152E-02
  8.189298E-02
  8.027658E-02
  7.873175E-02
  7.726514E-02
  7.591925E-02
  7.471262E-02
  7.365070E-02
  7.279148E-02
  7.226194E-02
  7.235603E-02
  7.370866E-02
  7.738569E-02
  8.503851E-02
  9.794672E-02
  1.078104E-01
  1.017263E-01
  1.152295E-01
  2.547115E-02
 -1.795549E-09
  9.887409E-01
  9.885774E-01
  9.884139E-01
  9.882503E-01
  9.880868E-01
  9.879233E-01
  9.877597E-01
  9.875962E-01
  9.874326E-01
  9.869607E-01
  9.864811E-01
  9.860015E-01
  9.855219E-01
  9.850423E-01
  9.845627E-01
  9.840831E-01
  9.835033E-01
  9.827398E-01
  9.819762E-01
  9.812126E-01
  9.804490E-01
  9.796855E-01
  9.789219E-01
  9.781253E-01
  9.770646E-01