 Title = "ADflow Slice Data"
Variables =  "CoordinateX"  "CoordinateY"  "CoordinateZ"  "XoC"  "YoC"  "ZoC" "VelocityX" "VelocityY" "VelocityZ" "CoefPressure" "Mach" 
Zone T= "Slice_0001 None Relative Regular z = 0.10000000"
 Nodes =          114  Elements=          106  ZONETYPE=FELINESEG
 DATAPACKING=POINT
  7.301402E-01  6.833259E-02  1.000000E-01  7.450323E-01  5.984882E-02  1.416118E-17  2.640573E-02 -4.239681E-03 -1.905766E-04 -4.460927E-01  0.000000E+00
  7.043967E-01  7.231048E-02  1.000000E-01  7.187630E-01  6.390794E-02 -4.248355E-17  2.762586E-02 -4.105027E-03 -1.874080E-04 -4.772882E-01  0.000000E+00
  6.775455E-01  7.614382E-02  1.000000E-01  6.913635E-01  6.781956E-02  3.965131E-16  2.860051E-02 -3.934331E-03 -1.827836E-04 -5.054414E-01  0.000000E+00
  6.496792E-01  7.983081E-02  1.000000E-01  6.629282E-01  7.158185E-02  4.248355E-17  2.938045E-02 -3.767978E-03 -1.768228E-04 -5.347095E-01  0.000000E+00
  6.209097E-01  8.339928E-02  1.000000E-01  6.335712E-01  7.522319E-02 -2.832237E-17  3.010446E-02 -3.619117E-03 -1.697374E-04 -5.680896E-01  0.000000E+00
  5.913667E-01  8.683361E-02  1.000000E-01  6.034249E-01  7.872765E-02 -2.832237E-17  3.093923E-02 -3.472389E-03 -1.617495E-04 -6.060163E-01  0.000000E+00
  5.611982E-01  9.009367E-02  1.000000E-01  5.726404E-01  8.205428E-02  0.000000E+00  3.200307E-02 -3.316219E-03 -1.529254E-04 -6.493777E-01  0.000000E+00
  5.305654E-01  9.312704E-02  1.000000E-01  5.413819E-01  8.514959E-02 -5.664473E-17  3.337134E-02 -3.139508E-03 -1.432299E-04 -6.999617E-01  0.000000E+00
  4.996398E-01  9.587883E-02  1.000000E-01  5.098248E-01  8.795758E-02  0.000000E+00  3.510624E-02 -2.914885E-03 -1.326515E-04 -7.588131E-01  0.000000E+00
  4.685986E-01  9.826883E-02  1.000000E-01  4.781497E-01  9.039639E-02  1.416118E-17  3.725416E-02 -2.592894E-03 -1.212789E-04 -8.242572E-01  0.000000E+00
  4.376215E-01  1.001965E-01  1.000000E-01  4.465401E-01  9.236339E-02 -8.496710E-17  3.979338E-02 -2.121170E-03 -1.092748E-04 -8.923223E-01  0.000000E+00
  4.068895E-01  1.015645E-01  1.000000E-01  4.151805E-01  9.375931E-02  0.000000E+00  4.259965E-02 -1.459444E-03 -9.687622E-05 -9.580269E-01  0.000000E+00
  3.765814E-01  1.022967E-01  1.000000E-01  3.842535E-01  9.450648E-02 -5.664473E-17  4.545915E-02 -6.077953E-04 -8.441098E-05 -1.018361E+00  0.000000E+00
  3.468696E-01  1.023752E-01  1.000000E-01  3.539350E-01  9.458659E-02 -5.664473E-17  4.818625E-02  4.124832E-04 -7.235713E-05 -1.071883E+00  0.000000E+00
  3.179133E-01  1.018018E-01  1.000000E-01  3.243874E-01  9.400150E-02 -2.832237E-17  5.070611E-02  1.586189E-03 -6.125817E-05 -1.118253E+00  0.000000E+00
  2.898519E-01  1.005969E-01  1.000000E-01  2.957529E-01  9.277202E-02 -4.248355E-17  5.302544E-02  2.887408E-03 -5.146734E-05 -1.160729E+00  0.000000E+00
  2.628044E-01  9.880365E-02  1.000000E-01  2.681531E-01  9.094212E-02  0.000000E+00  5.522413E-02  4.303148E-03 -4.304641E-05 -1.203466E+00  0.000000E+00
  9.800000E-01  1.295941E-02  1.000000E-01  9.999944E-01  3.344877E-03 -2.832237E-17  1.054712E-02 -1.322320E-02 -2.071079E-04 -5.792427E-02  0.000000E+00
  9.720124E-01  1.513675E-02  1.000000E-01  9.918437E-01  5.566679E-03 -2.832237E-17  1.205234E-02 -3.353928E-03 -1.960231E-04  6.607502E-02  0.000000E+00
  9.632634E-01  1.753184E-02  1.000000E-01  9.829161E-01  8.010679E-03 -2.832237E-17  8.991747E-03 -2.396952E-03 -1.662669E-04  1.849322E-02  0.000000E+00
  9.536907E-01  2.013236E-02  1.000000E-01  9.731479E-01  1.066430E-02 -2.832237E-17  7.114426E-03 -1.920684E-03 -1.456376E-04 -5.053742E-05  0.000000E+00
  9.432303E-01  2.292158E-02  1.000000E-01  9.624738E-01  1.351048E-02  1.416118E-17  6.742387E-03 -1.780137E-03 -1.384535E-04 -2.080676E-02  0.000000E+00
  9.318220E-01  2.590171E-02  1.000000E-01  9.508325E-01  1.655146E-02  1.416118E-17  7.536717E-03 -1.944727E-03 -1.408672E-04 -4.771382E-02  0.000000E+00
  9.194070E-01  2.907438E-02  1.000000E-01  9.381640E-01  1.978893E-02 -8.496710E-17  8.991728E-03 -2.267625E-03 -1.479510E-04 -7.669917E-02  0.000000E+00
  9.059278E-01  3.243597E-02  1.000000E-01  9.244096E-01  2.321916E-02 -5.664473E-17  1.069143E-02 -2.628005E-03 -1.563070E-04 -1.076044E-01  0.000000E+00
  8.913299E-01  3.597845E-02  1.000000E-01  9.095136E-01  2.683398E-02  0.000000E+00  1.243387E-02 -2.971676E-03 -1.643079E-04 -1.409073E-01  0.000000E+00
  8.755643E-01  3.969406E-02  1.000000E-01  8.934261E-01  3.062547E-02 -2.832237E-17  1.419138E-02 -3.289862E-03 -1.715369E-04 -1.766541E-01  0.000000E+00
  8.585885E-01  4.356925E-02  1.000000E-01  8.761035E-01  3.457979E-02  4.106743E-16  1.600005E-02 -3.583805E-03 -1.780192E-04 -2.143304E-01  0.000000E+00
  8.403666E-01  4.757859E-02  1.000000E-01  8.575096E-01  3.867101E-02  3.965131E-16  1.786082E-02 -3.845034E-03 -1.835829E-04 -2.532214E-01  0.000000E+00
  8.208730E-01  5.168912E-02  1.000000E-01  8.376179E-01  4.286548E-02 -8.496710E-17  1.973071E-02 -4.059598E-03 -1.879041E-04 -2.928810E-01  0.000000E+00
  8.000947E-01  5.586476E-02  1.000000E-01  8.164153E-01  4.712639E-02 -2.832237E-17  2.156404E-02 -4.215187E-03 -1.908120E-04 -3.329014E-01  0.000000E+00
  7.780326E-01  6.006296E-02  1.000000E-01  7.939027E-01  5.141031E-02 -2.832237E-17  2.332057E-02 -4.301346E-03 -1.922576E-04 -3.726199E-01  0.000000E+00
  7.547032E-01  6.423601E-02  1.000000E-01  7.700969E-01  5.566859E-02  4.389967E-16  2.495358E-02 -4.309668E-03 -1.921959E-04 -4.108574E-01  0.000000E+00
  7.301402E-01  6.833259E-02  1.000000E-01  7.450323E-01  5.984882E-02  2.832237E-17  2.640573E-02 -4.239681E-03 -1.905766E-04 -4.460927E-01  0.000000E+00
  2.444131E-01 -2.568716E-03  1.000000E-01  2.493862E-01 -1.250035E-02  3.681908E-16  2.789163E-02  1.274911E-03  4.258479E-05  1.663359E-01  0.000000E+00
  2.700250E-01 -1.402044E-03  1.000000E-01  2.755212E-01 -1.130985E-02 -4.248355E-17  2.814704E-02  1.261295E-03  4.497968E-05  1.644826E-01  0.000000E+00
  2.967058E-01 -2.273269E-04  1.000000E-01  3.027468E-01 -1.011115E-02 -2.832237E-17  2.853223E-02  1.292082E-03  4.818023E-05  1.564162E-01  0.000000E+00
  3.243554E-01  1.057968E-03  1.000000E-01  3.309610E-01 -8.799604E-03  4.248355E-16  2.869536E-02  1.444830E-03  5.226049E-05  1.433243E-01  0.000000E+00
  3.528511E-01  2.603146E-03  1.000000E-01  3.600387E-01 -7.222873E-03 -4.248355E-17  2.824050E-02  1.739376E-03  5.709828E-05  1.314751E-01  0.000000E+00
  3.820469E-01  4.623754E-03  1.000000E-01  3.898306E-01 -5.161002E-03  5.664473E-17  2.690700E-02  2.127823E-03  6.232400E-05  1.285571E-01  0.000000E+00
  4.117740E-01  7.290478E-03  1.000000E-01  4.201648E-01 -2.439821E-03 -5.664473E-17  2.476350E-02  2.494221E-03  6.743995E-05  1.416116E-01  0.000000E+00
  4.418498E-01  1.068381E-02  1.000000E-01  4.508547E-01  1.022809E-03 -2.832237E-17  2.224148E-02  2.700664E-03  7.207578E-05  1.710780E-01  0.000000E+00
  4.721105E-01  1.465749E-02  1.000000E-01  4.817334E-01  5.077635E-03 -5.664473E-17  2.010851E-02  2.546377E-03  7.638505E-05  2.227013E-01  0.000000E+00
  5.024968E-01  1.835276E-02  1.000000E-01  5.127402E-01  8.848363E-03  1.416118E-17  1.881944E-02  2.113503E-03  8.070109E-05  2.775346E-01  0.000000E+00
  5.328693E-01  2.144814E-02  1.000000E-01  5.437329E-01  1.200696E-02 -4.248355E-17  1.816191E-02  1.720317E-03  8.519509E-05  3.043825E-01  0.000000E+00
  5.630297E-01  2.407461E-02  1.000000E-01  5.745093E-01  1.468706E-02  1.416118E-17  1.777015E-02  1.458156E-03  8.995810E-05  3.118049E-01  0.000000E+00
  5.927917E-01  2.636485E-02  1.000000E-01  6.048790E-01  1.702406E-02  5.664473E-17  1.737035E-02  1.288138E-03  9.470311E-05  3.181262E-01  0.000000E+00
  6.219828E-01  2.844209E-02  1.000000E-01  6.346663E-01  1.914372E-02 -4.248355E-17  1.682627E-02  1.160168E-03  9.893722E-05  3.286550E-01  0.000000E+00
  6.504533E-01  3.033414E-02  1.000000E-01  6.637181E-01  2.107441E-02  5.664473E-17  1.616713E-02  1.013334E-03  1.024474E-04  3.438669E-01  0.000000E+00
  6.780742E-01  3.194982E-02  1.000000E-01  6.919030E-01  2.272308E-02  4.531579E-16  1.552039E-02  8.143102E-04  1.053597E-04  3.617704E-01  0.000000E+00
  7.047326E-01  3.317264E-02  1.000000E-01  7.191058E-01  2.397088E-02  0.000000E+00  1.501610E-02  5.708294E-04  1.079570E-04  3.782878E-01  0.000000E+00
  1.215943E-04  9.343716E-03  1.000000E-01  1.060950E-04 -3.446550E-04 -5.664473E-17 -4.486051E-02  8.002578E-02  6.748276E-05  7.551416E-01  0.000000E+00
  4.902502E-03  3.676383E-03  1.000000E-01  4.984632E-03 -6.127719E-03 -8.496710E-17 -1.642293E-02  1.922348E-02  5.320251E-05  9.369270E-01  0.000000E+00
  1.254908E-02  3.692686E-05  1.000000E-01  1.278736E-02 -9.841496E-03 -2.832237E-17  8.071405E-03 -2.134190E-03  3.966246E-05  5.407026E-01  0.000000E+00
  2.163699E-02 -2.349731E-03  1.000000E-01  2.206086E-02 -1.227689E-02  1.416118E-17  2.171863E-02 -4.476376E-03  3.371935E-05  3.396011E-01  0.000000E+00
  3.184423E-02 -4.024309E-03  1.000000E-01  3.247653E-02 -1.398567E-02 -2.832237E-17  2.741937E-02 -3.596290E-03  3.283879E-05  3.059335E-01  0.000000E+00
  4.311596E-02 -5.196995E-03  1.000000E-01  4.397844E-02 -1.518230E-02 -8.496710E-17  2.959967E-02 -2.378518E-03  3.323762E-05  2.708291E-01  0.000000E+00
  5.546913E-02 -5.910990E-03  1.000000E-01  5.658387E-02 -1.591087E-02  1.416118E-17  3.026269E-02 -1.404881E-03  3.385388E-05  2.383715E-01  0.000000E+00
  6.891473E-02 -6.380008E-03  1.000000E-01  7.030404E-02 -1.638947E-02 -8.496710E-17  3.050113E-02 -8.731203E-04  3.454189E-05  2.264621E-01  0.000000E+00
  8.348882E-02 -6.710702E-03  1.000000E-01  8.517575E-02 -1.672692E-02  5.664473E-17  3.062875E-02 -5.238940E-04  3.517070E-05  2.144694E-01  0.000000E+00
  9.923792E-02 -6.896999E-03  1.000000E-01  1.012465E-01 -1.691702E-02 -9.912828E-17  3.060206E-02 -1.657972E-04  3.575091E-05  1.955983E-01  0.000000E+00
  1.162051E-01 -6.881184E-03  1.000000E-01  1.185601E-01 -1.690088E-02 -8.496710E-17  3.038423E-02  2.015743E-04  3.636071E-05  1.787775E-01  0.000000E+00
  1.344203E-01 -6.655765E-03  1.000000E-01  1.371473E-01 -1.667086E-02 -8.496710E-17  2.999889E-02  5.232092E-04  3.702796E-05  1.694949E-01  0.000000E+00
  1.539027E-01 -6.217945E-03  1.000000E-01  1.570276E-01 -1.622410E-02  4.389967E-16  2.946585E-02  8.002093E-04  3.774306E-05  1.644781E-01  0.000000E+00
  1.746592E-01 -5.556954E-03  1.000000E-01  1.782079E-01 -1.554961E-02  3.257072E-16  2.885989E-02  1.019463E-03  3.855221E-05  1.625544E-01  0.000000E+00
  1.966815E-01 -4.701721E-03  1.000000E-01  2.006799E-01 -1.467691E-02 -2.832237E-17  2.831189E-02  1.165129E-03  3.954611E-05  1.637379E-01  0.000000E+00
  2.199461E-01 -3.690855E-03  1.000000E-01  2.244196E-01 -1.364540E-02 -4.248355E-17  2.795256E-02  1.248745E-03  4.083708E-05  1.655889E-01  0.000000E+00
  2.444131E-01 -2.568716E-03  1.000000E-01  2.493862E-01 -1.250035E-02  3.823520E-16  2.789163E-02  1.274911E-03  4.258479E-05  1.663359E-01  0.000000E+00
  7.047326E-01  3.317264E-02  1.000000E-01  7.191058E-01  2.397088E-02 -2.832237E-17  1.501610E-02  5.708294E-04  1.079570E-04  3.782878E-01  0.000000E+00
  7.303325E-01  3.392940E-02  1.000000E-01  7.452285E-01  2.474309E-02 -2.832237E-17  1.474888E-02  3.003908E-04  1.105479E-04  3.906184E-01  0.000000E+00
  7.547951E-01  3.419189E-02  1.000000E-01  7.701907E-01  2.501093E-02  4.389967E-16  1.478916E-02  2.003041E-06  1.134173E-04  3.985944E-01  0.000000E+00
  7.780600E-01  3.394345E-02  1.000000E-01  7.939306E-01  2.475743E-02  1.416118E-17  1.518572E-02 -3.387381E-04  1.167797E-04  4.021352E-01  0.000000E+00
  8.000833E-01  3.319734E-02  1.000000E-01  8.164036E-01  2.399608E-02 -4.248355E-17  1.594605E-02 -7.369484E-04  1.207293E-04  4.006490E-01  0.000000E+00
  8.208376E-01  3.198847E-02  1.000000E-01  8.375818E-01  2.276253E-02 -2.832237E-17  1.700084E-02 -1.178783E-03  1.251364E-04  3.931498E-01  0.000000E+00
  8.403144E-01  3.042764E-02  1.000000E-01  8.574564E-01  2.116982E-02  4.389967E-16  1.818827E-02 -1.601844E-03  1.296033E-04  3.788579E-01  0.000000E+00
  8.585258E-01  2.868081E-02  1.000000E-01  8.760396E-01  1.938732E-02  3.965131E-16  1.931109E-02 -1.940626E-03  1.336060E-04  3.602483E-01  0.000000E+00
  8.754993E-01  2.689478E-02  1.000000E-01  8.933597E-01  1.756482E-02 -2.832237E-17  2.022438E-02 -2.176164E-03  1.366324E-04  3.414850E-01  0.000000E+00
  8.912718E-01  2.515569E-02  1.000000E-01  9.094543E-01  1.579022E-02 -2.832237E-17  2.091139E-02 -2.363955E-03  1.383804E-04  3.262213E-01  0.000000E+00
  9.058836E-01  2.345912E-02  1.000000E-01  9.243645E-01  1.405900E-02 -4.248355E-17  2.149557E-02 -2.588187E-03  1.389714E-04  3.150991E-01  0.000000E+00
  9.193796E-01  2.177133E-02  1.000000E-01  9.381361E-01  1.233674E-02 -5.664473E-17  2.216957E-02 -2.877635E-03  1.391343E-04  3.035276E-01  0.000000E+00
  9.318118E-01  2.009459E-02  1.000000E-01  9.508221E-01  1.062576E-02  4.248355E-17  2.313732E-02 -3.250252E-03  1.403469E-04  2.888759E-01  0.000000E+00
  9.432349E-01  1.842487E-02  1.000000E-01  9.624785E-01  8.921940E-03 -2.832237E-17  2.443501E-02 -3.722665E-03  1.436724E-04  2.716573E-01  0.000000E+00
  9.537058E-01  1.676301E-02  1.000000E-01  9.731633E-01  7.226143E-03  0.000000E+00  2.540788E-02 -4.189559E-03  1.465331E-04  2.461752E-01  0.000000E+00
  9.632829E-01  1.511423E-02  1.000000E-01  9.829359E-01  5.543702E-03 -2.832237E-17  2.443087E-02 -4.384869E-03  1.407155E-04  2.104698E-01  0.000000E+00
  9.720275E-01  1.351198E-02  1.000000E-01  9.918591E-01  3.908728E-03  0.000000E+00  2.071567E-02 -3.818706E-03  1.206027E-04  2.072323E-01  0.000000E+00
  9.800000E-01  1.197892E-02  1.000000E-01  9.999944E-01  2.344358E-03  1.416118E-17  1.380575E-02  4.499685E-03  7.483463E-05 -8.738739E-03  0.000000E+00
  1.215943E-04  1.002439E-02  1.000000E-01  1.060950E-04  3.499164E-04 -9.912828E-17  2.285458E-02  5.305662E-02  3.359122E-05  4.638637E-01  0.000000E+00
  7.278129E-05  9.909727E-03  1.000000E-01  5.628516E-05  2.329146E-04  1.416118E-17  1.554670E-02  7.598894E-02  4.560483E-05  3.051022E-01  0.000000E+00
  1.762252E-05  9.681473E-03  1.000000E-01  0.000000E+00  0.000000E+00  0.000000E+00 -1.195140E-02  1.212473E-01  6.527206E-05  3.455594E-01  0.000000E+00
  8.694958E-05  9.456308E-03  1.000000E-01  7.074277E-05 -2.297638E-04  0.000000E+00 -5.034037E-02  1.307514E-01  7.417716E-05  3.945253E-01  0.000000E+00
  1.215943E-04  9.343716E-03  1.000000E-01  1.060950E-04 -3.446550E-04 -4.248355E-17 -4.486051E-02  8.002578E-02  6.748276E-05  7.551416E-01  0.000000E+00
  9.800000E-01  1.197892E-02  1.000000E-01  9.999944E-01  2.344358E-03  0.000000E+00  1.380575E-02  4.499685E-03  7.483463E-05 -8.738739E-03  0.000000E+00
  9.800000E-01  1.214233E-02  1.000000E-01  9.999944E-01  2.511111E-03  0.000000E+00  4.511636E-03 -1.286689E-03 -1.556818E-05 -2.119888E-01  0.000000E+00
  9.800000E-01  1.246916E-02  1.000000E-01  9.999944E-01  2.844617E-03 -2.832237E-17 -4.358321E-04 -1.593862E-02 -1.162654E-04 -1.765595E-01  0.000000E+00
  9.800000E-01  1.279600E-02  1.000000E-01  9.999944E-01  3.178124E-03 -5.664473E-17  3.400285E-03 -1.974383E-02 -1.805310E-04 -1.945366E-01  0.000000E+00
  9.800000E-01  1.295941E-02  1.000000E-01  9.999944E-01  3.344877E-03  0.000000E+00  1.054712E-02 -1.322320E-02 -2.071079E-04 -5.792427E-02  0.000000E+00
  2.628044E-01  9.880365E-02  1.000000E-01  2.681531E-01  9.094212E-02 -2.832237E-17  5.522413E-02  4.303148E-03 -4.304641E-05 -1.203466E+00  0.000000E+00
  2.368706E-01  9.647171E-02  1.000000E-01  2.416897E-01  8.856257E-02  3.681908E-16  5.746353E-02  5.917359E-03 -3.588313E-05 -1.243546E+00  0.000000E+00
  2.121362E-01  9.359390E-02  1.000000E-01  2.164502E-01  8.562598E-02  1.416118E-17  5.977589E-02  7.805238E-03 -2.977318E-05 -1.274219E+00  0.000000E+00
  1.886687E-01  9.018798E-02  1.000000E-01  1.925035E-01  8.215052E-02 -4.248355E-17  6.198510E-02  9.945152E-03 -2.449305E-05 -1.290631E+00  0.000000E+00
  1.665185E-01  8.628622E-02  1.000000E-01  1.699009E-01  7.816908E-02  4.814802E-16  6.386438E-02  1.227076E-02 -1.988739E-05 -1.290326E+00  0.000000E+00
  1.457161E-01  8.194559E-02  1.000000E-01  1.486738E-01  7.373980E-02  4.531579E-16  6.526096E-02  1.470851E-02 -1.585145E-05 -1.274874E+00  0.000000E+00
  1.262764E-01  7.722583E-02  1.000000E-01  1.288371E-01  6.892366E-02  0.000000E+00  6.615746E-02  1.722189E-02 -1.228054E-05 -1.249469E+00  0.000000E+00
  1.081990E-01  7.218668E-02  1.000000E-01  1.103905E-01  6.378161E-02  0.000000E+00  6.659035E-02  1.978721E-02 -9.030569E-06 -1.221216E+00  0.000000E+00
  9.146971E-02  6.689051E-02  1.000000E-01  9.331961E-02  5.837729E-02  0.000000E+00  6.666876E-02  2.255900E-02 -5.976586E-06 -1.185335E+00  0.000000E+00
  7.608258E-02  6.133299E-02  1.000000E-01  7.761826E-02  5.270628E-02  0.000000E+00  6.635077E-02  2.570851E-02 -3.055042E-06 -1.123503E+00  0.000000E+00
  6.202881E-02  5.550344E-02  1.000000E-01  6.327750E-02  4.675769E-02 -5.664473E-17  6.529966E-02  2.909676E-02 -2.542380E-07 -1.018537E+00  0.000000E+00
  4.929579E-02  4.941874E-02  1.000000E-01  5.028446E-02  4.054873E-02 -8.496710E-17  6.315855E-02  3.217560E-02  2.430120E-06 -8.754215E-01  0.000000E+00
  3.782553E-02  4.318959E-02  1.000000E-01  3.857998E-02  3.419238E-02  4.248355E-17  6.006173E-02  3.472638E-02  5.050215E-06 -7.208929E-01  0.000000E+00
  2.757469E-02  3.686981E-02  1.000000E-01  2.811981E-02  2.774354E-02 -2.832237E-17  5.650906E-02  3.698646E-02  7.853547E-06 -6.026222E-01  0.000000E+00
  1.848362E-02  3.053607E-02  1.000000E-01  1.884309E-02  2.128047E-02  5.664473E-17  5.317389E-02  4.040322E-02  1.159479E-05 -5.049252E-01  0.000000E+00
  1.064273E-02  2.406248E-02  1.000000E-01  1.084208E-02  1.467468E-02  1.416118E-17  4.941077E-02  4.660592E-02  1.769934E-05 -2.651685E-01  0.000000E+00
  4.262692E-03  1.729906E-02  1.000000E-01  4.331757E-03  7.773147E-03  1.416118E-17  4.006174E-02  5.384562E-02  2.643797E-05  2.468770E-01  0.000000E+00
  1.215943E-04  1.002439E-02  1.000000E-01  1.060950E-04  3.499164E-04 -8.496710E-17  2.285458E-02  5.305662E-02  3.359122E-05  4.638637E-01  0.000000E+00
    1    2
    2    3
    3    4
    4    5
    5    6
    6    7
    7    8
    8    9
    9   10
   10   11
   11   12
   12   13
   13   14
   14   15
   15   16
   16   17
   18   19
   19   20
   20   21
   21   22
   22   23
   23   24
   24   25
   25   26
   26   27
   27   28
   28   29
   29   30
   30   31
   31   32
   32   33
   33   34
   35   36
   36   37
   37   38
   38   39
   39   40
   40   41
   41   42
   42   43
   43   44
   44   45
   45   46
   46   47
   47   48
   48   49
   49   50
   50   51
   52   53
   53   54
   54   55
   55   56
   56   57
   57   58
   58   59
   59   60
   60   61
   61   62
   62   63
   63   64
   64   65
   65   66
   66   67
   67   68
   69   70
   70   71
   71   72
   72   73
   73   74
   74   75
   75   76
   76   77
   77   78
   78   79
   79   80
   80   81
   81   82
   82   83
   83   84
   84   85
   85   86
   87   88
   88   89
   89   90
   90   91
   92   93
   93   94
   94   95
   95   96
   97   98
   98   99
   99  100
  100  101
  101  102
  102  103
  103  104
  104  105
  105  106
  106  107
  107  108
  108  109
  109  110
  110  111
  111  112
  112  113
  113  114
Zone T= "Slice_0002 None Relative Regular z = 0.36666667"
 Nodes =          114  Elements=          106  ZONETYPE=FELINESEG
 DATAPACKING=POINT
  7.301402E-01  6.769054E-02  3.666667E-01  7.450329E-01  5.921949E-02 -5.664478E-17  2.652420E-02 -4.239107E-03 -6.090165E-04 -4.391343E-01  0.000000E+00
  7.043967E-01  7.165192E-02  3.666667E-01  7.187636E-01  6.326176E-02 -1.132896E-16  2.773583E-02 -4.106255E-03 -5.967586E-04 -4.698157E-01  0.000000E+00
  6.775455E-01  7.547344E-02  3.666667E-01  6.913641E-01  6.716132E-02  3.058818E-14  2.870358E-02 -3.938830E-03 -5.806165E-04 -4.975510E-01  0.000000E+00
  6.496792E-01  7.915431E-02  3.666667E-01  6.629287E-01  7.091737E-02 -1.699343E-16  2.947752E-02 -3.776863E-03 -5.615696E-04 -5.264696E-01  0.000000E+00
  6.209097E-01  8.272327E-02  3.666667E-01  6.335717E-01  7.455920E-02  0.000000E+00  3.019522E-02 -3.633156E-03 -5.406250E-04 -5.595385E-01  0.000000E+00
  5.913667E-01  8.616551E-02  3.666667E-01  6.034254E-01  7.807174E-02  1.132896E-16  3.102240E-02 -3.492243E-03 -5.184050E-04 -5.971983E-01  0.000000E+00
  5.611982E-01  8.944152E-02  3.666667E-01  5.726408E-01  8.141465E-02  2.265791E-16  3.207794E-02 -3.342620E-03 -4.947042E-04 -6.403511E-01  0.000000E+00
  5.305654E-01  9.249904E-02  3.666667E-01  5.413824E-01  8.453462E-02  1.132896E-16  3.343989E-02 -3.173309E-03 -4.688118E-04 -6.907890E-01  0.000000E+00
  4.996398E-01  9.528273E-02  3.666667E-01  5.098252E-01  8.737515E-02 -1.699343E-16  3.517469E-02 -2.957004E-03 -4.400188E-04 -7.495577E-01  0.000000E+00
  4.685986E-01  9.771128E-02  3.666667E-01  4.781501E-01  8.985329E-02  1.132896E-16  3.733226E-02 -2.643973E-03 -4.079221E-04 -8.149932E-01  0.000000E+00
  4.376215E-01  9.968257E-02  3.666667E-01  4.465405E-01  9.186484E-02 -5.664478E-17  3.989133E-02 -2.181045E-03 -3.723638E-04 -8.831533E-01  0.000000E+00
  4.068895E-01  1.010975E-01  3.666667E-01  4.151809E-01  9.330866E-02 -5.664478E-17  4.272559E-02 -1.526786E-03 -3.335377E-04 -9.491069E-01  0.000000E+00
  3.765814E-01  1.018781E-01  3.666667E-01  3.842538E-01  9.410526E-02  5.664478E-17  4.561983E-02 -6.801512E-04 -2.922240E-04 -1.009897E+00  0.000000E+00
  3.468696E-01  1.020050E-01  3.666667E-01  3.539353E-01  9.423466E-02 -5.664478E-17  4.838901E-02  3.388518E-04 -2.501667E-04 -1.064068E+00  0.000000E+00
  3.179133E-01  1.014780E-01  3.666667E-01  3.243877E-01  9.369696E-02  0.000000E+00  5.095815E-02  1.516359E-03 -2.097824E-04 -1.111172E+00  0.000000E+00
  2.898519E-01  1.003161E-01  3.666667E-01  2.957531E-01  9.251135E-02  5.664478E-17  5.333062E-02  2.826630E-03 -1.730316E-04 -1.154357E+00  0.000000E+00
  2.628044E-01  9.856155E-02  3.666667E-01  2.681533E-01  9.072093E-02  5.664478E-17  5.558098E-02  4.255641E-03 -1.408044E-04 -1.197724E+00  0.000000E+00
  9.800000E-01  1.269222E-02  3.666667E-01  9.999952E-01  3.098008E-03  5.664478E-17  1.054596E-02 -1.311864E-02 -6.719206E-04 -5.847951E-02  0.000000E+00
  9.720124E-01  1.485211E-02  3.666667E-01  9.918445E-01  5.302005E-03  0.000000E+00  1.208696E-02 -3.336239E-03 -6.332059E-04  6.669876E-02  0.000000E+00
  9.632634E-01  1.722846E-02  3.666667E-01  9.829168E-01  7.726891E-03  1.132896E-16  9.112427E-03 -2.409600E-03 -5.382339E-04  1.927642E-02  0.000000E+00
  9.536907E-01  1.980897E-02  3.666667E-01  9.731487E-01  1.036010E-02 -5.664478E-17  7.295656E-03 -1.953408E-03 -4.728257E-04  7.960411E-04  0.000000E+00
  9.432303E-01  2.257692E-02  3.666667E-01  9.624746E-01  1.318457E-02 -1.699343E-16  6.953466E-03 -1.820986E-03 -4.502692E-04 -1.983945E-02  0.000000E+00
  9.318220E-01  2.553456E-02  3.666667E-01  9.508333E-01  1.620261E-02 -5.664478E-17  7.756671E-03 -1.985602E-03 -4.581742E-04 -4.653463E-02  0.000000E+00
  9.194070E-01  2.868359E-02  3.666667E-01  9.381648E-01  1.941595E-02  0.000000E+00  9.207217E-03 -2.303874E-03 -4.807961E-04 -7.523183E-02  0.000000E+00
  9.059278E-01  3.202047E-02  3.666667E-01  9.244103E-01  2.282097E-02 -1.132896E-16  1.089670E-02 -2.657964E-03 -5.074426E-04 -1.057867E-01  0.000000E+00
  8.913299E-01  3.553733E-02  3.666667E-01  9.095143E-01  2.640966E-02  0.000000E+00  1.263159E-02 -2.996274E-03 -5.331182E-04 -1.386765E-01  0.000000E+00
  8.755643E-01  3.922660E-02  3.666667E-01  8.934268E-01  3.017427E-02 -1.132896E-16  1.438800E-02 -3.310986E-03 -5.565043E-04 -1.739448E-01  0.000000E+00
  8.585885E-01  4.307497E-02  3.666667E-01  8.761042E-01  3.410122E-02  3.098469E-14  1.619571E-02 -3.601772E-03 -5.773726E-04 -2.110881E-01  0.000000E+00
  8.403666E-01  4.705732E-02  3.666667E-01  8.575103E-01  3.816490E-02  3.098469E-14  1.804798E-02 -3.858560E-03 -5.948532E-04 -2.494012E-01  0.000000E+00
  8.208730E-01  5.114108E-02  3.666667E-01  8.376186E-01  4.233206E-02 -5.664478E-17  1.990301E-02 -4.067987E-03 -6.078591E-04 -2.884475E-01  0.000000E+00
  8.000947E-01  5.529063E-02  3.666667E-01  8.164160E-01  4.656635E-02 -5.664478E-17  2.172015E-02 -4.219086E-03 -6.158911E-04 -3.278292E-01  0.000000E+00
  7.780326E-01  5.946399E-02  3.666667E-01  7.939033E-01  5.082493E-02 -1.132896E-16  2.346202E-02 -4.302137E-03 -6.188063E-04 -3.668974E-01  0.000000E+00
  7.547032E-01  6.361414E-02  3.666667E-01  7.700975E-01  5.505984E-02  3.075811E-14  2.508250E-02 -4.308944E-03 -6.165064E-04 -4.044949E-01  0.000000E+00
  7.301402E-01  6.769054E-02  3.666667E-01  7.450329E-01  5.921949E-02 -5.664478E-17  2.652420E-02 -4.239107E-03 -6.090165E-04 -4.391343E-01  0.000000E+00
  2.444131E-01 -2.785296E-03  3.666667E-01  2.493864E-01 -1.269558E-02  3.092805E-14  2.815117E-02  1.251093E-03  1.370915E-04  1.642423E-01  0.000000E+00
  2.700250E-01 -1.652395E-03  3.666667E-01  2.755214E-01 -1.153954E-02  5.664478E-17  2.842689E-02  1.234936E-03  1.470359E-04  1.621976E-01  0.000000E+00
  2.967058E-01 -5.156494E-04  3.666667E-01  3.027471E-01 -1.037958E-02 -5.664478E-17  2.883644E-02  1.263797E-03  1.598892E-04  1.538721E-01  0.000000E+00
  3.243554E-01  7.277617E-04  3.666667E-01  3.309612E-01 -9.110781E-03  3.070147E-14  2.902122E-02  1.416955E-03  1.757749E-04  1.404475E-01  0.000000E+00
  3.528511E-01  2.227990E-03  3.666667E-01  3.600390E-01 -7.579916E-03 -5.664478E-17  2.857783E-02  1.715709E-03  1.940075E-04  1.282080E-01  0.000000E+00
  3.820469E-01  4.202075E-03  3.666667E-01  3.898309E-01 -5.565517E-03 -1.132896E-16  2.724309E-02  2.112386E-03  2.129771E-04  1.249042E-01  0.000000E+00
  4.117740E-01  6.822164E-03  3.666667E-01  4.201651E-01 -2.891922E-03  1.132896E-16  2.508785E-02  2.489401E-03  2.306792E-04  1.376452E-01  0.000000E+00
  4.418498E-01  1.017022E-02  3.666667E-01  4.508551E-01  5.245092E-04 -1.699343E-16  2.254713E-02  2.705961E-03  2.457366E-04  1.668937E-01  0.000000E+00
  4.721105E-01  1.410162E-02  3.666667E-01  4.817338E-01  4.536197E-03 -1.132896E-16  2.039610E-02  2.556462E-03  2.589707E-04  2.184351E-01  0.000000E+00
  5.024968E-01  1.775921E-02  3.666667E-01  5.127406E-01  8.268478E-03  5.664478E-17  1.909545E-02  2.122970E-03  2.717366E-04  2.732777E-01  0.000000E+00
  5.328693E-01  2.082302E-02  3.666667E-01  5.437333E-01  1.139485E-02 -2.265791E-16  1.843127E-02  1.728756E-03  2.846019E-04  3.000829E-01  0.000000E+00
  5.630297E-01  2.342514E-02  3.666667E-01  5.745097E-01  1.405011E-02  1.132896E-16  1.803448E-02  1.467084E-03  2.981361E-04  3.073849E-01  0.000000E+00
  5.927917E-01  2.569880E-02  3.666667E-01  6.048795E-01  1.637021E-02  0.000000E+00  1.762896E-02  1.298779E-03  3.117594E-04  3.135954E-01  0.000000E+00
  6.219828E-01  2.776723E-02  3.666667E-01  6.346668E-01  1.848088E-02  5.664478E-17  1.707734E-02  1.172973E-03  3.241298E-04  3.240902E-01  0.000000E+00
  6.504533E-01  2.965774E-02  3.666667E-01  6.637186E-01  2.040999E-02 -1.132896E-16  1.640896E-02  1.027714E-03  3.347371E-04  3.393431E-01  0.000000E+00
  6.780742E-01  3.127865E-02  3.666667E-01  6.919036E-01  2.206400E-02  3.092805E-14  1.575183E-02  8.291749E-04  3.440079E-04  3.573342E-01  0.000000E+00
  7.047326E-01  3.251292E-02  3.666667E-01  7.191064E-01  2.332348E-02 -5.664478E-17  1.523703E-02  5.852138E-04  3.526848E-04  3.739723E-01  0.000000E+00
  1.215943E-04  9.318414E-03  3.666667E-01  1.060951E-04 -3.446944E-04 -2.265791E-16 -4.399020E-02  7.851647E-02  2.093112E-04  7.589389E-01  0.000000E+00
  4.902502E-03  3.649262E-03  3.666667E-01  4.984636E-03 -6.129619E-03  5.664478E-17 -1.579847E-02  1.865563E-02  1.620906E-04  9.348269E-01  0.000000E+00
  1.254908E-02  6.749192E-06  3.666667E-01  1.278737E-02 -9.846518E-03  2.265791E-16  8.439589E-03 -2.285742E-03  1.189166E-04  5.367559E-01  0.000000E+00
  2.163699E-02 -2.383761E-03  3.666667E-01  2.206087E-02 -1.228585E-02  5.664478E-17  2.195457E-02 -4.537752E-03  1.001657E-04  3.360709E-01  0.000000E+00
  3.184423E-02 -4.062951E-03  3.666667E-01  3.247656E-02 -1.399933E-02  0.000000E+00  2.763855E-02 -3.638795E-03  9.728985E-05  3.030799E-01  0.000000E+00
  4.311596E-02 -5.241084E-03  3.666667E-01  4.397847E-02 -1.520152E-02 -1.132896E-16  2.983179E-02 -2.412699E-03  9.844708E-05  2.683463E-01  0.000000E+00
  5.546913E-02 -5.961486E-03  3.666667E-01  5.658392E-02 -1.593663E-02 -5.664478E-17  3.050346E-02 -1.433102E-03  1.002991E-04  2.360606E-01  0.000000E+00
  6.891473E-02 -6.438014E-03  3.666667E-01  7.030410E-02 -1.642289E-02  1.699343E-16  3.074620E-02 -8.986168E-04  1.024485E-04  2.243089E-01  0.000000E+00
  8.348882E-02 -6.777501E-03  3.666667E-01  8.517581E-02 -1.676931E-02  2.832239E-16  3.087717E-02 -5.481292E-04  1.045737E-04  2.124662E-01  0.000000E+00
  9.923792E-02 -6.974093E-03  3.666667E-01  1.012465E-01 -1.696992E-02 -1.132896E-16  3.085268E-02 -1.887292E-04  1.067490E-04  1.936972E-01  0.000000E+00
  1.162051E-01 -6.970329E-03  3.666667E-01  1.185602E-01 -1.696608E-02  5.664478E-17  3.063481E-02  1.800080E-04  1.092285E-04  1.769312E-01  0.000000E+00
  1.344203E-01 -6.759002E-03  3.666667E-01  1.371474E-01 -1.675044E-02  0.000000E+00  3.024711E-02  5.025998E-04  1.121062E-04  1.676787E-01  0.000000E+00
  1.539027E-01 -6.337639E-03  3.666667E-01  1.570277E-01 -1.632047E-02  3.064483E-14  2.971008E-02  7.801612E-04  1.153623E-04  1.626737E-01  0.000000E+00
  1.746592E-01 -5.695828E-03  3.666667E-01  1.782080E-01 -1.566555E-02  3.109798E-14  2.910060E-02  9.994591E-04  1.191453E-04  1.607346E-01  0.000000E+00
  1.966815E-01 -4.862880E-03  3.666667E-01  2.006801E-01 -1.481559E-02 -1.132896E-16  2.855252E-02  1.144501E-03  1.237472E-04  1.618685E-01  0.000000E+00
  2.199461E-01 -3.877795E-03  3.666667E-01  2.244198E-01 -1.381039E-02 -1.699343E-16  2.819901E-02  1.226873E-03  1.295465E-04  1.636307E-01  0.000000E+00
  2.444131E-01 -2.785296E-03  3.666667E-01  2.493864E-01 -1.269558E-02  3.092805E-14  2.815117E-02  1.251093E-03  1.370915E-04  1.642423E-01  0.000000E+00
  7.047326E-01  3.251292E-02  3.666667E-01  7.191064E-01  2.332348E-02 -5.664478E-17  1.523703E-02  5.852138E-04  3.526848E-04  3.739723E-01  0.000000E+00