 Title= "ADflow Lift Distribution Data"
Variables = "eta" "CoordinateX" "CoordinateY" "CoordinateZ" "Lift" "Drag" "Moment" "Normalized Lift" "Normalized Drag" "Normalized Moment" "CL" "CD" "CM" "CLp" "CDp" "CMp" "CLv" "CDv" "CMv" "Elliptical" "thickness" "twist" "chord" "fx" "fy" "fz" 
Zone T= "LiftDist_01 allWalls: : z normal"
 I=          150
 DATAPACKING=BLOCK
  0.000000E+00
  6.711405E-03
  1.342281E-02
  2.013422E-02
  2.684563E-02
  3.355704E-02
  4.026845E-02
  4.697986E-02
  5.369127E-02
  6.040268E-02
  6.711409E-02
  7.382550E-02
  8.053691E-02
  8.724832E-02
  9.395973E-02
  1.006711E-01
  1.073825E-01
  1.140940E-01
  1.208054E-01
  1.275168E-01
  1.342282E-01
  1.409396E-01
  1.476510E-01
  1.543624E-01
  1.610738E-01
  1.677852E-01
  1.744966E-01
  1.812081E-01
  1.879195E-01
  1.946309E-01
  2.013423E-01
  2.080537E-01
  2.147651E-01
  2.214765E-01
  2.281879E-01
  2.348993E-01
  2.416107E-01
  2.483221E-01
  2.550336E-01
  2.617450E-01
  2.684564E-01
  2.751678E-01
  2.818792E-01
  2.885906E-01
  2.953020E-01
  3.020134E-01
  3.087248E-01
  3.154362E-01
  3.221476E-01
  3.288591E-01
  3.355705E-01
  3.422819E-01
  3.489933E-01
  3.557047E-01
  3.624161E-01
  3.691275E-01
  3.758389E-01
  3.825503E-01
  3.892617E-01
  3.959732E-01
  4.026846E-01
  4.093960E-01
  4.161074E-01
  4.228188E-01
  4.295302E-01
  4.362416E-01
  4.429530E-01
  4.496644E-01
  4.563758E-01
  4.630872E-01
  4.697987E-01
  4.765101E-01
  4.832215E-01
  4.899329E-01
  4.966443E-01
  5.033557E-01
  5.100671E-01
  5.167785E-01
  5.234899E-01
  5.302013E-01
  5.369128E-01
  5.436242E-01
  5.503356E-01
  5.570470E-01
  5.637584E-01
  5.704698E-01
  5.771812E-01
  5.838926E-01
  5.906040E-01
  5.973154E-01
  6.040268E-01
  6.107383E-01
  6.174497E-01
  6.241611E-01
  6.308725E-01
  6.375839E-01
  6.442953E-01
  6.510067E-01
  6.577181E-01
  6.644295E-01
  6.711409E-01
  6.778524E-01
  6.845638E-01
  6.912752E-01
  6.979866E-01
  7.046980E-01
  7.114094E-01
  7.181208E-01
  7.248322E-01
  7.315436E-01
  7.382550E-01
  7.449664E-01
  7.516779E-01
  7.583893E-01
  7.651007E-01
  7.718121E-01
  7.785235E-01
  7.852349E-01
  7.919463E-01
  7.986577E-01
  8.053691E-01
  8.120805E-01
  8.187919E-01
  8.255034E-01
  8.322148E-01
  8.389262E-01
  8.456376E-01
  8.523490E-01
  8.590604E-01
  8.657718E-01
  8.724832E-01
  8.791946E-01
  8.859060E-01
  8.926175E-01
  8.993289E-01
  9.060403E-01
  9.127517E-01
  9.194631E-01
  9.261745E-01
  9.328859E-01
  9.395973E-01
  9.463087E-01
  9.530201E-01
  9.597315E-01
  9.664430E-01
  9.731544E-01
  9.798658E-01
  9.865772E-01
  9.932886E-01
  1.000000E+00
  0.000000E+00
  0.000000E+00
  0.000000E+00
  0.000000E+00
  0.000000E+00
  0.000000E+00
  0.000000E+00
  0.000000E+00
  0.000000E+00
  0.000000E+00
  0.000000E+00
  0.000000E+00
  0.000000E+00
  0.000000E+00
  0.000000E+00
  0.000000E+00
  0.000000E+00
  0.000000E+00
  0.000000E+00
  0.000000E+00
  0.000000E+00
  0.000000E+00
  0.000000E+00
  0.000000E+00
  0.000000E+00
  0.000000E+00
  0.000000E+00
  0.000000E+00
  0.000000E+00
  0.000000E+00
  0.000000E+00
  0.000000E+00
  0.000000E+00
  0.000000E+00
  0.000000E+00
  0.000000E+00
  0.000000E+00
  0.000000E+00
  0.000000E+00
  0.000000E+00
  0.000000E+00
  0.000000E+00
  0.000000E+00
  0.000000E+00
  0.000000E+00
  0.000000E+00
  0.000000E+00
  0.000000E+00
  0.000000E+00
  0.000000E+00
  0.000000E+00
  0.000000E+00
  0.000000E+00
  0.000000E+00
  0.000000E+00
  0.000000E+00
  0.000000E+00
  0.000000E+00
  0.000000E+00
  0.000000E+00
  0.000000E+00
  0.000000E+00
  0.000000E+00
  0.000000E+00
  0.000000E+00
  0.000000E+00
  0.000000E+00
  0.000000E+00
  0.000000E+00
  0.000000E+00
  0.000000E+00
  0.000000E+00
  0.000000E+00
  0.000000E+00
  0.000000E+00
  0.000000E+00
  0.000000E+00
  0.000000E+00
  0.000000E+00
  0.000000E+00
  0.000000E+00
  0.000000E+00
  0.000000E+00
  0.000000E+00
  0.000000E+00
  0.000000E+00
  0.000000E+00
  0.000000E+00
  0.000000E+00
  0.000000E+00
  0.000000E+00
  0.000000E+00
  0.000000E+00
  0.000000E+00
  0.000000E+00
  0.000000E+00
  0.000000E+00
  0.000000E+00
  0.000000E+00
  0.000000E+00
  0.000000E+00
  0.000000E+00
  0.000000E+00
  0.000000E+00
  0.000000E+00
  0.000000E+00
  0.000000E+00
  0.000000E+00
  0.000000E+00
  0.000000E+00
  0.000000E+00
  0.000000E+00
  0.000000E+00
  0.000000E+00
  0.000000E+00
  0.000000E+00
  0.000000E+00
  0.000000E+00
  0.000000E+00
  0.000000E+00
  0.000000E+00
  0.000000E+00
  0.000000E+00
  0.000000E+00
  0.000000E+00
  0.000000E+00
  0.000000E+00
  0.000000E+00
  0.000000E+00
  0.000000E+00
  0.000000E+00
  0.000000E+00
  0.000000E+00
  0.000000E+00
  0.000000E+00
  0.000000E+00
  0.000000E+00
  0.000000E+00
  0.000000E+00
  0.000000E+00
  0.000000E+00
  0.000000E+00
  0.000000E+00
  0.000000E+00
  0.000000E+00
  0.000000E+00
  0.000000E+00
  0.000000E+00
  0.000000E+00
  0.000000E+00
  0.000000E+00
  0.000000E+00
  0.000000E+00
  0.000000E+00
  0.000000E+00
  0.000000E+00
  0.000000E+00
  0.000000E+00
  0.000000E+00
  0.000000E+00
  0.000000E+00
  0.000000E+00
  0.000000E+00
  0.000000E+00
  0.000000E+00
  0.000000E+00
  0.000000E+00
  0.000000E+00
  0.000000E+00
  0.000000E+00
  0.000000E+00
  0.000000E+00
  0.000000E+00
  0.000000E+00
  0.000000E+00
  0.000000E+00
  0.000000E+00
  0.000000E+00
  0.000000E+00
  0.000000E+00
  0.000000E+00
  0.000000E+00
  0.000000E+00
  0.000000E+00
  0.000000E+00
  0.000000E+00
  0.000000E+00
  0.000000E+00
  0.000000E+00
  0.000000E+00
  0.000000E+00
  0.000000E+00
  0.000000E+00
  0.000000E+00
  0.000000E+00
  0.000000E+00
  0.000000E+00
  0.000000E+00
  0.000000E+00
  0.000000E+00
  0.000000E+00
  0.000000E+00
  0.000000E+00
  0.000000E+00
  0.000000E+00
  0.000000E+00
  0.000000E+00
  0.000000E+00
  0.000000E+00
  0.000000E+00
  0.000000E+00
  0.000000E+00
  0.000000E+00
  0.000000E+00
  0.000000E+00
  0.000000E+00
  0.000000E+00
  0.000000E+00
  0.000000E+00
  0.000000E+00
  0.000000E+00
  0.000000E+00
  0.000000E+00
  0.000000E+00
  0.000000E+00
  0.000000E+00
  0.000000E+00
  0.000000E+00
  0.000000E+00
  0.000000E+00
  0.000000E+00
  0.000000E+00
  0.000000E+00
  0.000000E+00
  0.000000E+00
  0.000000E+00
  0.000000E+00
  0.000000E+00
  0.000000E+00
  0.000000E+00
  0.000000E+00
  0.000000E+00
  0.000000E+00
  0.000000E+00
  0.000000E+00
  0.000000E+00
  0.000000E+00
  0.000000E+00
  0.000000E+00
  0.000000E+00
  0.000000E+00
  0.000000E+00
  0.000000E+00
  0.000000E+00
  0.000000E+00
  0.000000E+00
  0.000000E+00
  0.000000E+00
  0.000000E+00
  0.000000E+00
  0.000000E+00
  0.000000E+00
  0.000000E+00
  0.000000E+00
  0.000000E+00
  0.000000E+00
  0.000000E+00
  0.000000E+00
  0.000000E+00
  0.000000E+00
  0.000000E+00
  0.000000E+00
  0.000000E+00
  0.000000E+00
  0.000000E+00
  0.000000E+00
  0.000000E+00
  0.000000E+00
  0.000000E+00
  0.000000E+00
  0.000000E+00
  0.000000E+00
  0.000000E+00
  0.000000E+00
  0.000000E+00
  0.000000E+00
  0.000000E+00
  0.000000E+00
  0.000000E+00
  0.000000E+00
  0.000000E+00
  0.000000E+00
  0.000000E+00
  0.000000E+00
  0.000000E+00
  0.000000E+00
  0.000000E+00
  0.000000E+00
  0.000000E+00
  0.000000E+00
  1.000000E-08
  1.695085E-02
  3.390169E-02
  5.085254E-02
  6.780338E-02
  8.475423E-02
  1.017051E-01
  1.186559E-01
  1.356068E-01
  1.525576E-01
  1.695085E-01
  1.864593E-01
  2.034101E-01
  2.203610E-01
  2.373118E-01
  2.542627E-01
  2.712135E-01
  2.881644E-01
  3.051152E-01
  3.220661E-01
  3.390169E-01
  3.559678E-01
  3.729186E-01
  3.898694E-01
  4.068203E-01
  4.237711E-01
  4.407220E-01
  4.576728E-01
  4.746237E-01
  4.915745E-01
  5.085254E-01
  5.254762E-01
  5.424271E-01
  5.593779E-01
  5.763287E-01
  5.932796E-01
  6.102304E-01
  6.271813E-01
  6.441321E-01
  6.610830E-01
  6.780338E-01
  6.949847E-01
  7.119355E-01
  7.288864E-01
  7.458372E-01
  7.627880E-01
  7.797389E-01
  7.966897E-01
  8.136406E-01
  8.305914E-01
  8.475423E-01
  8.644931E-01
  8.814440E-01
  8.983948E-01
  9.153457E-01
  9.322965E-01
  9.492473E-01
  9.661982E-01
  9.831490E-01
  1.000100E+00
  1.017051E+00
  1.034002E+00
  1.050952E+00
  1.067903E+00
  1.084854E+00
  1.101805E+00
  1.118756E+00
  1.135707E+00
  1.152657E+00
  1.169608E+00
  1.186559E+00
  1.203510E+00
  1.220461E+00
  1.237412E+00
  1.254363E+00
  1.271313E+00
  1.288264E+00
  1.305215E+00
  1.322166E+00
  1.339117E+00
  1.356068E+00
  1.373018E+00
  1.389969E+00
  1.406920E+00
  1.423871E+00
  1.440822E+00
  1.457773E+00
  1.474724E+00
  1.491674E+00
  1.508625E+00
  1.525576E+00
  1.542527E+00
  1.559478E+00
  1.576429E+00
  1.593379E+00
  1.610330E+00
  1.627281E+00
  1.644232E+00
  1.661183E+00
  1.678134E+00
  1.695085E+00
  1.712035E+00
  1.728986E+00
  1.745937E+00
  1.762888E+00
  1.779839E+00
  1.796790E+00
  1.813740E+00
  1.830691E+00
  1.847642E+00
  1.864593E+00
  1.881544E+00
  1.898495E+00
  1.915446E+00
  1.932396E+00
  1.949347E+00
  1.966298E+00
  1.983249E+00
  2.000200E+00
  2.017151E+00
  2.034101E+00
  2.051052E+00
  2.068003E+00
  2.084954E+00
  2.101905E+00
  2.118856E+00
  2.135807E+00
  2.152757E+00
  2.169708E+00
  2.186659E+00
  2.203610E+00
  2.220561E+00
  2.237512E+00
  2.254462E+00
  2.271413E+00
  2.288364E+00
  2.305315E+00
  2.322266E+00
  2.339217E+00
  2.356168E+00
  2.373118E+00
  2.390069E+00
  2.407020E+00
  2.423971E+00
  2.440922E+00
  2.457873E+00
  2.474823E+00
  2.491774E+00
  2.508725E+00
  2.525676E+00
  1.010624E+04
  1.010477E+04
  1.010331E+04
  1.010185E+04
  1.010041E+04
  1.009896E+04
  1.009753E+04
  1.009610E+04
  1.009468E+04
  1.008932E+04
  1.008387E+04
  1.007842E+04
  1.007298E+04
  1.006755E+04
  1.006212E+04
  1.005669E+04
  1.004970E+04
  1.003981E+04
  1.002992E+04
  1.002004E+04
  1.001017E+04
  1.000030E+04
  9.990430E+03
  9.980423E+03
  9.969267E+03
  9.958115E+03
  9.946966E+03
  9.935821E+03
  9.924680E+03
  9.913542E+03
  9.902300E+03
  9.890706E+03
  9.879115E+03
  9.867526E+03
  9.855940E+03
  9.844357E+03
  9.832776E+03
  9.820783E+03
  9.808610E+03
  9.796439E+03
  9.784269E+03
  9.772100E+03
  9.759933E+03
  9.747599E+03
  9.735089E+03
  9.722578E+03
  9.710068E+03
  9.697558E+03
  9.685049E+03
  9.672644E+03
  9.660312E+03
  9.647980E+03
  9.635647E+03
  9.623314E+03
  9.610980E+03
  9.599404E+03
  9.587839E+03
  9.576274E+03
  9.564708E+03
  9.553143E+03
  9.542519E+03
  9.532380E+03
  9.522241E+03
  9.512103E+03
  9.501966E+03
  9.492999E+03
  9.484802E+03
  9.476608E+03
  9.468419E+03
  9.460233E+03
  9.453635E+03
  9.447445E+03
  9.441266E+03
  9.435097E+03
  9.429234E+03
  9.424348E+03
  9.419486E+03
  9.414650E+03
  9.409839E+03
  9.405064E+03
  9.400334E+03
  9.395650E+03
  9.391012E+03
  9.385222E+03
  9.379154E+03
  9.373146E+03
  9.367199E+03
  9.358225E+03
  9.348841E+03
  9.339520E+03
  9.329414E+03
  9.314538E+03
  9.299715E+03
  9.284946E+03
  9.265732E+03
  9.243775E+03
  9.221852E+03
  9.197773E+03
  9.167569E+03
  9.137380E+03
  9.106525E+03
  9.067326E+03
  9.028130E+03
  8.988495E+03
  8.939973E+03
  8.891453E+03
  8.841360E+03
  8.783633E+03
  8.725914E+03
  8.664297E+03
  8.597691E+03
  8.531103E+03
  8.457325E+03
  8.382226E+03
  8.304095E+03
  8.220918E+03
  8.137535E+03
  8.046877E+03
  7.956273E+03
  7.860325E+03
  7.763148E+03
  7.662025E+03
  7.559188E+03
  7.452987E+03
  7.345262E+03
  7.234340E+03
  7.122527E+03
  7.007359E+03
  6.891356E+03
  6.773033E+03
  6.653024E+03
  6.531778E+03
  6.407965E+03
  6.282628E+03
  6.155711E+03
  6.026647E+03
  5.895778E+03
  5.764053E+03
  5.632786E+03
  5.505168E+03
  5.388519E+03
  5.297320E+03
  5.252932E+03
  5.290621E+03
  5.438601E+03
  5.409036E+03
  4.832280E+03
  5.145989E+03
  1.294388E+03
 -7.041868E-04
  5.336697E+02
  5.339480E+02
  5.342273E+02
  5.345078E+02
  5.347892E+02
  5.350718E+02
  5.353554E+02
  5.356402E+02
  5.359260E+02
  5.358965E+02
  5.358605E+02
  5.358256E+02
  5.357919E+02
  5.357595E+02
  5.357283E+02
  5.356984E+02
  5.356381E+02
  5.355209E+02
  5.354044E+02
  5.352887E+02
  5.351737E+02
  5.350596E+02
  5.349462E+02
  5.348713E+02
  5.350988E+02
  5.353267E+02
  5.355551E+02
  5.357839E+02
  5.360131E+02
  5.362427E+02
  5.365581E+02
  5.371574E+02
  5.377569E+02
  5.383565E+02
  5.389564E+02
  5.395564E+02
  5.401566E+02
  5.409837E+02
  5.419102E+02
  5.428367E+02
  5.437634E+02
  5.446901E+02
  5.456169E+02
  5.467007E+02
  5.479503E+02
  5.492000E+02
  5.504500E+02
  5.517001E+02
  5.529503E+02
  5.543685E+02
  5.559046E+02
  5.574409E+02
  5.589775E+02
  5.605145E+02
  5.620517E+02
  5.637920E+02
  5.655356E+02
  5.672794E+02
  5.690234E+02
  5.707676E+02
  5.725196E+02
  5.742756E+02
  5.760317E+02
  5.777878E+02
  5.795440E+02
  5.811491E+02
  5.826553E+02
  5.841617E+02
  5.856684E+02
  5.871752E+02
  5.882693E+02
  5.892609E+02
  5.902536E+02
  5.912474E+02
  5.920848E+02
  5.924123E+02
  5.927431E+02
  5.930773E+02
  5.934148E+02
  5.932549E+02
  5.930452E+02
  5.928417E+02
  5.926444E+02
  5.922808E+02
  5.918764E+02
  5.914797E+02
  5.910904E+02
  5.908074E+02
  5.905468E+02
  5.902933E+02
  5.900948E+02
  5.901769E+02
  5.902643E+02
  5.903568E+02
  5.906707E+02
  5.911218E+02
  5.915760E+02
  5.921009E+02
  5.928181E+02
  5.935365E+02
  5.942713E+02
  5.951963E+02
  5.961215E+02
  5.970545E+02
  5.981387E+02
  5.992235E+02
  6.003213E+02
  6.014817E+02
  6.026435E+02
  6.038103E+02
  6.049842E+02
  6.061615E+02
  6.073248E+02
  6.084905E+02
  6.096459E+02
  6.107823E+02
  6.119245E+02
  6.129920E+02
  6.140715E+02
  6.151144E+02
  6.161608E+02
  6.171860E+02
  6.182127E+02
  6.191555E+02
  6.200710E+02
  6.208906E+02
  6.216980E+02
  6.224863E+02
  6.233208E+02
  6.242582E+02
  6.253868E+02
  6.266729E+02
  6.284391E+02
  6.306415E+02
  6.333488E+02
  6.369269E+02
  6.417481E+02
  6.480776E+02
  6.566534E+02
  6.687990E+02
  6.869873E+02
  7.155960E+02
  7.610443E+02
  8.326399E+02
  9.361566E+02
  1.016341E+03
  1.002011E+03
  1.127586E+03
  2.566091E+02
  3.156823E-04
  8.083969E+02
  8.072337E+02
  8.060726E+02
  8.049137E+02
  8.037570E+02
  8.026025E+02
  8.014501E+02
  8.002999E+02
  7.991518E+02
  7.955553E+02
  7.919004E+02
  7.882480E+02
  7.845980E+02
  7.809504E+02
  7.773052E+02
  7.736624E+02
  7.695697E+02
  7.646496E+02
  7.597314E+02
  7.548149E+02
  7.499003E+02
  7.449874E+02
  7.400764E+02
  7.352244E+02
  7.308336E+02
  7.264441E+02
  7.220558E+02
  7.176687E+02
  7.132829E+02
  7.088982E+02
  7.047444E+02
  7.013551E+02
  6.979665E+02
  6.945787E+02
  6.911916E+02
  6.878053E+02
  6.844198E+02
  6.818695E+02
  6.796849E+02
  6.775007E+02
  6.753169E+02
  6.731335E+02
  6.709504E+02
  6.696036E+02
  6.691388E+02
  6.686741E+02
  6.682096E+02
  6.677451E+02
  6.672808E+02
  6.681908E+02
  6.700632E+02
  6.719357E+02
  6.738083E+02
  6.756809E+02
  6.775536E+02
  6.823703E+02
  6.872335E+02
  6.920968E+02
  6.969602E+02
  7.018237E+02
  7.091653E+02
  7.177776E+02
  7.263903E+02
  7.350035E+02
  7.436170E+02
  7.549221E+02
  7.679938E+02
  7.810671E+02
  7.941420E+02
  8.072185E+02
  8.241786E+02
  8.421165E+02
  8.600590E+02
  8.780062E+02
  8.970587E+02
  9.196958E+02
  9.423437E+02
  9.650026E+02
  9.876727E+02
  1.013545E+03
  1.039795E+03
  1.066065E+03
  1.092355E+03
  1.119771E+03
  1.147526E+03
  1.175308E+03
  1.203118E+03
  1.230079E+03
  1.256934E+03
  1.283820E+03
  1.310269E+03
  1.334088E+03
  1.357934E+03
  1.381806E+03
  1.402650E+03
  1.421624E+03
  1.440616E+03
  1.457957E+03
  1.470626E+03
  1.483304E+03
  1.495462E+03
  1.501162E+03
  1.506864E+03
  1.512239E+03
  1.510982E+03
  1.509727E+03
  1.507335E+03
  1.499426E+03
  1.491520E+03
  1.480915E+03
  1.466851E+03
  1.452795E+03
  1.434108E+03
  1.414566E+03
  1.393247E+03
  1.368974E+03
  1.344592E+03
  1.316412E+03
  1.288259E+03
  1.257782E+03
  1.226773E+03
  1.194603E+03
  1.161936E+03
  1.128879E+03
  1.095658E+03
  1.062750E+03
  1.029952E+03
  9.983045E+02
  9.671572E+02
  9.373980E+02
  9.090389E+02
  8.817351E+02
  8.569778E+02
  8.339479E+02
  8.127812E+02
  7.944498E+02
  7.794401E+02
  7.680889E+02
  7.618860E+02
  7.635891E+02
  7.785337E+02
  8.164690E+02
  8.917348E+02
  1.021782E+03
  1.212778E+03
  1.355713E+03
  1.277141E+03
  1.340103E+03
  1.621139E+02
 -6.505599E-10
  1.147737E+00
  1.147570E+00
  1.147405E+00
  1.147239E+00
  1.147075E+00
  1.146911E+00
  1.146748E+00
  1.146586E+00
  1.146424E+00
  1.145816E+00
  1.145197E+00
  1.144579E+00
  1.143961E+00
  1.143344E+00
  1.142727E+00
  1.142111E+00
  1.141316E+00
  1.140193E+00
  1.139070E+00
  1.137948E+00
  1.136827E+00
  1.135706E+00
  1.134585E+00
  1.133449E+00
  1.132182E+00
  1.130915E+00
  1.129649E+00
  1.128384E+00
  1.127118E+00
  1.125853E+00
  1.124577E+00
  1.123260E+00
  1.121944E+00
  1.120627E+00
  1.119312E+00
  1.117996E+00
  1.116681E+00
  1.115319E+00
  1.113937E+00
  1.112554E+00
  1.111172E+00
  1.109790E+00
  1.108408E+00
  1.107008E+00
  1.105587E+00
  1.104166E+00
  1.102745E+00
  1.101325E+00
  1.099904E+00
  1.098495E+00
  1.097095E+00
  1.095694E+00
  1.094294E+00
  1.092893E+00
  1.091492E+00
  1.090178E+00
  1.088864E+00
  1.087551E+00
  1.086237E+00
  1.084924E+00
  1.083717E+00
  1.082566E+00
  1.081414E+00
  1.080263E+00
  1.079112E+00
  1.078093E+00
  1.077162E+00
  1.076232E+00
  1.075302E+00
  1.074372E+00
  1.073623E+00
  1.072920E+00
  1.072218E+00
  1.071518E+00
  1.070852E+00
  1.070297E+00
  1.069745E+00
  1.069196E+00
  1.068649E+00
  1.068107E+00
  1.067570E+00
  1.067038E+00
  1.066511E+00
  1.065853E+00
  1.065164E+00
  1.064482E+00
  1.063807E+00
  1.062788E+00
  1.061722E+00
  1.060663E+00
  1.059516E+00
  1.057826E+00
  1.056143E+00
  1.054465E+00
  1.052283E+00
  1.049790E+00
  1.047300E+00
  1.044565E+00
  1.041135E+00
  1.037707E+00
  1.034203E+00
  1.029751E+00
  1.025300E+00
  1.020798E+00
  1.015288E+00
  1.009778E+00
  1.004089E+00
  9.975327E-01
  9.909777E-01
  9.839801E-01
  9.764158E-01
  9.688536E-01
  9.604748E-01
  9.519460E-01
  9.430729E-01
  9.336267E-01
  9.241572E-01
  9.138614E-01
  9.035718E-01
  8.926752E-01
  8.816391E-01
  8.701549E-01
  8.584759E-01
  8.464150E-01
  8.341810E-01
  8.215838E-01
  8.088856E-01
  7.958063E-01
  7.826321E-01
  7.691945E-01
  7.555654E-01
  7.417959E-01
  7.277347E-01
  7.135005E-01
  6.990870E-01
  6.844295E-01
  6.695671E-01
  6.546074E-01
  6.396998E-01
  6.252065E-01
  6.119591E-01
  6.016018E-01
  5.965608E-01
  6.008411E-01
  6.176468E-01
  6.142891E-01
  5.487885E-01
  5.844156E-01
  1.470001E-01
 -7.997253E-08
  9.048634E-01
  9.053353E-01
  9.058089E-01
  9.062844E-01
  9.067617E-01
  9.072408E-01
  9.077217E-01
  9.082045E-01
  9.086891E-01
  9.086392E-01
  9.085780E-01
  9.085189E-01
  9.084618E-01
  9.084069E-01
  9.083540E-01
  9.083032E-01
  9.082011E-01
  9.080023E-01
  9.078048E-01
  9.076086E-01
  9.074136E-01
  9.072201E-01
  9.070278E-01
  9.069008E-01
  9.072866E-01
  9.076731E-01
  9.080603E-01
  9.084482E-01
  9.088368E-01
  9.092262E-01
  9.097609E-01
  9.107771E-01
  9.117935E-01
  9.128102E-01
  9.138273E-01
  9.148447E-01
  9.158624E-01
  9.172648E-01
  9.188356E-01
  9.204066E-01
  9.219778E-01
  9.235491E-01
  9.251205E-01
  9.269582E-01
  9.290769E-01
  9.311959E-01
  9.333152E-01
  9.354348E-01
  9.375547E-01
  9.399594E-01
  9.425638E-01
  9.451687E-01
  9.477741E-01
  9.503801E-01
  9.529866E-01
  9.559372E-01
  9.588936E-01
  9.618503E-01
  9.648073E-01
  9.677647E-01
  9.707354E-01
  9.737128E-01
  9.766903E-01
  9.796679E-01
  9.826456E-01
  9.853672E-01
  9.879210E-01
  9.904752E-01
  9.930298E-01
  9.955847E-01
  9.974398E-01
  9.991210E-01
  1.000804E+00
  1.002489E+00
  1.003909E+00
  1.004464E+00
  1.005025E+00
  1.005592E+00
  1.006164E+00
  1.005893E+00
  1.005538E+00
  1.005193E+00
  1.004858E+00
  1.004242E+00
  1.003556E+00
  1.002883E+00
  1.002223E+00
  1.001743E+00
  1.001301E+00
  1.000872E+00
  1.000535E+00
  1.000674E+00
  1.000822E+00
  1.000979E+00
  1.001512E+00
  1.002276E+00
  1.003046E+00
  1.003936E+00
  1.005153E+00
  1.006371E+00
  1.007616E+00
  1.009185E+00
  1.010754E+00
  1.012336E+00
  1.014174E+00
  1.016013E+00
  1.017875E+00
  1.019842E+00
  1.021812E+00
  1.023790E+00
  1.025781E+00
  1.027777E+00
  1.029749E+00
  1.031726E+00
  1.033685E+00
  1.035612E+00
  1.037548E+00
  1.039358E+00
  1.041189E+00
  1.042957E+00
  1.044731E+00
  1.046469E+00
  1.048210E+00
  1.049809E+00
  1.051361E+00
  1.052751E+00
  1.054120E+00
  1.055456E+00
  1.056871E+00
  1.058461E+00
  1.060374E+00
  1.062555E+00
  1.065550E+00
  1.069284E+00
  1.073874E+00
  1.079941E+00
  1.088116E+00
  1.098848E+00
  1.113388E+00
  1.133982E+00
  1.164821E+00
  1.213329E+00
  1.290388E+00
  1.411782E+00
  1.587300E+00
  1.723257E+00
  1.698959E+00
  1.911879E+00
  4.350935E-01
  5.352549E-07
  8.482093E-01
  8.469888E-01
  8.457706E-01
  8.445546E-01
  8.433409E-01
  8.421295E-01
  8.409203E-01
  8.397135E-01
  8.385089E-01
  8.347352E-01
  8.309004E-01
  8.270681E-01
  8.232384E-01
  8.194111E-01
  8.155864E-01
  8.117642E-01
  8.074700E-01
  8.023075E-01
  7.971471E-01
  7.919885E-01
  7.868318E-01
  7.816770E-01
  7.765241E-01
  7.714332E-01
  7.668262E-01
  7.622204E-01
  7.576160E-01
  7.530129E-01
  7.484110E-01
  7.438104E-01
  7.394521E-01
  7.358958E-01
  7.323403E-01
  7.287857E-01
  7.252318E-01
  7.216788E-01
  7.181265E-01
  7.154506E-01
  7.131584E-01
  7.108667E-01
  7.085753E-01
  7.062844E-01
  7.039938E-01
  7.025806E-01
  7.020929E-01
  7.016054E-01
  7.011179E-01
  7.006306E-01
  7.001435E-01
  7.010982E-01
  7.030629E-01
  7.050276E-01
  7.069924E-01
  7.089572E-01
  7.109221E-01
  7.159761E-01
  7.210788E-01
  7.261816E-01
  7.312845E-01
  7.363875E-01
  7.440907E-01
  7.531271E-01
  7.621640E-01
  7.712013E-01
  7.802391E-01
  7.921009E-01
  8.058164E-01
  8.195335E-01
  8.332524E-01
  8.469729E-01
  8.647682E-01
  8.835895E-01
  9.024156E-01
  9.212467E-01
  9.412376E-01
  9.649895E-01
  9.887527E-01
  1.012528E+00
  1.036314E+00
  1.063461E+00
  1.091003E+00
  1.118567E+00
  1.146152E+00
  1.174919E+00
  1.204040E+00
  1.233190E+00
  1.262370E+00
  1.290658E+00
  1.318836E+00
  1.347046E+00
  1.374798E+00
  1.399790E+00
  1.424810E+00
  1.449858E+00
  1.471728E+00
  1.491637E+00
  1.511565E+00
  1.529759E+00
  1.543052E+00
  1.556354E+00
  1.569111E+00
  1.575092E+00
  1.581075E+00
  1.586714E+00
  1.585396E+00
  1.584079E+00
  1.581569E+00
  1.573270E+00
  1.564975E+00
  1.553847E+00
  1.539091E+00
  1.524343E+00
  1.504736E+00
  1.484231E+00
  1.461862E+00
  1.436394E+00
  1.410811E+00
  1.381244E+00
  1.351704E+00
  1.319726E+00
  1.287190E+00
  1.253436E+00
  1.219159E+00
  1.184474E+00
  1.149618E+00
  1.115089E+00
  1.080676E+00
  1.047470E+00
  1.014788E+00
  9.835636E-01
  9.538078E-01
  9.251593E-01
  8.991827E-01
  8.750187E-01
  8.528095E-01
  8.335753E-01
  8.178265E-01
  8.059162E-01
  7.994078E-01
  8.011948E-01
  8.168753E-01
  8.566790E-01
  9.356515E-01
  1.072103E+00
  1.272505E+00
  1.422480E+00
  1.340038E+00
  1.406101E+00
  1.700977E-01
 -6.825991E-13
  9.036267E-01
  9.034966E-01
  9.033670E-01
  9.032380E-01
  9.031096E-01
  9.029817E-01
  9.028543E-01
  9.027275E-01
  9.026013E-01
  9.021232E-01
  9.016368E-01
  9.011508E-01
  9.006653E-01
  9.001802E-01
  8.996955E-01
  8.992112E-01
  8.985862E-01
  8.977028E-01
  8.968197E-01
  8.959370E-01
  8.950547E-01
  8.941727E-01
  8.932911E-01
  8.923970E-01
  8.914001E-01
  8.904035E-01
  8.894072E-01
  8.884112E-01
  8.874155E-01
  8.864201E-01
  8.854155E-01
  8.843792E-01
  8.833432E-01
  8.823074E-01
  8.812718E-01
  8.802364E-01
  8.792013E-01
  8.781292E-01
  8.770410E-01
  8.759530E-01
  8.748650E-01
  8.737772E-01
  8.726895E-01
  8.715868E-01
  8.704683E-01
  8.693498E-01
  8.682313E-01
  8.671129E-01
  8.659945E-01
  8.648854E-01
  8.637827E-01
  8.626801E-01
  8.615774E-01
  8.604746E-01
  8.593719E-01
  8.583367E-01
  8.573026E-01
  8.562684E-01
  8.552342E-01
  8.542000E-01
  8.532500E-01
  8.523432E-01
  8.514364E-01
  8.505297E-01
  8.496230E-01
  8.488208E-01
  8.480873E-01
  8.473541E-01
  8.466211E-01
  8.458884E-01
  8.452973E-01
  8.447424E-01
  8.441883E-01
  8.436350E-01
  8.431087E-01
  8.426690E-01
  8.422313E-01
  8.417955E-01
  8.413618E-01
  8.409302E-01
  8.405021E-01
  8.400778E-01
  8.396571E-01
  8.391327E-01
  8.385827E-01
  8.380377E-01
  8.374977E-01
  8.366865E-01
  8.358382E-01
  8.349950E-01
  8.340814E-01
  8.327415E-01
  8.314060E-01
  8.300749E-01
  8.283472E-01
  8.263746E-01
  8.244048E-01
  8.222426E-01
  8.195348E-01
  8.168282E-01
  8.140621E-01
  8.105532E-01
  8.070445E-01
  8.034968E-01
  7.991582E-01
  7.948198E-01
  7.903413E-01
  7.851836E-01
  7.800265E-01
  7.745225E-01
  7.685743E-01
  7.626275E-01
  7.560404E-01
  7.493353E-01
  7.423597E-01
  7.349343E-01
  7.274899E-01
  7.193965E-01
  7.113072E-01
  7.027406E-01
  6.940635E-01
  6.850333E-01
  6.758490E-01
  6.663631E-01
  6.567401E-01
  6.468301E-01
  6.368396E-01
  6.265479E-01
  6.161807E-01
  6.056051E-01
  5.948778E-01
  5.840392E-01
  5.729703E-01
  5.617645E-01
  5.504169E-01
  5.388765E-01
  5.271741E-01
  5.153948E-01
  5.036563E-01
  4.922438E-01
  4.818121E-01
  4.736557E-01
  4.696849E-01
  4.730528E-01
  4.862819E-01
  4.836361E-01
  4.320647E-01
  4.601119E-01
  1.589691E-01
 -1.530557E-02
  4.771689E-02
  4.774183E-02
  4.776687E-02
  4.779199E-02
  4.781722E-02
  4.784254E-02
  4.786795E-02
  4.789346E-02
  4.791906E-02
  4.791648E-02
  4.791330E-02
  4.791023E-02
  4.790727E-02
  4.790442E-02
  4.790167E-02
  4.789904E-02
  4.789369E-02
  4.788325E-02
  4.787287E-02
  4.786256E-02
  4.785232E-02
  4.784215E-02
  4.783204E-02
  4.782538E-02
  4.784576E-02
  4.786617E-02
  4.788662E-02
  4.790711E-02
  4.792763E-02
  4.794819E-02
  4.797641E-02
  4.803002E-02
  4.808365E-02
  4.813729E-02
  4.819094E-02
  4.824461E-02
  4.829830E-02
  4.837228E-02
  4.845513E-02
  4.853799E-02
  4.862086E-02
  4.870374E-02
  4.878662E-02
  4.888354E-02
  4.899528E-02
  4.910703E-02
  4.921880E-02
  4.933059E-02
  4.944239E-02
  4.956920E-02
  4.970655E-02
  4.984392E-02
  4.998132E-02
  5.011875E-02
  5.025621E-02
  5.041181E-02
  5.056771E-02
  5.072363E-02
  5.087957E-02
  5.103553E-02
  5.119218E-02
  5.134918E-02
  5.150619E-02
  5.166320E-02
  5.182022E-02
  5.196371E-02
  5.209836E-02
  5.223301E-02
  5.236769E-02
  5.250237E-02
  5.260013E-02
  5.268870E-02
  5.277737E-02
  5.286613E-02
  5.294087E-02
  5.296997E-02
  5.299937E-02
  5.302904E-02
  5.305899E-02
  5.304440E-02
  5.302532E-02
  5.300678E-02
  5.298876E-02
  5.295583E-02
  5.291921E-02
  5.288324E-02
  5.284790E-02
  5.282204E-02
  5.279816E-02
  5.277487E-02
  5.275648E-02
  5.276320E-02
  5.277036E-02
  5.277795E-02
  5.280537E-02
  5.284508E-02
  5.288504E-02
  5.293136E-02
  5.299497E-02
  5.305867E-02
  5.312386E-02
  5.320623E-02
  5.328862E-02
  5.337171E-02
  5.346856E-02
  5.356545E-02
  5.366355E-02
  5.376745E-02
  5.387148E-02
  5.397606E-02
  5.408142E-02
  5.418706E-02
  5.429165E-02
  5.439646E-02
  5.450041E-02
  5.460276E-02
  5.470562E-02
  5.480192E-02
  5.489926E-02
  5.499338E-02
  5.508780E-02
  5.518031E-02
  5.527292E-02
  5.535799E-02
  5.544056E-02
  5.551450E-02
  5.558728E-02
  5.565827E-02
  5.573333E-02
  5.581752E-02
  5.591874E-02
  5.603398E-02
  5.619209E-02
  5.638914E-02
  5.663129E-02
  5.695122E-02
  5.738224E-02
  5.794809E-02
  5.871475E-02
  5.980057E-02
  6.142667E-02
  6.398446E-02
  6.804790E-02
  7.444921E-02
  8.370462E-02
  9.087377E-02
  8.959198E-02
  1.008195E-01
  3.151521E-02
  6.861386E-03
  7.228102E-02
  7.217710E-02
  7.207337E-02
  7.196983E-02
  7.186649E-02
  7.176333E-02
  7.166037E-02
  7.155761E-02
  7.145503E-02
  7.113352E-02
  7.080680E-02
  7.048030E-02
  7.015400E-02
  6.982792E-02
  6.950205E-02
  6.917640E-02
  6.881051E-02
  6.837064E-02
  6.793094E-02
  6.749139E-02
  6.705200E-02
  6.661277E-02
  6.617370E-02
  6.573991E-02
  6.534735E-02
  6.495490E-02
  6.456256E-02
  6.417033E-02
  6.377821E-02
  6.338619E-02
  6.301481E-02
  6.271178E-02
  6.240882E-02
  6.210593E-02
  6.180310E-02
  6.150034E-02
  6.119764E-02
  6.096963E-02
  6.077431E-02
  6.057903E-02
  6.038378E-02
  6.018857E-02
  5.999338E-02
  5.987296E-02
  5.983141E-02
  5.978987E-02
  5.974835E-02
  5.970683E-02
  5.966532E-02
  5.974669E-02
  5.991411E-02
  6.008155E-02
  6.024899E-02
  6.041643E-02
  6.058388E-02
  6.101457E-02
  6.144941E-02
  6.188426E-02
  6.231912E-02
  6.275399E-02
  6.341043E-02
  6.418049E-02
  6.495059E-02
  6.572072E-02
  6.649089E-02
  6.750170E-02
  6.867047E-02
  6.983937E-02
  7.100841E-02
  7.217759E-02
  7.369397E-02
  7.529776E-02
  7.690194E-02
  7.850653E-02
  8.020991E-02
  8.223372E-02
  8.425845E-02
  8.628413E-02
  8.831077E-02
  9.062363E-02
  9.297008E-02
  9.531828E-02
  9.766826E-02
  1.001188E-01
  1.025994E-01
  1.050823E-01
  1.075678E-01
  1.099771E-01
  1.123769E-01
  1.147793E-01
  1.171425E-01
  1.192706E-01
  1.214009E-01
  1.235335E-01
  1.253955E-01
  1.270903E-01
  1.287866E-01
  1.303353E-01
  1.314666E-01
  1.325986E-01
  1.336842E-01
  1.341930E-01
  1.347019E-01
  1.351816E-01
  1.350691E-01
  1.349567E-01
  1.347427E-01
  1.340362E-01
  1.333299E-01
  1.323825E-01
  1.311263E-01
  1.298708E-01
  1.282017E-01
  1.264562E-01
  1.245519E-01
  1.223837E-01
  1.202055E-01
  1.176882E-01
  1.151730E-01
  1.124501E-01
  1.096796E-01
  1.068050E-01
  1.038859E-01
  1.009318E-01
  9.796283E-02
  9.502162E-02
  9.209008E-02
  8.926125E-02
  8.647697E-02
  8.381666E-02
  8.128140E-02
  7.884038E-02
  7.662695E-02
  7.456789E-02
  7.267535E-02
  7.103623E-02
  6.969405E-02
  6.867894E-02
  6.812414E-02
  6.827622E-02
  6.961225E-02
  7.300394E-02
  7.973345E-02
  9.136103E-02
  1.084382E-01
  1.212179E-01
  1.141920E-01
  1.198209E-01
  1.990986E-02
 -1.413999E-08
  9.039406E-01
  9.038107E-01
  9.036814E-01
  9.035527E-01
  9.034245E-01
  9.032968E-01
  9.031697E-01
  9.030432E-01
  9.029172E-01
  9.024396E-01
  9.019537E-01
  9.014682E-01
  9.009832E-01
  9.004986E-01
  9.000144E-01
  8.995306E-01
  8.989061E-01
  8.980232E-01
  8.971407E-01
  8.962586E-01
  8.953768E-01
  8.944954E-01
  8.936143E-01
  8.927208E-01
  8.917245E-01