 Title= "ADflow Lift Distribution Data"
Variables = "eta" "CoordinateX" "CoordinateY" "CoordinateZ" "Lift" "Drag" "Moment" "Normalized Lift" "Normalized Drag" "Normalized Moment" "CL" "CD" "CM" "CLp" "CDp" "CMp" "CLv" "CDv" "CMv" "Elliptical" "thickness" "twist" "chord" "fx" "fy" "fz" 
Zone T= "LiftDist_01 allWalls: : z normal"
 I=          150
 DATAPACKING=BLOCK
  0.000000E+00
  6.711405E-03
  1.342281E-02
  2.013422E-02
  2.684563E-02
  3.355704E-02
  4.026845E-02
  4.697986E-02
  5.369127E-02
  6.040268E-02
  6.711409E-02
  7.382550E-02
  8.053691E-02
  8.724832E-02
  9.395973E-02
  1.006711E-01
  1.073825E-01
  1.140940E-01
  1.208054E-01
  1.275168E-01
  1.342282E-01
  1.409396E-01
  1.476510E-01
  1.543624E-01
  1.610738E-01
  1.677852E-01
  1.744966E-01
  1.812081E-01
  1.879195E-01
  1.946309E-01
  2.013423E-01
  2.080537E-01
  2.147651E-01
  2.214765E-01
  2.281879E-01
  2.348993E-01
  2.416107E-01
  2.483221E-01
  2.550336E-01
  2.617450E-01
  2.684564E-01
  2.751678E-01
  2.818792E-01
  2.885906E-01
  2.953020E-01
  3.020134E-01
  3.087248E-01
  3.154362E-01
  3.221476E-01
  3.288591E-01
  3.355705E-01
  3.422819E-01
  3.489933E-01
  3.557047E-01
  3.624161E-01
  3.691275E-01
  3.758389E-01
  3.825503E-01
  3.892617E-01
  3.959732E-01
  4.026846E-01
  4.093960E-01
  4.161074E-01
  4.228188E-01
  4.295302E-01
  4.362416E-01
  4.429530E-01
  4.496644E-01
  4.563758E-01
  4.630872E-01
  4.697987E-01
  4.765101E-01
  4.832215E-01
  4.899329E-01
  4.966443E-01
  5.033557E-01
  5.100671E-01
  5.167785E-01
  5.234899E-01
  5.302013E-01
  5.369128E-01
  5.436242E-01
  5.503356E-01
  5.570470E-01
  5.637584E-01
  5.704698E-01
  5.771812E-01
  5.838926E-01
  5.906040E-01
  5.973154E-01
  6.040268E-01
  6.107383E-01
  6.174497E-01
  6.241611E-01
  6.308725E-01
  6.375839E-01
  6.442953E-01
  6.510067E-01
  6.577181E-01
  6.644295E-01
  6.711409E-01
  6.778524E-01
  6.845638E-01
  6.912752E-01
  6.979866E-01
  7.046980E-01
  7.114094E-01
  7.181208E-01
  7.248322E-01
  7.315436E-01
  7.382550E-01
  7.449664E-01
  7.516779E-01
  7.583893E-01
  7.651007E-01
  7.718121E-01
  7.785235E-01
  7.852349E-01
  7.919463E-01
  7.986577E-01
  8.053691E-01
  8.120805E-01
  8.187919E-01
  8.255034E-01
  8.322148E-01
  8.389262E-01
  8.456376E-01
  8.523490E-01
  8.590604E-01
  8.657718E-01
  8.724832E-01
  8.791946E-01
  8.859060E-01
  8.926175E-01
  8.993289E-01
  9.060403E-01
  9.127517E-01
  9.194631E-01
  9.261745E-01
  9.328859E-01
  9.395973E-01
  9.463087E-01
  9.530201E-01
  9.597315E-01
  9.664430E-01
  9.731544E-01
  9.798658E-01
  9.865772E-01
  9.932886E-01
  1.000000E+00
  0.000000E+00
  0.000000E+00
  0.000000E+00
  0.000000E+00
  0.000000E+00
  0.000000E+00
  0.000000E+00
  0.000000E+00
  0.000000E+00
  0.000000E+00
  0.000000E+00
  0.000000E+00
  0.000000E+00
  0.000000E+00
  0.000000E+00
  0.000000E+00
  0.000000E+00
  0.000000E+00
  0.000000E+00
  0.000000E+00
  0.000000E+00
  0.000000E+00
  0.000000E+00
  0.000000E+00
  0.000000E+00
  0.000000E+00
  0.000000E+00
  0.000000E+00
  0.000000E+00
  0.000000E+00
  0.000000E+00
  0.000000E+00
  0.000000E+00
  0.000000E+00
  0.000000E+00
  0.000000E+00
  0.000000E+00
  0.000000E+00
  0.000000E+00
  0.000000E+00
  0.000000E+00
  0.000000E+00
  0.000000E+00
  0.000000E+00
  0.000000E+00
  0.000000E+00
  0.000000E+00
  0.000000E+00
  0.000000E+00
  0.000000E+00
  0.000000E+00
  0.000000E+00
  0.000000E+00
  0.000000E+00
  0.000000E+00
  0.000000E+00
  0.000000E+00
  0.000000E+00
  0.000000E+00
  0.000000E+00
  0.000000E+00
  0.000000E+00
  0.000000E+00
  0.000000E+00
  0.000000E+00
  0.000000E+00
  0.000000E+00
  0.000000E+00
  0.000000E+00
  0.000000E+00
  0.000000E+00
  0.000000E+00
  0.000000E+00
  0.000000E+00
  0.000000E+00
  0.000000E+00
  0.000000E+00
  0.000000E+00
  0.000000E+00
  0.000000E+00
  0.000000E+00
  0.000000E+00
  0.000000E+00
  0.000000E+00
  0.000000E+00
  0.000000E+00
  0.000000E+00
  0.000000E+00
  0.000000E+00
  0.000000E+00
  0.000000E+00
  0.000000E+00
  0.000000E+00
  0.000000E+00
  0.000000E+00
  0.000000E+00
  0.000000E+00
  0.000000E+00
  0.000000E+00
  0.000000E+00
  0.000000E+00
  0.000000E+00
  0.000000E+00
  0.000000E+00
  0.000000E+00
  0.000000E+00
  0.000000E+00
  0.000000E+00
  0.000000E+00
  0.000000E+00
  0.000000E+00
  0.000000E+00
  0.000000E+00
  0.000000E+00
  0.000000E+00
  0.000000E+00
  0.000000E+00
  0.000000E+00
  0.000000E+00
  0.000000E+00
  0.000000E+00
  0.000000E+00
  0.000000E+00
  0.000000E+00
  0.000000E+00
  0.000000E+00
  0.000000E+00
  0.000000E+00
  0.000000E+00
  0.000000E+00
  0.000000E+00
  0.000000E+00
  0.000000E+00
  0.000000E+00
  0.000000E+00
  0.000000E+00
  0.000000E+00
  0.000000E+00
  0.000000E+00
  0.000000E+00
  0.000000E+00
  0.000000E+00
  0.000000E+00
  0.000000E+00
  0.000000E+00
  0.000000E+00
  0.000000E+00
  0.000000E+00
  0.000000E+00
  0.000000E+00
  0.000000E+00
  0.000000E+00
  0.000000E+00
  0.000000E+00
  0.000000E+00
  0.000000E+00
  0.000000E+00
  0.000000E+00
  0.000000E+00
  0.000000E+00
  0.000000E+00
  0.000000E+00
  0.000000E+00
  0.000000E+00
  0.000000E+00
  0.000000E+00
  0.000000E+00
  0.000000E+00
  0.000000E+00
  0.000000E+00
  0.000000E+00
  0.000000E+00
  0.000000E+00
  0.000000E+00
  0.000000E+00
  0.000000E+00
  0.000000E+00
  0.000000E+00
  0.000000E+00
  0.000000E+00
  0.000000E+00
  0.000000E+00
  0.000000E+00
  0.000000E+00
  0.000000E+00
  0.000000E+00
  0.000000E+00
  0.000000E+00
  0.000000E+00
  0.000000E+00
  0.000000E+00
  0.000000E+00
  0.000000E+00
  0.000000E+00
  0.000000E+00
  0.000000E+00
  0.000000E+00
  0.000000E+00
  0.000000E+00
  0.000000E+00
  0.000000E+00
  0.000000E+00
  0.000000E+00
  0.000000E+00
  0.000000E+00
  0.000000E+00
  0.000000E+00
  0.000000E+00
  0.000000E+00
  0.000000E+00
  0.000000E+00
  0.000000E+00
  0.000000E+00
  0.000000E+00
  0.000000E+00
  0.000000E+00
  0.000000E+00
  0.000000E+00
  0.000000E+00
  0.000000E+00
  0.000000E+00
  0.000000E+00
  0.000000E+00
  0.000000E+00
  0.000000E+00
  0.000000E+00
  0.000000E+00
  0.000000E+00
  0.000000E+00
  0.000000E+00
  0.000000E+00
  0.000000E+00
  0.000000E+00
  0.000000E+00
  0.000000E+00
  0.000000E+00
  0.000000E+00
  0.000000E+00
  0.000000E+00
  0.000000E+00
  0.000000E+00
  0.000000E+00
  0.000000E+00
  0.000000E+00
  0.000000E+00
  0.000000E+00
  0.000000E+00
  0.000000E+00
  0.000000E+00
  0.000000E+00
  0.000000E+00
  0.000000E+00
  0.000000E+00
  0.000000E+00
  0.000000E+00
  0.000000E+00
  0.000000E+00
  0.000000E+00
  0.000000E+00
  0.000000E+00
  0.000000E+00
  0.000000E+00
  0.000000E+00
  0.000000E+00
  0.000000E+00
  0.000000E+00
  0.000000E+00
  0.000000E+00
  0.000000E+00
  0.000000E+00
  0.000000E+00
  0.000000E+00
  0.000000E+00
  0.000000E+00
  0.000000E+00
  0.000000E+00
  0.000000E+00
  0.000000E+00
  0.000000E+00
  0.000000E+00
  0.000000E+00
  0.000000E+00
  0.000000E+00
  0.000000E+00
  0.000000E+00
  0.000000E+00
  0.000000E+00
  0.000000E+00
  0.000000E+00
  0.000000E+00
  0.000000E+00
  0.000000E+00
  0.000000E+00
  0.000000E+00
  0.000000E+00
  0.000000E+00
  0.000000E+00
  0.000000E+00
  0.000000E+00
  0.000000E+00
  1.000000E-08
  1.695085E-02
  3.390169E-02
  5.085254E-02
  6.780338E-02
  8.475423E-02
  1.017051E-01
  1.186559E-01
  1.356068E-01
  1.525576E-01
  1.695085E-01
  1.864593E-01
  2.034101E-01
  2.203610E-01
  2.373118E-01
  2.542627E-01
  2.712135E-01
  2.881644E-01
  3.051152E-01
  3.220661E-01
  3.390169E-01
  3.559678E-01
  3.729186E-01
  3.898694E-01
  4.068203E-01
  4.237711E-01
  4.407220E-01
  4.576728E-01
  4.746237E-01
  4.915745E-01
  5.085254E-01
  5.254762E-01
  5.424271E-01
  5.593779E-01
  5.763287E-01
  5.932796E-01
  6.102304E-01
  6.271813E-01
  6.441321E-01
  6.610830E-01
  6.780338E-01
  6.949847E-01
  7.119355E-01
  7.288864E-01
  7.458372E-01
  7.627880E-01
  7.797389E-01
  7.966897E-01
  8.136406E-01
  8.305914E-01
  8.475423E-01
  8.644931E-01
  8.814440E-01
  8.983948E-01
  9.153457E-01
  9.322965E-01
  9.492473E-01
  9.661982E-01
  9.831490E-01
  1.000100E+00
  1.017051E+00
  1.034002E+00
  1.050952E+00
  1.067903E+00
  1.084854E+00
  1.101805E+00
  1.118756E+00
  1.135707E+00
  1.152657E+00
  1.169608E+00
  1.186559E+00
  1.203510E+00
  1.220461E+00
  1.237412E+00
  1.254363E+00
  1.271313E+00
  1.288264E+00
  1.305215E+00
  1.322166E+00
  1.339117E+00
  1.356068E+00
  1.373018E+00
  1.389969E+00
  1.406920E+00
  1.423871E+00
  1.440822E+00
  1.457773E+00
  1.474724E+00
  1.491674E+00
  1.508625E+00
  1.525576E+00
  1.542527E+00
  1.559478E+00
  1.576429E+00
  1.593379E+00
  1.610330E+00
  1.627281E+00
  1.644232E+00
  1.661183E+00
  1.678134E+00
  1.695085E+00
  1.712035E+00
  1.728986E+00
  1.745937E+00
  1.762888E+00
  1.779839E+00
  1.796790E+00
  1.813740E+00
  1.830691E+00
  1.847642E+00
  1.864593E+00
  1.881544E+00
  1.898495E+00
  1.915446E+00
  1.932396E+00
  1.949347E+00
  1.966298E+00
  1.983249E+00
  2.000200E+00
  2.017151E+00
  2.034101E+00
  2.051052E+00
  2.068003E+00
  2.084954E+00
  2.101905E+00
  2.118856E+00
  2.135807E+00
  2.152757E+00
  2.169708E+00
  2.186659E+00
  2.203610E+00
  2.220561E+00
  2.237512E+00
  2.254462E+00
  2.271413E+00
  2.288364E+00
  2.305315E+00
  2.322266E+00
  2.339217E+00
  2.356168E+00
  2.373118E+00
  2.390069E+00
  2.407020E+00
  2.423971E+00
  2.440922E+00
  2.457873E+00
  2.474823E+00
  2.491774E+00
  2.508725E+00
  2.525676E+00
  1.106284E+04
  1.106100E+04
  1.105916E+04
  1.105732E+04
  1.105547E+04
  1.105363E+04
  1.105179E+04
  1.104995E+04
  1.104811E+04
  1.104273E+04
  1.103726E+04
  1.103179E+04
  1.102632E+04
  1.102086E+04
  1.101539E+04
  1.100992E+04
  1.100328E+04
  1.099448E+04
  1.098568E+04
  1.097689E+04
  1.096809E+04
  1.095930E+04
  1.095050E+04
  1.094136E+04
  1.092939E+04
  1.091742E+04
  1.090546E+04
  1.089349E+04
  1.088153E+04
  1.086956E+04
  1.085682E+04
  1.084148E+04
  1.082614E+04
  1.081081E+04
  1.079548E+04
  1.078014E+04
  1.076481E+04
  1.074706E+04
  1.072825E+04
  1.070944E+04
  1.069064E+04
  1.067183E+04
  1.065303E+04
  1.063256E+04
  1.061033E+04
  1.058810E+04
  1.056587E+04
  1.054364E+04
  1.052141E+04
  1.049718E+04
  1.047154E+04
  1.044590E+04
  1.042027E+04
  1.039463E+04
  1.036900E+04
  1.034002E+04
  1.031098E+04
  1.028195E+04
  1.025292E+04
  1.022390E+04
  1.019269E+04
  1.016037E+04
  1.012804E+04
  1.009573E+04
  1.006341E+04
  1.002910E+04
  9.993486E+03
  9.957873E+03
  9.922264E+03
  9.886658E+03
  9.848251E+03
  9.809145E+03
  9.770041E+03
  9.730941E+03
  9.690978E+03
  9.648200E+03
  9.605424E+03
  9.562650E+03
  9.519879E+03
  9.473743E+03
  9.427232E+03
  9.380722E+03
  9.334214E+03
  9.284817E+03
  9.234608E+03
  9.184400E+03
  9.134195E+03
  9.081084E+03
  9.027529E+03
  8.973978E+03
  8.920007E+03
  8.863634E+03
  8.807267E+03
  8.750905E+03
  8.692947E+03
  8.634008E+03
  8.575082E+03
  8.515497E+03
  8.454051E+03
  8.392630E+03
  8.331057E+03
  8.267350E+03
  8.203682E+03
  8.139929E+03
  8.073742E+03
  8.007600E+03
  7.940925E+03
  7.871497E+03
  7.802113E+03
  7.731009E+03
  7.657684E+03
  7.584398E+03
  7.507481E+03
  7.429911E+03
  7.350699E+03
  7.268735E+03
  7.186652E+03
  7.100334E+03
  7.014034E+03
  6.924292E+03
  6.833737E+03
  6.740284E+03
  6.645552E+03
  6.547996E+03
  6.449141E+03
  6.347218E+03
  6.244415E+03
  6.138094E+03
  6.030846E+03
  5.921080E+03
  5.809495E+03
  5.696577E+03
  5.580977E+03
  5.463781E+03
  5.344893E+03
  5.223575E+03
  5.099648E+03
  4.973455E+03
  4.845203E+03
  4.716221E+03
  4.590875E+03
  4.479587E+03
  4.400155E+03
  4.387941E+03
  4.480079E+03
  4.444606E+03
  4.004066E+03
  4.498912E+03
  1.346754E+03
 -1.194720E-04
  6.293526E+02
  6.292726E+02
  6.291926E+02
  6.291126E+02
  6.290327E+02
  6.289527E+02
  6.288727E+02
  6.287928E+02
  6.287128E+02
  6.285526E+02
  6.283904E+02
  6.282281E+02
  6.280659E+02
  6.279037E+02
  6.277415E+02
  6.275793E+02
  6.274265E+02
  6.272911E+02
  6.271557E+02
  6.270203E+02
  6.268849E+02
  6.267494E+02
  6.266140E+02
  6.264763E+02
  6.263208E+02
  6.261652E+02
  6.260097E+02
  6.258541E+02
  6.256985E+02
  6.255429E+02
  6.253669E+02
  6.251228E+02
  6.248788E+02
  6.246348E+02
  6.243907E+02
  6.241466E+02
  6.239025E+02
  6.235913E+02
  6.232507E+02
  6.229101E+02
  6.225695E+02
  6.222288E+02
  6.218881E+02
  6.214924E+02
  6.210385E+02
  6.205845E+02
  6.201305E+02
  6.196764E+02
  6.192223E+02
  6.186511E+02
  6.179980E+02
  6.173447E+02
  6.166913E+02
  6.160378E+02
  6.153843E+02
  6.144450E+02
  6.135011E+02
  6.125570E+02
  6.116129E+02
  6.106686E+02
  6.095334E+02
  6.083002E+02
  6.070669E+02
  6.058335E+02
  6.045999E+02
  6.032179E+02
  6.017384E+02
  6.002588E+02
  5.987790E+02
  5.972990E+02
  5.956680E+02
  5.939989E+02
  5.923295E+02
  5.906598E+02
  5.889710E+02
  5.872206E+02
  5.854699E+02
  5.837188E+02
  5.819674E+02
  5.801427E+02
  5.783096E+02
  5.764762E+02
  5.746425E+02
  5.726109E+02
  5.705235E+02
  5.684357E+02
  5.663478E+02
  5.639186E+02
  5.614372E+02
  5.589557E+02
  5.564040E+02
  5.534537E+02
  5.505043E+02
  5.475557E+02
  5.441925E+02
  5.405751E+02
  5.369607E+02
  5.331387E+02
  5.287312E+02
  5.243306E+02
  5.198951E+02
  5.149569E+02
  5.100291E+02
  5.051023E+02
  5.000020E+02
  4.949128E+02
  4.898408E+02
  4.848094E+02
  4.797876E+02
  4.748755E+02
  4.700997E+02
  4.653305E+02
  4.608995E+02
  4.565345E+02
  4.523600E+02
  4.484979E+02
  4.446546E+02
  4.413481E+02
  4.380399E+02
  4.352115E+02
  4.324952E+02
  4.301776E+02
  4.280349E+02
  4.262422E+02
  4.246103E+02
  4.233518E+02
  4.222020E+02
  4.215301E+02
  4.210104E+02
  4.209085E+02
  4.211899E+02
  4.217665E+02
  4.230541E+02
  4.248625E+02
  4.272466E+02
  4.305253E+02
  4.348955E+02
  4.404299E+02
  4.475331E+02
  4.569465E+02
  4.701531E+02
  4.900042E+02
  5.211602E+02
  5.718219E+02
  6.499826E+02
  7.188147E+02
  7.316419E+02
  8.832084E+02
  2.137994E+02
  3.890593E-04
  1.811280E+03
  1.810628E+03
  1.809976E+03
  1.809325E+03
  1.808673E+03
  1.808021E+03
  1.807369E+03
  1.806717E+03
  1.806065E+03
  1.804553E+03
  1.803018E+03
  1.801484E+03
  1.799950E+03
  1.798416E+03
  1.796882E+03
  1.795348E+03
  1.793659E+03
  1.791686E+03
  1.789713E+03
  1.787740E+03
  1.785767E+03
  1.783794E+03
  1.781821E+03
  1.779777E+03
  1.777166E+03
  1.774554E+03
  1.771943E+03
  1.769331E+03
  1.766720E+03
  1.764108E+03
  1.761321E+03
  1.757948E+03
  1.754575E+03
  1.751203E+03
  1.747830E+03
  1.744458E+03
  1.741085E+03
  1.737199E+03
  1.733087E+03
  1.728976E+03
  1.724864E+03
  1.720753E+03
  1.716641E+03
  1.712201E+03
  1.707413E+03
  1.702626E+03
  1.697838E+03
  1.693051E+03
  1.688264E+03
  1.683104E+03
  1.677683E+03
  1.672263E+03
  1.666843E+03
  1.661423E+03
  1.656004E+03
  1.650045E+03
  1.644079E+03
  1.638114E+03
  1.632149E+03
  1.626184E+03
  1.619960E+03
  1.613603E+03
  1.607247E+03
  1.600891E+03
  1.594537E+03
  1.587975E+03
  1.581277E+03
  1.574579E+03
  1.567883E+03
  1.561188E+03
  1.554233E+03
  1.547214E+03
  1.540195E+03
  1.533178E+03
  1.526140E+03
  1.519034E+03
  1.511929E+03
  1.504824E+03
  1.497720E+03
  1.490671E+03
  1.483628E+03
  1.476585E+03
  1.469543E+03
  1.462421E+03
  1.455275E+03
  1.448131E+03
  1.440987E+03
  1.433787E+03
  1.426580E+03
  1.419373E+03
  1.412202E+03
  1.405227E+03
  1.398254E+03
  1.391284E+03
  1.384390E+03
  1.377547E+03
  1.370708E+03
  1.363785E+03
  1.356621E+03
  1.349468E+03
  1.342289E+03
  1.334689E+03
  1.327107E+03
  1.319514E+03
  1.311400E+03
  1.303308E+03
  1.295055E+03
  1.285948E+03
  1.276862E+03
  1.267126E+03
  1.256548E+03
  1.245988E+03
  1.233979E+03
  1.221709E+03
  1.208778E+03
  1.194738E+03
  1.180650E+03
  1.164869E+03
  1.149094E+03
  1.132051E+03
  1.114707E+03
  1.096495E+03
  1.077899E+03
  1.058689E+03
  1.039197E+03
  1.019299E+03
  9.992848E+02
  9.791626E+02
  9.591174E+02
  9.393198E+02
  9.199795E+02
  9.009988E+02
  8.830958E+02
  8.660187E+02
  8.498426E+02
  8.350503E+02
  8.218520E+02
  8.103113E+02
  8.010914E+02
  7.956217E+02
  7.972586E+02
  8.130972E+02
  8.550990E+02
  9.417449E+02
  1.087279E+03
  1.198667E+03
  1.131197E+03
  1.281669E+03
  2.070324E+02
 -8.847108E-11
  1.244884E+00
  1.244677E+00
  1.244469E+00
  1.244262E+00
  1.244055E+00
  1.243848E+00
  1.243641E+00
  1.243434E+00
  1.243227E+00
  1.242621E+00
  1.242006E+00
  1.241390E+00
  1.240775E+00
  1.240160E+00
  1.239544E+00
  1.238929E+00
  1.238181E+00
  1.237192E+00
  1.236202E+00
  1.235212E+00
  1.234222E+00
  1.233233E+00
  1.232243E+00
  1.231214E+00
  1.229867E+00
  1.228521E+00
  1.227174E+00
  1.225827E+00
  1.224481E+00
  1.223135E+00
  1.221700E+00
  1.219975E+00
  1.218249E+00
  1.216523E+00
  1.214798E+00
  1.213072E+00
  1.211347E+00
  1.209349E+00
  1.207233E+00
  1.205117E+00
  1.203001E+00
  1.200885E+00
  1.198769E+00
  1.196465E+00
  1.193963E+00
  1.191462E+00
  1.188960E+00
  1.186459E+00
  1.183958E+00
  1.181231E+00
  1.178346E+00
  1.175461E+00
  1.172576E+00
  1.169692E+00
  1.166807E+00
  1.163546E+00
  1.160279E+00
  1.157012E+00
  1.153745E+00
  1.150479E+00
  1.146967E+00
  1.143330E+00
  1.139693E+00
  1.136056E+00
  1.132420E+00
  1.128559E+00
  1.124551E+00
  1.120544E+00
  1.116537E+00
  1.112530E+00
  1.108208E+00
  1.103808E+00
  1.099407E+00
  1.095008E+00
  1.090510E+00
  1.085697E+00
  1.080883E+00
  1.076070E+00
  1.071257E+00
  1.066065E+00
  1.060832E+00
  1.055598E+00
  1.050364E+00
  1.044806E+00
  1.039156E+00
  1.033506E+00
  1.027857E+00
  1.021880E+00
  1.015854E+00
  1.009828E+00
  1.003754E+00
  9.974108E-01
  9.910679E-01
  9.847256E-01
  9.782036E-01
  9.715713E-01
  9.649405E-01
  9.582355E-01
  9.513210E-01
  9.444094E-01
  9.374808E-01
  9.303119E-01
  9.231475E-01
  9.159734E-01
  9.085254E-01
  9.010826E-01
  8.935798E-01
  8.857671E-01
  8.779595E-01
  8.699583E-01
  8.617071E-01
  8.534603E-01
  8.448051E-01
  8.360761E-01
  8.271625E-01
  8.179393E-01
  8.087026E-01
  7.989894E-01
  7.892782E-01
  7.791796E-01
  7.689897E-01
  7.584736E-01
  7.478135E-01
  7.368357E-01
  7.257117E-01
  7.142425E-01
  7.026742E-01
  6.907100E-01
  6.786416E-01
  6.662898E-01
  6.537333E-01
  6.410268E-01
  6.280186E-01
  6.148306E-01
  6.014524E-01
  5.878006E-01
  5.738554E-01
  5.596551E-01
  5.452230E-01
  5.307089E-01
  5.166039E-01
  5.040809E-01
  4.951425E-01
  4.937681E-01
  5.041363E-01
  5.001445E-01
  4.505713E-01
  5.062555E-01
  1.515482E-01
 -1.344400E-08
  1.123693E+00
  1.123550E+00
  1.123407E+00
  1.123264E+00
  1.123122E+00
  1.122979E+00
  1.122836E+00
  1.122693E+00
  1.122550E+00
  1.122264E+00
  1.121975E+00
  1.121685E+00
  1.121395E+00
  1.121106E+00
  1.120816E+00
  1.120527E+00
  1.120254E+00
  1.120012E+00
  1.119770E+00
  1.119528E+00
  1.119287E+00
  1.119045E+00
  1.118803E+00
  1.118557E+00
  1.118280E+00
  1.118002E+00
  1.117724E+00
  1.117446E+00
  1.117168E+00
  1.116891E+00
  1.116576E+00
  1.116141E+00
  1.115705E+00
  1.115269E+00
  1.114833E+00
  1.114398E+00
  1.113962E+00
  1.113406E+00
  1.112798E+00
  1.112190E+00
  1.111582E+00
  1.110973E+00
  1.110365E+00
  1.109659E+00
  1.108848E+00
  1.108038E+00
  1.107227E+00
  1.106416E+00
  1.105605E+00
  1.104586E+00
  1.103419E+00
  1.102253E+00
  1.101086E+00
  1.099920E+00
  1.098753E+00
  1.097076E+00
  1.095390E+00
  1.093705E+00
  1.092019E+00
  1.090333E+00
  1.088306E+00
  1.086104E+00
  1.083902E+00
  1.081700E+00
  1.079497E+00
  1.077030E+00
  1.074388E+00
  1.071747E+00
  1.069104E+00
  1.066462E+00
  1.063550E+00
  1.060570E+00
  1.057589E+00
  1.054608E+00
  1.051593E+00
  1.048467E+00
  1.045341E+00
  1.042215E+00
  1.039088E+00
  1.035830E+00
  1.032557E+00
  1.029283E+00
  1.026009E+00
  1.022382E+00
  1.018655E+00
  1.014927E+00
  1.011199E+00
  1.006862E+00
  1.002432E+00
  9.980009E-01
  9.934449E-01
  9.881773E-01
  9.829111E-01
  9.776465E-01
  9.716416E-01
  9.651828E-01
  9.587295E-01
  9.519053E-01
  9.440358E-01
  9.361787E-01
  9.282593E-01
  9.194423E-01
  9.106438E-01
  9.018471E-01
  8.927405E-01
  8.836540E-01
  8.745981E-01
  8.656146E-01
  8.566483E-01
  8.478779E-01
  8.393508E-01
  8.308355E-01
  8.229242E-01
  8.151305E-01
  8.076771E-01
  8.007814E-01
  7.939192E-01
  7.880156E-01
  7.821089E-01
  7.770590E-01
  7.722090E-01
  7.680710E-01
  7.642453E-01
  7.610444E-01
  7.581307E-01
  7.558837E-01
  7.538308E-01
  7.526310E-01
  7.517031E-01
  7.515212E-01
  7.520236E-01
  7.530531E-01
  7.553522E-01
  7.585810E-01
  7.628378E-01
  7.686917E-01
  7.764947E-01
  7.863762E-01
  7.990588E-01
  8.158661E-01
  8.394461E-01
  8.748898E-01
  9.305180E-01
  1.020973E+00
  1.160527E+00
  1.283425E+00
  1.306328E+00
  1.576946E+00
  3.817333E-01
  6.946554E-07
  1.252284E+00
  1.251834E+00
  1.251383E+00
  1.250932E+00
  1.250481E+00
  1.250031E+00
  1.249580E+00
  1.249129E+00
  1.248679E+00
  1.247633E+00
  1.246572E+00
  1.245511E+00
  1.244451E+00
  1.243390E+00
  1.242330E+00
  1.241269E+00
  1.240101E+00
  1.238737E+00
  1.237373E+00
  1.236009E+00
  1.234645E+00
  1.233281E+00
  1.231917E+00
  1.230504E+00
  1.228698E+00
  1.226892E+00
  1.225087E+00
  1.223281E+00
  1.221476E+00
  1.219670E+00
  1.217743E+00
  1.215411E+00
  1.213080E+00
  1.210748E+00
  1.208416E+00
  1.206084E+00
  1.203753E+00
  1.201066E+00
  1.198223E+00
  1.195380E+00
  1.192538E+00
  1.189695E+00
  1.186853E+00
  1.183783E+00
  1.180472E+00
  1.177162E+00
  1.173853E+00
  1.170543E+00
  1.167233E+00
  1.163666E+00
  1.159918E+00
  1.156170E+00
  1.152423E+00
  1.148676E+00
  1.144929E+00
  1.140809E+00
  1.136685E+00
  1.132560E+00
  1.128436E+00
  1.124312E+00
  1.120009E+00
  1.115614E+00
  1.111219E+00
  1.106825E+00
  1.102432E+00
  1.097895E+00
  1.093264E+00
  1.088634E+00
  1.084004E+00
  1.079375E+00
  1.074567E+00
  1.069714E+00
  1.064861E+00
  1.060009E+00
  1.055143E+00
  1.050231E+00
  1.045318E+00
  1.040406E+00
  1.035495E+00
  1.030621E+00
  1.025752E+00
  1.020883E+00
  1.016014E+00
  1.011089E+00
  1.006149E+00
  1.001210E+00
  9.962702E-01
  9.912925E-01
  9.863095E-01
  9.813271E-01
  9.763690E-01
  9.715468E-01
  9.667260E-01
  9.619067E-01
  9.571404E-01
  9.524091E-01
  9.476811E-01
  9.428949E-01
  9.379417E-01
  9.329958E-01
  9.280327E-01
  9.227784E-01
  9.175358E-01
  9.122863E-01
  9.066769E-01
  9.010818E-01
  8.953761E-01
  8.890798E-01
  8.827979E-01
  8.760663E-01
  8.687529E-01
  8.614521E-01
  8.531492E-01
  8.446660E-01
  8.357259E-01
  8.260189E-01
  8.162784E-01
  8.053681E-01
  7.944617E-01
  7.826783E-01
  7.706867E-01
  7.580954E-01
  7.452385E-01
  7.319573E-01
  7.184809E-01
  7.047233E-01
  6.908862E-01
  6.769741E-01
  6.631152E-01
  6.494276E-01
  6.360561E-01
  6.229331E-01
  6.105554E-01
  5.987486E-01
  5.875647E-01
  5.773377E-01
  5.682126E-01
  5.602336E-01
  5.538591E-01
  5.500775E-01
  5.512092E-01
  5.621597E-01
  5.911990E-01
  6.511043E-01
  7.517235E-01
  8.287353E-01
  7.820877E-01
  8.861213E-01
  1.431382E-01
 -6.116720E-14
  9.891877E-01
  9.890231E-01
  9.888585E-01
  9.886939E-01
  9.885293E-01
  9.883647E-01
  9.882002E-01
  9.880356E-01
  9.878711E-01
  9.873899E-01
  9.869009E-01
  9.864120E-01
  9.859230E-01
  9.854340E-01
  9.849451E-01
  9.844562E-01
  9.838623E-01
  9.830758E-01
  9.822894E-01
  9.815030E-01
  9.807166E-01
  9.799303E-01
  9.791439E-01
  9.783261E-01
  9.772561E-01
  9.761862E-01
  9.751163E-01
  9.740464E-01
  9.729766E-01
  9.719068E-01
  9.707672E-01
  9.693961E-01
  9.680249E-01
  9.666538E-01
  9.652828E-01
  9.639117E-01
  9.625407E-01
  9.609537E-01
  9.592722E-01
  9.575907E-01
  9.559093E-01
  9.542279E-01
  9.525466E-01
  9.507161E-01
  9.487284E-01
  9.467407E-01
  9.447531E-01
  9.427655E-01
  9.407781E-01
  9.386113E-01
  9.363189E-01
  9.340266E-01
  9.317345E-01
  9.294425E-01
  9.271506E-01
  9.245591E-01
  9.219630E-01
  9.193672E-01
  9.167716E-01
  9.141761E-01
  9.113857E-01
  9.084954E-01
  9.056054E-01
  9.027157E-01
  8.998262E-01
  8.967584E-01
  8.935737E-01
  8.903893E-01
  8.872052E-01
  8.840214E-01
  8.805872E-01
  8.770905E-01
  8.735940E-01
  8.700978E-01
  8.665244E-01
  8.626994E-01
  8.588746E-01
  8.550499E-01
  8.512255E-01
  8.471002E-01
  8.429414E-01
  8.387828E-01
  8.346243E-01
  8.302074E-01
  8.257179E-01
  8.212285E-01
  8.167394E-01
  8.119903E-01
  8.072017E-01
  8.024133E-01
  7.975873E-01
  7.925465E-01
  7.875061E-01
  7.824662E-01
  7.772834E-01
  7.720128E-01
  7.667432E-01
  7.614145E-01
  7.559190E-01
  7.504257E-01
  7.449185E-01
  7.392200E-01
  7.335248E-01
  7.278217E-01
  7.219005E-01
  7.159833E-01
  7.100182E-01
  7.038069E-01
  6.975994E-01
  6.912381E-01
  6.846784E-01
  6.781222E-01
  6.712420E-01
  6.643034E-01
  6.572184E-01
  6.498881E-01
  6.425472E-01
  6.348287E-01
  6.271119E-01
  6.190883E-01
  6.109923E-01
  6.026379E-01
  5.941694E-01
  5.854491E-01
  5.766128E-01
  5.675028E-01
  5.583140E-01
  5.488110E-01
  5.392251E-01
  5.294142E-01
  5.194404E-01
  5.093473E-01
  4.990142E-01
  4.885380E-01
  4.779102E-01
  4.670648E-01
  4.559857E-01
  4.447035E-01
  4.332366E-01
  4.217040E-01
  4.104956E-01
  4.005437E-01
  3.934398E-01
  3.923456E-01
  4.005813E-01
  3.974062E-01
  3.580126E-01
  4.022531E-01
  1.654008E-01
 -2.598651E-03
  5.627378E-02
  5.626663E-02
  5.625948E-02
  5.625233E-02
  5.624518E-02
  5.623803E-02
  5.623089E-02
  5.622374E-02
  5.621659E-02
  5.620226E-02
  5.618776E-02
  5.617326E-02
  5.615875E-02
  5.614425E-02
  5.612975E-02
  5.611524E-02
  5.610159E-02
  5.608948E-02
  5.607738E-02
  5.606527E-02
  5.605317E-02
  5.604106E-02
  5.602895E-02
  5.601665E-02
  5.600274E-02
  5.598884E-02
  5.597493E-02
  5.596102E-02
  5.594712E-02
  5.593321E-02
  5.591747E-02
  5.589566E-02
  5.587384E-02
  5.585202E-02
  5.583020E-02
  5.580838E-02
  5.578656E-02
  5.575874E-02
  5.572829E-02
  5.569784E-02
  5.566739E-02
  5.563693E-02
  5.560647E-02
  5.557109E-02
  5.553051E-02
  5.548992E-02
  5.544933E-02
  5.540873E-02
  5.536813E-02
  5.531706E-02
  5.525866E-02
  5.520025E-02
  5.514183E-02
  5.508340E-02
  5.502496E-02
  5.494098E-02
  5.485658E-02
  5.477217E-02
  5.468775E-02
  5.460331E-02
  5.450181E-02
  5.439154E-02
  5.428126E-02
  5.417097E-02
  5.406067E-02
  5.393710E-02
  5.380481E-02
  5.367251E-02
  5.354019E-02
  5.340785E-02
  5.326201E-02
  5.311276E-02
  5.296349E-02
  5.281419E-02
  5.266319E-02
  5.250667E-02
  5.235013E-02
  5.219356E-02
  5.203695E-02
  5.187380E-02
  5.170989E-02
  5.154596E-02
  5.138200E-02
  5.120034E-02
  5.101369E-02
  5.082701E-02
  5.064032E-02
  5.042311E-02
  5.020122E-02
  4.997933E-02
  4.975117E-02
  4.948735E-02
  4.922361E-02
  4.895994E-02
  4.865920E-02
  4.833571E-02
  4.801248E-02
  4.767068E-02
  4.727650E-02
  4.688294E-02
  4.648624E-02
  4.604455E-02
  4.560379E-02
  4.516310E-02
  4.470687E-02
  4.425162E-02
  4.379791E-02
  4.334782E-02
  4.289857E-02
  4.245915E-02
  4.203191E-02
  4.160527E-02
  4.120891E-02
  4.081844E-02
  4.044505E-02
  4.009961E-02
  3.975586E-02
  3.946018E-02
  3.916434E-02
  3.891147E-02
  3.866863E-02
  3.846149E-02
  3.827000E-02
  3.810985E-02
  3.796408E-02
  3.785175E-02
  3.774914E-02
  3.768928E-02
  3.764304E-02
  3.763417E-02
  3.765956E-02
  3.771135E-02
  3.782671E-02
  3.798862E-02
  3.820199E-02
  3.849532E-02
  3.888624E-02
  3.938121E-02
  4.001643E-02
  4.085817E-02
  4.203900E-02
  4.381388E-02
  4.659953E-02
  5.112918E-02
  5.811748E-02
  6.427148E-02
  6.541775E-02
  7.896871E-02
  2.625763E-02
  8.462477E-03
  1.619563E-01
  1.618980E-01
  1.618397E-01
  1.617814E-01
  1.617231E-01
  1.616648E-01
  1.616066E-01
  1.615483E-01
  1.614900E-01
  1.613547E-01
  1.612176E-01
  1.610804E-01
  1.609432E-01
  1.608061E-01
  1.606689E-01
  1.605317E-01
  1.603807E-01
  1.602043E-01
  1.600279E-01
  1.598515E-01
  1.596751E-01
  1.594987E-01
  1.593223E-01
  1.591395E-01
  1.589060E-01
  1.586725E-01
  1.584390E-01
  1.582055E-01
  1.579720E-01
  1.577385E-01
  1.574893E-01
  1.571878E-01
  1.568862E-01
  1.565847E-01
  1.562831E-01
  1.559816E-01
  1.556800E-01
  1.553325E-01
  1.549649E-01
  1.545973E-01
  1.542296E-01
  1.538620E-01
  1.534944E-01
  1.530974E-01
  1.526693E-01
  1.522412E-01
  1.518132E-01
  1.513851E-01
  1.509571E-01
  1.504958E-01
  1.500111E-01
  1.495264E-01
  1.490418E-01
  1.485572E-01
  1.480726E-01
  1.475398E-01
  1.470064E-01
  1.464729E-01
  1.459396E-01
  1.454063E-01
  1.448497E-01
  1.442813E-01
  1.437130E-01
  1.431447E-01
  1.425765E-01
  1.419897E-01
  1.413908E-01
  1.407920E-01
  1.401932E-01
  1.395946E-01
  1.389727E-01
  1.383450E-01
  1.377175E-01
  1.370900E-01
  1.364607E-01
  1.358253E-01
  1.351900E-01
  1.345547E-01
  1.339195E-01
  1.332892E-01
  1.326594E-01
  1.320298E-01
  1.314001E-01
  1.307632E-01
  1.301243E-01
  1.294855E-01
  1.288467E-01
  1.282029E-01
  1.275584E-01
  1.269140E-01
  1.262728E-01
  1.256491E-01
  1.250256E-01
  1.244023E-01
  1.237858E-01
  1.231738E-01
  1.225622E-01
  1.219431E-01
  1.213023E-01
  1.206624E-01
  1.200203E-01
  1.193404E-01
  1.186620E-01
  1.179827E-01
  1.172567E-01
  1.165326E-01
  1.157942E-01
  1.149793E-01
  1.141663E-01
  1.132951E-01
  1.123488E-01
  1.114040E-01
  1.103297E-01
  1.092322E-01
  1.080756E-01
  1.068200E-01
  1.055600E-01
  1.041490E-01
  1.027384E-01
  1.012146E-01
  9.966394E-02
  9.803583E-02
  9.637342E-02
  9.465624E-02
  9.291384E-02
  9.113516E-02
  8.934619E-02
  8.754758E-02
  8.575583E-02
  8.398624E-02
  8.225751E-02
  8.056089E-02
  7.896061E-02
  7.743413E-02
  7.598814E-02
  7.466584E-02
  7.348600E-02
  7.245431E-02
  7.163005E-02
  7.114104E-02
  7.128732E-02
  7.270335E-02
  7.645866E-02
  8.420566E-02
  9.721783E-02
  1.071766E-01
  1.011429E-01
  1.145956E-01
  2.542654E-02
 -1.924345E-09
  9.893176E-01
  9.891531E-01
  9.889886E-01
  9.888241E-01
  9.886596E-01
  9.884951E-01
  9.883306E-01
  9.881662E-01
  9.880017E-01
  9.875208E-01
  9.870320E-01
  9.865432E-01
  9.860545E-01
  9.855658E-01
  9.850771E-01
  9.845883E-01
  9.839947E-01
  9.832086E-01
  9.824225E-01
  9.816364E-01
  9.808503E-01
  9.800643E-01
  9.792783E-01
  9.784608E-01
  9.773912E-01