 Title = "ADflow Slice Data"
Variables =  "CoordinateX"  "CoordinateY"  "CoordinateZ"  "XoC"  "YoC"  "ZoC" "VelocityX" "VelocityY" "VelocityZ" "CoefPressure" "Mach" 
Zone T= "Slice_0001 None Relative Regular z = 0.10000000"
 Nodes =          114  Elements=          106  ZONETYPE=FELINESEG
 DATAPACKING=POINT
  7.301402E-01  6.751068E-02  1.000000E-01  7.450331E-01  5.900929E-02  1.416120E-17  2.617101E-02 -4.176415E-03 -1.747323E-04 -4.384305E-01  0.000000E+00
  7.043967E-01  7.146528E-02  1.000000E-01  7.187638E-01  6.304465E-02 -4.248360E-17  2.732548E-02 -4.040928E-03 -1.695611E-04 -4.685929E-01  0.000000E+00
  6.775455E-01  7.528243E-02  1.000000E-01  6.913642E-01  6.693975E-02  3.965136E-16  2.822556E-02 -3.873561E-03 -1.629027E-04 -4.956764E-01  0.000000E+00
  6.496792E-01  7.896515E-02  1.000000E-01  6.629289E-01  7.069768E-02  4.248360E-17  2.892850E-02 -3.716741E-03 -1.550760E-04 -5.241526E-01  0.000000E+00
  6.209097E-01  8.254793E-02  1.000000E-01  6.335719E-01  7.435362E-02 -2.832240E-17  2.958475E-02 -3.584120E-03 -1.464764E-04 -5.573082E-01  0.000000E+00
  5.913667E-01  8.601866E-02  1.000000E-01  6.034255E-01  7.789524E-02 -2.832240E-17  3.037444E-02 -3.458911E-03 -1.374739E-04 -5.956695E-01  0.000000E+00
  5.611982E-01  8.933670E-02  1.000000E-01  5.726410E-01  8.128104E-02  0.000000E+00  3.142517E-02 -3.327981E-03 -1.282874E-04 -6.401611E-01  0.000000E+00
  5.305654E-01  9.244692E-02  1.000000E-01  5.413825E-01  8.445477E-02 -5.664479E-17  3.281574E-02 -3.178476E-03 -1.190427E-04 -6.925772E-01  0.000000E+00
  4.996398E-01  9.528950E-02  1.000000E-01  5.098254E-01  8.735540E-02  0.000000E+00  3.460753E-02 -2.980572E-03 -1.098861E-04 -7.539034E-01  0.000000E+00
  4.685986E-01  9.777763E-02  1.000000E-01  4.781502E-01  8.989434E-02  1.416120E-17  3.684463E-02 -2.682047E-03 -1.010470E-04 -8.223441E-01  0.000000E+00
  4.376215E-01  9.980341E-02  1.000000E-01  4.465406E-01  9.196150E-02 -8.496719E-17  3.950265E-02 -2.227223E-03 -9.278999E-05 -8.936860E-01  0.000000E+00
  4.068895E-01  1.012627E-01  1.000000E-01  4.151810E-01  9.345054E-02  0.000000E+00  4.244866E-02 -1.572055E-03 -8.533456E-05 -9.625387E-01  0.000000E+00
  3.765814E-01  1.020737E-01  1.000000E-01  3.842539E-01  9.427819E-02 -5.664479E-17  4.545023E-02 -7.138017E-04 -7.877424E-05 -1.025391E+00  0.000000E+00
  3.468696E-01  1.022151E-01  1.000000E-01  3.539354E-01  9.442245E-02 -5.664479E-17  4.829789E-02  3.245606E-04 -7.308747E-05 -1.080508E+00  0.000000E+00
  3.179133E-01  1.016887E-01  1.000000E-01  3.243877E-01  9.388533E-02 -2.832240E-17  5.089891E-02  1.521401E-03 -6.814759E-05 -1.127646E+00  0.000000E+00
  2.898519E-01  1.005181E-01  1.000000E-01  2.957532E-01  9.269080E-02 -4.248360E-17  5.325750E-02  2.845017E-03 -6.369462E-05 -1.170309E+00  0.000000E+00
  2.628044E-01  9.874937E-02  1.000000E-01  2.681534E-01  9.088593E-02  0.000000E+00  5.546323E-02  4.279710E-03 -5.941542E-05 -1.212845E+00  0.000000E+00
  9.800000E-01  1.263326E-02  1.000000E-01  9.999955E-01  3.011165E-03 -2.832240E-17  1.058684E-02 -1.316318E-02 -2.005454E-04 -5.717004E-02  0.000000E+00
  9.720124E-01  1.478421E-02  1.000000E-01  9.918447E-01  5.206042E-03 -2.832240E-17  1.211725E-02 -3.331940E-03 -1.862538E-04  6.720625E-02  0.000000E+00
  9.632634E-01  1.715139E-02  1.000000E-01  9.829171E-01  7.621559E-03 -2.832240E-17  9.095392E-03 -2.396565E-03 -1.583599E-04  1.984842E-02  0.000000E+00
  9.536907E-01  1.972265E-02  1.000000E-01  9.731489E-01  1.024534E-02 -2.832240E-17  7.237503E-03 -1.931898E-03 -1.391534E-04  1.335235E-03  0.000000E+00
  9.432303E-01  2.248150E-02  1.000000E-01  9.624748E-01  1.306052E-02  1.416120E-17  6.870291E-03 -1.794277E-03 -1.326295E-04 -1.928665E-02  0.000000E+00
  9.318220E-01  2.543027E-02  1.000000E-01  9.508336E-01  1.606951E-02  1.416120E-17  7.657227E-03 -1.955283E-03 -1.351164E-04 -4.596848E-02  0.000000E+00
  9.194070E-01  2.857080E-02  1.000000E-01  9.381650E-01  1.927417E-02 -8.496719E-17  9.094775E-03 -2.270665E-03 -1.419119E-04 -7.467364E-02  0.000000E+00
  9.059278E-01  3.189963E-02  1.000000E-01  9.244106E-01  2.267099E-02 -5.664479E-17  1.077090E-02 -2.622084E-03 -1.498050E-04 -1.052394E-01  0.000000E+00
  8.913299E-01  3.540897E-02  1.000000E-01  9.095145E-01  2.625200E-02  0.000000E+00  1.248745E-02 -2.956948E-03 -1.572758E-04 -1.381479E-01  0.000000E+00
  8.755643E-01  3.909126E-02  1.000000E-01  8.934270E-01  3.000949E-02 -2.832240E-17  1.421829E-02 -3.266968E-03 -1.639271E-04 -1.734547E-01  0.000000E+00
  8.585885E-01  4.293316E-02  1.000000E-01  8.761045E-01  3.392985E-02  4.106748E-16  1.599896E-02 -3.553221E-03 -1.697490E-04 -2.106536E-01  0.000000E+00
  8.403666E-01  4.690945E-02  1.000000E-01  8.575105E-01  3.798734E-02  3.965136E-16  1.782993E-02 -3.807200E-03 -1.745328E-04 -2.490334E-01  0.000000E+00
  8.208730E-01  5.098734E-02  1.000000E-01  8.376188E-01  4.214851E-02 -8.496719E-17  1.966838E-02 -4.015158E-03 -1.779284E-04 -2.881430E-01  0.000000E+00
  8.000947E-01  5.513098E-02  1.000000E-01  8.164162E-01  4.637677E-02 -2.832240E-17  2.146787E-02 -4.164852E-03 -1.797268E-04 -3.275612E-01  0.000000E+00
  7.780326E-01  5.929808E-02  1.000000E-01  7.939035E-01  5.062897E-02 -2.832240E-17  2.318614E-02 -4.245772E-03 -1.798357E-04 -3.666085E-01  0.000000E+00
  7.547032E-01  6.344145E-02  1.000000E-01  7.700977E-01  5.485696E-02  4.389972E-16  2.477380E-02 -4.249612E-03 -1.781836E-04 -4.040837E-01  0.000000E+00
  7.301402E-01  6.751068E-02  1.000000E-01  7.450331E-01  5.900929E-02  2.832240E-17  2.617101E-02 -4.176415E-03 -1.747323E-04 -4.384305E-01  0.000000E+00
  2.444131E-01 -2.608979E-03  1.000000E-01  2.493865E-01 -1.254235E-02  3.681912E-16  2.780835E-02  1.255123E-03  5.053628E-05  1.692528E-01  0.000000E+00
  2.700250E-01 -1.460117E-03  1.000000E-01  2.755214E-01 -1.137003E-02 -4.248360E-17  2.805657E-02  1.235261E-03  5.181179E-05  1.675411E-01  0.000000E+00
  2.967058E-01 -3.102397E-04  1.000000E-01  3.027471E-01 -1.019667E-02 -2.832240E-17  2.844179E-02  1.257865E-03  5.338648E-05  1.595754E-01  0.000000E+00
  3.243554E-01  9.407931E-04  1.000000E-01  3.309613E-01 -8.920084E-03  4.248360E-16  2.861858E-02  1.400504E-03  5.529183E-05  1.464770E-01  0.000000E+00
  3.528511E-01  2.439477E-03  1.000000E-01  3.600391E-01 -7.390795E-03 -4.248360E-17  2.819593E-02  1.684537E-03  5.749809E-05  1.344208E-01  0.000000E+00
  3.820469E-01  4.398733E-03  1.000000E-01  3.898310E-01 -5.391527E-03  5.664479E-17  2.691271E-02  2.066089E-03  5.988714E-05  1.309629E-01  0.000000E+00
  4.117740E-01  6.989607E-03  1.000000E-01  4.201652E-01 -2.747742E-03 -5.664479E-17  2.483110E-02  2.433525E-03  6.231065E-05  1.430884E-01  0.000000E+00
  4.418498E-01  1.029565E-02  1.000000E-01  4.508552E-01  6.258158E-04 -2.832240E-17  2.237379E-02  2.649307E-03  6.469135E-05  1.713648E-01  0.000000E+00
  4.721105E-01  1.417527E-02  1.000000E-01  4.817339E-01  4.584664E-03 -5.664479E-17  2.030163E-02  2.506517E-03  6.726802E-05  2.217714E-01  0.000000E+00
  5.024968E-01  1.777554E-02  1.000000E-01  5.127408E-01  8.258462E-03  1.416120E-17  1.906516E-02  2.081900E-03  7.034246E-05  2.754978E-01  0.000000E+00
  5.328693E-01  2.078160E-02  1.000000E-01  5.437335E-01  1.132591E-02 -4.248360E-17  1.844799E-02  1.695369E-03  7.403656E-05  3.013212E-01  0.000000E+00
  5.630297E-01  2.333070E-02  1.000000E-01  5.745099E-01  1.392707E-02  1.416120E-17  1.808134E-02  1.440953E-03  7.834254E-05  3.078225E-01  0.000000E+00
  5.927917E-01  2.556044E-02  1.000000E-01  6.048796E-01  1.620235E-02  5.664479E-17  1.768914E-02  1.280358E-03  8.292048E-05  3.134350E-01  0.000000E+00
  6.219828E-01  2.759712E-02  1.000000E-01  6.346669E-01  1.828061E-02 -4.248360E-17  1.713448E-02  1.162523E-03  8.726298E-05  3.235551E-01  0.000000E+00
  6.504533E-01  2.946962E-02  1.000000E-01  6.637188E-01  2.019135E-02  5.664479E-17  1.644973E-02  1.024303E-03  9.109272E-05  3.386969E-01  0.000000E+00
  6.780742E-01  3.108491E-02  1.000000E-01  6.919038E-01  2.183963E-02  4.531583E-16  1.576856E-02  8.306474E-04  9.444290E-05  3.568372E-01  0.000000E+00
  7.047326E-01  3.232189E-02  1.000000E-01  7.191066E-01  2.310188E-02  0.000000E+00  1.522768E-02  5.895795E-04  9.752072E-05  3.737550E-01  0.000000E+00
  1.215943E-04  9.344600E-03  1.000000E-01  1.060951E-04 -3.446553E-04 -5.664479E-17 -4.544677E-02  8.106830E-02  7.112336E-05  7.514111E-01  0.000000E+00
  4.902502E-03  3.677282E-03  1.000000E-01  4.984637E-03 -6.127711E-03 -8.496719E-17 -1.685117E-02  1.961563E-02  5.782905E-05  9.385203E-01  0.000000E+00
  1.254908E-02  3.784138E-05  1.000000E-01  1.278737E-02 -9.841476E-03 -2.832240E-17  7.844629E-03 -2.039089E-03  4.442524E-05  5.436917E-01  0.000000E+00
  2.163699E-02 -2.348822E-03  1.000000E-01  2.206088E-02 -1.227688E-02  1.416120E-17  2.163858E-02 -4.457145E-03  3.875348E-05  3.422326E-01  0.000000E+00
  3.184423E-02 -4.023449E-03  1.000000E-01  3.247656E-02 -1.398571E-02 -2.832240E-17  2.739758E-02 -3.592819E-03  3.845113E-05  3.082621E-01  0.000000E+00
  4.311596E-02 -5.196252E-03  1.000000E-01  4.397849E-02 -1.518246E-02 -8.496719E-17  2.959303E-02 -2.377849E-03  3.943988E-05  2.730359E-01  0.000000E+00
  5.546913E-02 -5.910470E-03  1.000000E-01  5.658393E-02 -1.591126E-02  1.416120E-17  3.025624E-02 -1.404725E-03  4.062222E-05  2.405246E-01  0.000000E+00
  6.891473E-02 -6.379867E-03  1.000000E-01  7.030412E-02 -1.639025E-02 -8.496719E-17  3.048970E-02 -8.732710E-04  4.187296E-05  2.285635E-01  0.000000E+00
  8.348882E-02 -6.711169E-03  1.000000E-01  8.517584E-02 -1.672831E-02  5.664479E-17  3.061039E-02 -5.244975E-04  4.301829E-05  2.165502E-01  0.000000E+00
  9.923792E-02 -6.898403E-03  1.000000E-01  1.012466E-01 -1.691937E-02 -9.912839E-17  3.057624E-02 -1.671581E-04  4.404732E-05  1.977093E-01  0.000000E+00
  1.162051E-01 -6.884001E-03  1.000000E-01  1.185602E-01 -1.690468E-02 -8.496719E-17  3.035087E-02  1.990852E-04  4.504003E-05  1.809541E-01  0.000000E+00
  1.344203E-01 -6.660669E-03  1.000000E-01  1.371474E-01 -1.667678E-02 -8.496719E-17  2.995806E-02  5.192207E-04  4.601080E-05  1.717556E-01  0.000000E+00
  1.539027E-01 -6.225892E-03  1.000000E-01  1.570277E-01 -1.623313E-02  4.389972E-16  2.941756E-02  7.943061E-04  4.691230E-05  1.668400E-01  0.000000E+00
  1.746592E-01 -5.569296E-03  1.000000E-01  1.782081E-01 -1.556312E-02  3.257076E-16  2.880388E-02  1.011176E-03  4.775899E-05  1.650360E-01  0.000000E+00
  1.966815E-01 -4.720357E-03  1.000000E-01  2.006801E-01 -1.469685E-02 -2.832240E-17  2.824743E-02  1.153887E-03  4.860471E-05  1.663550E-01  0.000000E+00
  2.199461E-01 -3.718448E-03  1.000000E-01  2.244199E-01 -1.367448E-02 -4.248360E-17  2.787877E-02  1.233762E-03  4.950164E-05  1.683536E-01  0.000000E+00
  2.444131E-01 -2.608979E-03  1.000000E-01  2.493865E-01 -1.254235E-02  3.823524E-16  2.780835E-02  1.255123E-03  5.053628E-05  1.692528E-01  0.000000E+00
  7.047326E-01  3.232189E-02  1.000000E-01  7.191066E-01  2.310188E-02 -2.832240E-17  1.522768E-02  5.895795E-04  9.752072E-05  3.737550E-01  0.000000E+00
  7.303325E-01  3.310284E-02  1.000000E-01  7.452293E-01  2.389877E-02 -2.832240E-17  1.492693E-02  3.200171E-04  1.005823E-04  3.864945E-01  0.000000E+00
  7.547951E-01  3.339581E-02  1.000000E-01  7.701915E-01  2.419773E-02  4.389972E-16  1.493979E-02  2.205749E-05  1.038696E-04  3.948285E-01  0.000000E+00
  7.780600E-01  3.318146E-02  1.000000E-01  7.939315E-01  2.397900E-02  1.416120E-17  1.531571E-02 -3.180686E-04  1.075638E-04  3.986669E-01  0.000000E+00
  8.000833E-01  3.247120E-02  1.000000E-01  8.164045E-01  2.325424E-02 -4.248360E-17  1.606104E-02 -7.150833E-04  1.117362E-04  3.974147E-01  0.000000E+00
  8.208376E-01  3.129887E-02  1.000000E-01  8.375827E-01  2.205796E-02 -2.832240E-17  1.710458E-02 -1.154835E-03  1.162651E-04  3.900862E-01  0.000000E+00
  8.403144E-01  2.977459E-02  1.000000E-01  8.574573E-01  2.050256E-02  4.389972E-16  1.828250E-02 -1.574764E-03  1.208061E-04  3.759153E-01  0.000000E+00
  8.585258E-01  2.806389E-02  1.000000E-01  8.760405E-01  1.875691E-02  3.965136E-16  1.939601E-02 -1.909621E-03  1.248920E-04  3.574106E-01  0.000000E+00
  8.754993E-01  2.631314E-02  1.000000E-01  8.933607E-01  1.697042E-02 -2.832240E-17  2.029940E-02 -2.140983E-03  1.280398E-04  3.387696E-01  0.000000E+00
  8.912718E-01  2.460817E-02  1.000000E-01  9.094553E-01  1.523062E-02 -2.832240E-17  2.097579E-02 -2.324745E-03  1.299275E-04  3.236590E-01  0.000000E+00
  9.058836E-01  2.294438E-02  1.000000E-01  9.243655E-01  1.353286E-02 -4.248360E-17  2.154861E-02 -2.544936E-03  1.306231E-04  3.127100E-01  0.000000E+00
  9.193796E-01  2.128804E-02  1.000000E-01  9.381371E-01  1.184269E-02 -5.664479E-17  2.220986E-02 -2.829652E-03  1.308048E-04  3.013181E-01  0.000000E+00
  9.318118E-01  1.964141E-02  1.000000E-01  9.508232E-01  1.016243E-02  4.248360E-17  2.316279E-02 -3.196032E-03  1.318665E-04  2.868494E-01  0.000000E+00
  9.432349E-01  1.800050E-02  1.000000E-01  9.624795E-01  8.488013E-03 -2.832240E-17  2.444545E-02 -3.660658E-03  1.348188E-04  2.698350E-01  0.000000E+00
  9.537058E-01  1.636621E-02  1.000000E-01  9.731643E-01  6.820352E-03  0.000000E+00  2.541207E-02 -4.121240E-03  1.373190E-04  2.446389E-01  0.000000E+00
  9.632829E-01  1.474382E-02  1.000000E-01  9.829370E-01  5.164825E-03 -2.832240E-17  2.445271E-02 -4.319435E-03  1.318365E-04  2.092530E-01  0.000000E+00
  9.720275E-01  1.316667E-02  1.000000E-01  9.918602E-01  3.555467E-03  0.000000E+00  2.077680E-02 -3.768674E-03  1.135295E-04  2.062437E-01  0.000000E+00
  9.800000E-01  1.165738E-02  1.000000E-01  9.999955E-01  2.015353E-03  1.416120E-17  1.386243E-02  4.461634E-03  7.455431E-05 -8.890415E-03  0.000000E+00
  1.215943E-04  1.002527E-02  1.000000E-01  1.060951E-04  3.499179E-04 -9.912839E-17  2.284835E-02  5.296561E-02  2.971806E-05  4.582170E-01  0.000000E+00
  7.278129E-05  9.910612E-03  1.000000E-01  5.628522E-05  2.329155E-04  1.416120E-17  1.552797E-02  7.596135E-02  4.414170E-05  2.982466E-01  0.000000E+00
  1.762252E-05  9.682358E-03  1.000000E-01  0.000000E+00  0.000000E+00  0.000000E+00 -1.214840E-02  1.219092E-01  6.594078E-05  3.381018E-01  0.000000E+00
  8.694958E-05  9.457192E-03  1.000000E-01  7.074285E-05 -2.297640E-04  0.000000E+00 -5.086027E-02  1.320555E-01  7.638530E-05  3.872113E-01  0.000000E+00
  1.215943E-04  9.344600E-03  1.000000E-01  1.060951E-04 -3.446553E-04 -4.248360E-17 -4.544677E-02  8.106830E-02  7.112336E-05  7.514111E-01  0.000000E+00
  9.800000E-01  1.165738E-02  1.000000E-01  9.999955E-01  2.015353E-03  0.000000E+00  1.386243E-02  4.461634E-03  7.455431E-05 -8.890415E-03  0.000000E+00
  9.800000E-01  1.182002E-02  1.000000E-01  9.999955E-01  2.181322E-03  0.000000E+00  4.524304E-03 -1.361587E-03 -1.330018E-05 -2.111436E-01  0.000000E+00
  9.800000E-01  1.214532E-02  1.000000E-01  9.999955E-01  2.513259E-03 -2.832240E-17 -4.384757E-04 -1.587754E-02 -1.148396E-04 -1.756162E-01  0.000000E+00
  9.800000E-01  1.247061E-02  1.000000E-01  9.999955E-01  2.845196E-03 -5.664479E-17  3.419587E-03 -1.962339E-02 -1.775869E-04 -1.938348E-01  0.000000E+00
  9.800000E-01  1.263326E-02  1.000000E-01  9.999955E-01  3.011165E-03  0.000000E+00  1.058684E-02 -1.316318E-02 -2.005454E-04 -5.717004E-02  0.000000E+00
  2.628044E-01  9.874937E-02  1.000000E-01  2.681534E-01  9.088593E-02 -2.832240E-17  5.546323E-02  4.279710E-03 -5.941542E-05 -1.212845E+00  0.000000E+00
  2.368706E-01  9.643480E-02  1.000000E-01  2.416900E-01  8.852409E-02  3.681912E-16  5.769088E-02  5.908926E-03 -5.512519E-05 -1.252474E+00  0.000000E+00
  2.121362E-01  9.356917E-02  1.000000E-01  2.164504E-01  8.559993E-02  1.416120E-17  5.998346E-02  7.808414E-03 -5.072748E-05 -1.282524E+00  0.000000E+00
  1.886687E-01  9.017173E-02  1.000000E-01  1.925037E-01  8.213311E-02 -4.248360E-17  6.217006E-02  9.957033E-03 -4.616420E-05 -1.298207E+00  0.000000E+00
  1.665185E-01  8.627581E-02  1.000000E-01  1.699011E-01  7.815764E-02  4.814807E-16  6.402581E-02  1.228875E-02 -4.147440E-05 -1.297141E+00  0.000000E+00
  1.457161E-01  8.193918E-02  1.000000E-01  1.486739E-01  7.373244E-02  4.531583E-16  6.539901E-02  1.473030E-02 -3.674850E-05 -1.280979E+00  0.000000E+00
  1.262764E-01  7.722213E-02  1.000000E-01  1.288372E-01  6.891906E-02  0.000000E+00  6.627361E-02  1.724564E-02 -3.205483E-05 -1.254972E+00  0.000000E+00
  1.081990E-01  7.218478E-02  1.000000E-01  1.103906E-01  6.377884E-02  0.000000E+00  6.668728E-02  1.981169E-02 -2.736023E-05 -1.226234E+00  0.000000E+00
  9.146971E-02  6.688980E-02  1.000000E-01  9.331971E-02  5.837572E-02  0.000000E+00  6.675003E-02  2.258379E-02 -2.266222E-05 -1.189945E+00  0.000000E+00
  7.608258E-02  6.133303E-02  1.000000E-01  7.761834E-02  5.270547E-02  0.000000E+00  6.641978E-02  2.573372E-02 -1.804402E-05 -1.127734E+00  0.000000E+00
  6.202881E-02  5.550394E-02  1.000000E-01  6.327757E-02  4.675734E-02 -5.664479E-17  6.535865E-02  2.912236E-02 -1.361605E-05 -1.022409E+00  0.000000E+00
  4.929579E-02  4.941951E-02  1.000000E-01  5.028452E-02  4.054866E-02 -8.496719E-17  6.320889E-02  3.220115E-02 -9.425502E-06 -8.790162E-01  0.000000E+00
  3.782553E-02  4.319050E-02  1.000000E-01  3.858002E-02  3.419244E-02  4.248360E-17  6.010584E-02  3.475224E-02 -5.432339E-06 -7.243636E-01  0.000000E+00
  2.757469E-02  3.687077E-02  1.000000E-01  2.811984E-02  2.774365E-02 -2.832240E-17  5.655213E-02  3.701547E-02 -1.276789E-06 -6.060878E-01  0.000000E+00
  1.848362E-02  3.053705E-02  1.000000E-01  1.884311E-02  2.128058E-02  5.664479E-17  5.322361E-02  4.044247E-02  3.881570E-06 -5.083337E-01  0.000000E+00
  1.064273E-02  2.406343E-02  1.000000E-01  1.084209E-02  1.467477E-02  1.416120E-17  4.946931E-02  4.666208E-02  1.127229E-05 -2.685876E-01  0.000000E+00
  4.262692E-03  1.729998E-02  1.000000E-01  4.331762E-03  7.773190E-03  1.416120E-17  4.010585E-02  5.390194E-02  2.095443E-05  2.424394E-01  0.000000E+00
  1.215943E-04  1.002527E-02  1.000000E-01  1.060951E-04  3.499179E-04 -8.496719E-17  2.284835E-02  5.296561E-02  2.971806E-05  4.582170E-01  0.000000E+00
    1    2
    2    3
    3    4
    4    5
    5    6
    6    7
    7    8
    8    9
    9   10
   10   11
   11   12
   12   13
   13   14
   14   15
   15   16
   16   17
   18   19
   19   20
   20   21
   21   22
   22   23
   23   24
   24   25
   25   26
   26   27
   27   28
   28   29
   29   30
   30   31
   31   32
   32   33
   33   34
   35   36
   36   37
   37   38
   38   39
   39   40
   40   41
   41   42
   42   43
   43   44
   44   45
   45   46
   46   47
   47   48
   48   49
   49   50
   50   51
   52   53
   53   54
   54   55
   55   56
   56   57
   57   58
   58   59
   59   60
   60   61
   61   62
   62   63
   63   64
   64   65
   65   66
   66   67
   67   68
   69   70
   70   71
   71   72
   72   73
   73   74
   74   75
   75   76
   76   77
   77   78
   78   79
   79   80
   80   81
   81   82
   82   83
   83   84
   84   85
   85   86
   87   88
   88   89
   89   90
   90   91
   92   93
   93   94
   94   95
   95   96
   97   98
   98   99
   99  100
  100  101
  101  102
  102  103
  103  104
  104  105
  105  106
  106  107
  107  108
  108  109
  109  110
  110  111
  111  112
  112  113
  113  114
Zone T= "Slice_0002 None Relative Regular z = 0.36666667"
 Nodes =          114  Elements=          106  ZONETYPE=FELINESEG
 DATAPACKING=POINT
  7.301402E-01  6.676421E-02  3.666667E-01  7.450338E-01  5.826118E-02 -5.664485E-17  2.622584E-02 -4.177973E-03 -5.446517E-04 -4.302540E-01  0.000000E+00
  7.043967E-01  7.071503E-02  3.666667E-01  7.187645E-01  6.229268E-02 -1.132897E-16  2.737087E-02 -4.049038E-03 -5.266319E-04 -4.600968E-01  0.000000E+00
  6.775455E-01  7.453754E-02  3.666667E-01  6.913649E-01  6.619326E-02  3.058822E-14  2.826686E-02 -3.890062E-03 -5.053964E-04 -4.870844E-01  0.000000E+00
  6.496792E-01  7.823572E-02  3.666667E-01  6.629295E-01  6.996696E-02 -1.699345E-16  2.897090E-02 -3.742468E-03 -4.825548E-04 -5.156329E-01  0.000000E+00
  6.209097E-01  8.184412E-02  3.666667E-01  6.335725E-01  7.364905E-02  0.000000E+00  2.963199E-02 -3.619187E-03 -4.596725E-04 -5.489690E-01  0.000000E+00
  5.913667E-01  8.535047E-02  3.666667E-01  6.034261E-01  7.722702E-02  1.132897E-16  3.042835E-02 -3.503289E-03 -4.377952E-04 -5.876194E-01  0.000000E+00
  5.611982E-01  8.871365E-02  3.666667E-01  5.726415E-01  8.065888E-02  2.265794E-16  3.148746E-02 -3.381522E-03 -4.170520E-04 -6.325127E-01  0.000000E+00
  5.305654E-01  9.187718E-02  3.666667E-01  5.413830E-01  8.388702E-02  1.132897E-16  3.289064E-02 -3.240773E-03 -3.969956E-04 -6.854220E-01  0.000000E+00
  4.996398E-01  9.477898E-02  3.666667E-01  5.098259E-01  8.684808E-02 -1.699345E-16  3.470381E-02 -3.050912E-03 -3.771119E-04 -7.473000E-01  0.000000E+00
  4.685986E-01  9.732932E-02  3.666667E-01  4.781507E-01  8.945051E-02  1.132897E-16  3.697514E-02 -2.759036E-03 -3.571070E-04 -8.163137E-01  0.000000E+00
  4.376215E-01  9.941716E-02  3.666667E-01  4.465410E-01  9.158098E-02 -5.664485E-17  3.967956E-02 -2.308109E-03 -3.367633E-04 -8.882069E-01  0.000000E+00
  4.068895E-01  1.009353E-01  3.666667E-01  4.151814E-01  9.313015E-02 -5.664485E-17  4.267831E-02 -1.652408E-03 -3.158454E-04 -9.575346E-01  0.000000E+00
  3.765814E-01  1.017998E-01  3.666667E-01  3.842543E-01  9.401231E-02  5.664485E-17  4.573261E-02 -7.882190E-04 -2.941358E-04 -1.020727E+00  0.000000E+00
  3.468696E-01  1.019876E-01  3.666667E-01  3.539357E-01  9.420388E-02 -5.664485E-17  4.862913E-02  2.611312E-04 -2.718328E-04 -1.076019E+00  0.000000E+00
  3.179133E-01  1.015001E-01  3.666667E-01  3.243880E-01  9.370648E-02  0.000000E+00  5.127287E-02  1.472581E-03 -2.495818E-04 -1.123183E+00  0.000000E+00
  2.898519E-01  1.003617E-01  3.666667E-01  2.957535E-01  9.254478E-02  5.664485E-17  5.366668E-02  2.812813E-03 -2.278556E-04 -1.165752E+00  0.000000E+00
  2.628044E-01  9.861929E-02  3.666667E-01  2.681536E-01  9.076682E-02  5.664485E-17  5.589995E-02  4.264962E-03 -2.067371E-04 -1.208112E+00  0.000000E+00
  9.800000E-01  1.228998E-02  3.666667E-01  9.999964E-01  2.674418E-03  5.664485E-17  1.057865E-02 -1.305474E-02 -6.362047E-04 -5.751310E-02  0.000000E+00
  9.720124E-01  1.442008E-02  3.666667E-01  9.918457E-01  4.848025E-03  0.000000E+00  1.214476E-02 -3.308194E-03 -5.988837E-04  6.807558E-02  0.000000E+00
  9.632634E-01  1.676490E-02  3.666667E-01  9.829181E-01  7.240727E-03  1.132897E-16  9.211170E-03 -2.404462E-03 -5.102765E-04  2.091667E-02  0.000000E+00
  9.536907E-01  1.931229E-02  3.666667E-01  9.731499E-01  9.840142E-03 -5.664485E-17  7.413669E-03 -1.960296E-03 -4.495044E-04  2.519425E-03  0.000000E+00
  9.432303E-01  2.204576E-02  3.666667E-01  9.624757E-01  1.262945E-02 -1.699345E-16  7.073744E-03 -1.830313E-03 -4.287698E-04 -1.791332E-02  0.000000E+00
  9.318220E-01  2.496777E-02  3.666667E-01  9.508345E-01  1.561112E-02 -5.664485E-17  7.865927E-03 -1.990404E-03 -4.362694E-04 -4.430726E-02  0.000000E+00
  9.194070E-01  2.808024E-02  3.666667E-01  9.381659E-01  1.878716E-02  0.000000E+00  9.295514E-03 -2.300255E-03 -4.571681E-04 -7.264139E-02  0.000000E+00
  9.059278E-01  3.137992E-02  3.666667E-01  9.244114E-01  2.215423E-02 -1.132897E-16  1.095830E-02 -2.644704E-03 -4.814602E-04 -1.027664E-01  0.000000E+00
  8.913299E-01  3.485930E-02  3.666667E-01  9.095154E-01  2.570467E-02  0.000000E+00  1.266377E-02 -2.973637E-03 -5.044655E-04 -1.351650E-01  0.000000E+00
  8.755643E-01  3.851117E-02  3.666667E-01  8.934279E-01  2.943113E-02 -1.132897E-16  1.438880E-02 -3.279606E-03 -5.248833E-04 -1.698917E-01  0.000000E+00
  8.585885E-01  4.232268E-02  3.666667E-01  8.761053E-01  3.332047E-02  3.098473E-14  1.616293E-02 -3.562296E-03 -5.424011E-04 -2.064527E-01  0.000000E+00
  8.403666E-01  4.626921E-02  3.666667E-01  8.575113E-01  3.734760E-02  3.098473E-14  1.797972E-02 -3.811893E-03 -5.561152E-04 -2.441505E-01  0.000000E+00
  8.208730E-01  5.031875E-02  3.666667E-01  8.376196E-01  4.147985E-02 -5.664485E-17  1.979764E-02 -4.015369E-03 -5.649217E-04 -2.825492E-01  0.000000E+00
  8.000947E-01  5.443638E-02  3.666667E-01  8.164170E-01  4.568157E-02 -5.664485E-17  2.157508E-02 -4.161876E-03 -5.682692E-04 -3.212467E-01  0.000000E+00
  7.780326E-01  5.858093E-02  3.666667E-01  7.939043E-01  4.991077E-02 -1.132897E-16  2.327283E-02 -4.241760E-03 -5.659847E-04 -3.595909E-01  0.000000E+00
  7.547032E-01  6.270653E-02  3.666667E-01  7.700984E-01  5.412062E-02  3.075815E-14  2.484273E-02 -4.247073E-03 -5.580350E-04 -3.964238E-01  0.000000E+00
  7.301402E-01  6.676421E-02  3.666667E-01  7.450338E-01  5.826118E-02 -5.664485E-17  2.622584E-02 -4.177973E-03 -5.446517E-04 -4.302540E-01  0.000000E+00
  2.444131E-01 -2.724223E-03  3.666667E-01  2.493867E-01 -1.264641E-02  3.092809E-14  2.802745E-02  1.243248E-03  1.681804E-04  1.675553E-01  0.000000E+00
  2.700250E-01 -1.597335E-03  3.666667E-01  2.755217E-01 -1.149651E-02  5.664485E-17  2.828588E-02  1.219956E-03  1.751390E-04  1.659163E-01  0.000000E+00
  2.967058E-01 -4.742221E-04  3.666667E-01  3.027474E-01 -1.035046E-02 -5.664485E-17  2.868510E-02  1.238757E-03  1.833667E-04  1.579903E-01  0.000000E+00
  3.243554E-01  7.443095E-04  3.666667E-01  3.309616E-01 -9.107045E-03  3.070151E-14  2.887530E-02  1.378228E-03  1.927076E-04  1.448774E-01  0.000000E+00
  3.528511E-01  2.203848E-03  3.666667E-01  3.600394E-01 -7.617698E-03 -5.664485E-17  2.846074E-02  1.660835E-03  2.025889E-04  1.327335E-01  0.000000E+00
  3.820469E-01  4.116742E-03  3.666667E-01  3.898314E-01 -5.665738E-03 -1.132897E-16  2.717865E-02  2.043875E-03  2.120366E-04  1.290993E-01  0.000000E+00
  4.117740E-01  6.654605E-03  3.666667E-01  4.201656E-01 -3.076044E-03  1.132897E-16  2.509222E-02  2.415934E-03  2.201087E-04  1.409550E-01  0.000000E+00
  4.418498E-01  9.902612E-03  3.666667E-01  4.508556E-01  2.382960E-04 -1.699345E-16  2.262583E-02  2.637844E-03  2.264919E-04  1.688974E-01  0.000000E+00
  4.721105E-01  1.372146E-02  3.666667E-01  4.817344E-01  4.135139E-03 -1.132897E-16  2.054565E-02  2.498176E-03  2.327058E-04  2.189901E-01  0.000000E+00
  5.024968E-01  1.726084E-02  3.666667E-01  5.127413E-01  7.746804E-03  5.664485E-17  1.930692E-02  2.072767E-03  2.401083E-04  2.724467E-01  0.000000E+00
  5.328693E-01  2.020884E-02  3.666667E-01  5.437340E-01  1.075501E-02 -2.265794E-16  1.869222E-02  1.685534E-03  2.488174E-04  2.979595E-01  0.000000E+00
  5.630297E-01  2.270555E-02  3.666667E-01  5.745104E-01  1.330271E-02  1.132897E-16  1.832964E-02  1.432336E-03  2.591121E-04  3.040843E-01  0.000000E+00
  5.927917E-01  2.489081E-02  3.666667E-01  6.048802E-01  1.553259E-02  0.000000E+00  1.794050E-02  1.274763E-03  2.704400E-04  3.093296E-01  0.000000E+00
  6.219828E-01  2.689225E-02  3.666667E-01  6.346675E-01  1.757491E-02  5.664485E-17  1.738638E-02  1.160988E-03  2.815912E-04  3.191668E-01  0.000000E+00
  6.504533E-01  2.873929E-02  3.666667E-01  6.637194E-01  1.945967E-02 -1.132897E-16  1.669925E-02  1.026620E-03  2.920173E-04  3.341235E-01  0.000000E+00
  6.780742E-01  3.033920E-02  3.666667E-01  6.919044E-01  2.109226E-02  3.092809E-14  1.601295E-02  8.358178E-04  3.019090E-04  3.521572E-01  0.000000E+00
  7.047326E-01  3.157095E-02  3.666667E-01  7.191073E-01  2.234916E-02 -5.664485E-17  1.546497E-02  5.964383E-04  3.116887E-04  3.690434E-01  0.000000E+00
  1.215943E-04  9.331310E-03  3.666667E-01  1.060952E-04 -3.446739E-04 -2.265794E-16 -4.425941E-02  7.898507E-02  2.218125E-04  7.572593E-01  0.000000E+00
  4.902502E-03  3.663123E-03  3.666667E-01  4.984642E-03 -6.128621E-03  5.664485E-17 -1.599505E-02  1.883279E-02  1.784595E-04  9.355824E-01  0.000000E+00
  1.254908E-02  2.221408E-05  3.666667E-01  1.278739E-02 -9.843888E-03  2.265794E-16  8.335901E-03 -2.240326E-03  1.359705E-04  5.381436E-01  0.000000E+00
  2.163699E-02 -2.366300E-03  3.666667E-01  2.206090E-02 -1.228118E-02  5.664485E-17  2.191638E-02 -4.523414E-03  1.182782E-04  3.373159E-01  0.000000E+00
  3.184423E-02 -4.043138E-03  3.666667E-01  3.247660E-02 -1.399227E-02  0.000000E+00  2.762469E-02 -3.629743E-03  1.175027E-04  3.042345E-01  0.000000E+00
  4.311596E-02 -5.218553E-03  3.666667E-01  4.397853E-02 -1.519169E-02 -1.132897E-16  2.982218E-02 -2.403936E-03  1.207640E-04  2.695015E-01  0.000000E+00
  5.546913E-02 -5.935845E-03  3.666667E-01  5.658398E-02 -1.592363E-02 -5.664485E-17  3.049086E-02 -1.424003E-03  1.246215E-04  2.372536E-01  0.000000E+00
  6.891473E-02 -6.408857E-03  3.666667E-01  7.030418E-02 -1.640630E-02  1.699345E-16  3.072775E-02 -8.891746E-04  1.287726E-04  2.255497E-01  0.000000E+00
  8.348882E-02 -6.744418E-03  3.666667E-01  8.517592E-02 -1.674871E-02  2.832242E-16  3.085136E-02 -5.384694E-04  1.327515E-04  2.137841E-01  0.000000E+00
  9.923792E-02 -6.936687E-03  3.666667E-01  1.012467E-01 -1.694491E-02 -1.132897E-16  3.081855E-02 -1.791740E-04  1.365647E-04  1.951368E-01  0.000000E+00
  1.162051E-01 -6.928254E-03  3.666667E-01  1.185603E-01 -1.693630E-02  5.664485E-17  3.059158E-02  1.890282E-04  1.404853E-04  1.785318E-01  0.000000E+00
  1.344203E-01 -6.712029E-03  3.666667E-01  1.371475E-01 -1.671566E-02  0.000000E+00  3.019400E-02  5.106229E-04  1.445742E-04  1.694720E-01  0.000000E+00
  1.539027E-01 -6.285747E-03  3.666667E-01  1.570279E-01 -1.628068E-02  3.064486E-14  2.964627E-02  7.866249E-04  1.486943E-04  1.646942E-01  0.000000E+00
  1.746592E-01 -5.639344E-03  3.666667E-01  1.782082E-01 -1.562107E-02  3.109802E-14  2.902490E-02  1.003723E-03  1.529062E-04  1.630202E-01  0.000000E+00
  1.966815E-01 -4.802689E-03  3.666667E-01  2.006803E-01 -1.476733E-02 -1.132897E-16  2.846303E-02  1.145825E-03  1.574037E-04  1.644578E-01  0.000000E+00
  2.199461E-01 -3.815642E-03  3.666667E-01  2.244201E-01 -1.376012E-02 -1.699345E-16  2.809335E-02  1.224274E-03  1.623874E-04  1.665635E-01  0.000000E+00
  2.444131E-01 -2.724223E-03  3.666667E-01  2.493867E-01 -1.264641E-02  3.092809E-14  2.802745E-02  1.243248E-03  1.681804E-04  1.675553E-01  0.000000E+00
  7.047326E-01  3.157095E-02  3.666667E-01  7.191073E-01  2.234916E-02 -5.664485E-17  1.546497E-02  5.964383E-04  3.116887E-04  3.690434E-01  0.000000E+00