 Title= "ADflow Lift Distribution Data"
Variables = "eta" "CoordinateX" "CoordinateY" "CoordinateZ" "Lift" "Drag" "Moment" "Normalized Lift" "Normalized Drag" "Normalized Moment" "CL" "CD" "CM" "CLp" "CDp" "CMp" "CLv" "CDv" "CMv" "Elliptical" "thickness" "twist" "chord" "fx" "fy" "fz" 
Zone T= "LiftDist_01 allWalls: : z normal"
 I=          150
 DATAPACKING=BLOCK
  0.000000E+00
  6.711405E-03
  1.342281E-02
  2.013422E-02
  2.684563E-02
  3.355704E-02
  4.026845E-02
  4.697986E-02
  5.369127E-02
  6.040268E-02
  6.711409E-02
  7.382550E-02
  8.053691E-02
  8.724832E-02
  9.395973E-02
  1.006711E-01
  1.073825E-01
  1.140940E-01
  1.208054E-01
  1.275168E-01
  1.342282E-01
  1.409396E-01
  1.476510E-01
  1.543624E-01
  1.610738E-01
  1.677852E-01
  1.744966E-01
  1.812081E-01
  1.879195E-01
  1.946309E-01
  2.013423E-01
  2.080537E-01
  2.147651E-01
  2.214765E-01
  2.281879E-01
  2.348993E-01
  2.416107E-01
  2.483221E-01
  2.550336E-01
  2.617450E-01
  2.684564E-01
  2.751678E-01
  2.818792E-01
  2.885906E-01
  2.953020E-01
  3.020134E-01
  3.087248E-01
  3.154362E-01
  3.221476E-01
  3.288591E-01
  3.355705E-01
  3.422819E-01
  3.489933E-01
  3.557047E-01
  3.624161E-01
  3.691275E-01
  3.758389E-01
  3.825503E-01
  3.892617E-01
  3.959732E-01
  4.026846E-01
  4.093960E-01
  4.161074E-01
  4.228188E-01
  4.295302E-01
  4.362416E-01
  4.429530E-01
  4.496644E-01
  4.563758E-01
  4.630872E-01
  4.697987E-01
  4.765101E-01
  4.832215E-01
  4.899329E-01
  4.966443E-01
  5.033557E-01
  5.100671E-01
  5.167785E-01
  5.234899E-01
  5.302013E-01
  5.369128E-01
  5.436242E-01
  5.503356E-01
  5.570470E-01
  5.637584E-01
  5.704698E-01
  5.771812E-01
  5.838926E-01
  5.906040E-01
  5.973154E-01
  6.040268E-01
  6.107383E-01
  6.174497E-01
  6.241611E-01
  6.308725E-01
  6.375839E-01
  6.442953E-01
  6.510067E-01
  6.577181E-01
  6.644295E-01
  6.711409E-01
  6.778524E-01
  6.845638E-01
  6.912752E-01
  6.979866E-01
  7.046980E-01
  7.114094E-01
  7.181208E-01
  7.248322E-01
  7.315436E-01
  7.382550E-01
  7.449664E-01
  7.516779E-01
  7.583893E-01
  7.651007E-01
  7.718121E-01
  7.785235E-01
  7.852349E-01
  7.919463E-01
  7.986577E-01
  8.053691E-01
  8.120805E-01
  8.187919E-01
  8.255034E-01
  8.322148E-01
  8.389262E-01
  8.456376E-01
  8.523490E-01
  8.590604E-01
  8.657718E-01
  8.724832E-01
  8.791946E-01
  8.859060E-01
  8.926175E-01
  8.993289E-01
  9.060403E-01
  9.127517E-01
  9.194631E-01
  9.261745E-01
  9.328859E-01
  9.395973E-01
  9.463087E-01
  9.530201E-01
  9.597315E-01
  9.664430E-01
  9.731544E-01
  9.798658E-01
  9.865772E-01
  9.932886E-01
  1.000000E+00
  0.000000E+00
  0.000000E+00
  0.000000E+00
  0.000000E+00
  0.000000E+00
  0.000000E+00
  0.000000E+00
  0.000000E+00
  0.000000E+00
  0.000000E+00
  0.000000E+00
  0.000000E+00
  0.000000E+00
  0.000000E+00
  0.000000E+00
  0.000000E+00
  0.000000E+00
  0.000000E+00
  0.000000E+00
  0.000000E+00
  0.000000E+00
  0.000000E+00
  0.000000E+00
  0.000000E+00
  0.000000E+00
  0.000000E+00
  0.000000E+00
  0.000000E+00
  0.000000E+00
  0.000000E+00
  0.000000E+00
  0.000000E+00
  0.000000E+00
  0.000000E+00
  0.000000E+00
  0.000000E+00
  0.000000E+00
  0.000000E+00
  0.000000E+00
  0.000000E+00
  0.000000E+00
  0.000000E+00
  0.000000E+00
  0.000000E+00
  0.000000E+00
  0.000000E+00
  0.000000E+00
  0.000000E+00
  0.000000E+00
  0.000000E+00
  0.000000E+00
  0.000000E+00
  0.000000E+00
  0.000000E+00
  0.000000E+00
  0.000000E+00
  0.000000E+00
  0.000000E+00
  0.000000E+00
  0.000000E+00
  0.000000E+00
  0.000000E+00
  0.000000E+00
  0.000000E+00
  0.000000E+00
  0.000000E+00
  0.000000E+00
  0.000000E+00
  0.000000E+00
  0.000000E+00
  0.000000E+00
  0.000000E+00
  0.000000E+00
  0.000000E+00
  0.000000E+00
  0.000000E+00
  0.000000E+00
  0.000000E+00
  0.000000E+00
  0.000000E+00
  0.000000E+00
  0.000000E+00
  0.000000E+00
  0.000000E+00
  0.000000E+00
  0.000000E+00
  0.000000E+00
  0.000000E+00
  0.000000E+00
  0.000000E+00
  0.000000E+00
  0.000000E+00
  0.000000E+00
  0.000000E+00
  0.000000E+00
  0.000000E+00
  0.000000E+00
  0.000000E+00
  0.000000E+00
  0.000000E+00
  0.000000E+00
  0.000000E+00
  0.000000E+00
  0.000000E+00
  0.000000E+00
  0.000000E+00
  0.000000E+00
  0.000000E+00
  0.000000E+00
  0.000000E+00
  0.000000E+00
  0.000000E+00
  0.000000E+00
  0.000000E+00
  0.000000E+00
  0.000000E+00
  0.000000E+00
  0.000000E+00
  0.000000E+00
  0.000000E+00
  0.000000E+00
  0.000000E+00
  0.000000E+00
  0.000000E+00
  0.000000E+00
  0.000000E+00
  0.000000E+00
  0.000000E+00
  0.000000E+00
  0.000000E+00
  0.000000E+00
  0.000000E+00
  0.000000E+00
  0.000000E+00
  0.000000E+00
  0.000000E+00
  0.000000E+00
  0.000000E+00
  0.000000E+00
  0.000000E+00
  0.000000E+00
  0.000000E+00
  0.000000E+00
  0.000000E+00
  0.000000E+00
  0.000000E+00
  0.000000E+00
  0.000000E+00
  0.000000E+00
  0.000000E+00
  0.000000E+00
  0.000000E+00
  0.000000E+00
  0.000000E+00
  0.000000E+00
  0.000000E+00
  0.000000E+00
  0.000000E+00
  0.000000E+00
  0.000000E+00
  0.000000E+00
  0.000000E+00
  0.000000E+00
  0.000000E+00
  0.000000E+00
  0.000000E+00
  0.000000E+00
  0.000000E+00
  0.000000E+00
  0.000000E+00
  0.000000E+00
  0.000000E+00
  0.000000E+00
  0.000000E+00
  0.000000E+00
  0.000000E+00
  0.000000E+00
  0.000000E+00
  0.000000E+00
  0.000000E+00
  0.000000E+00
  0.000000E+00
  0.000000E+00
  0.000000E+00
  0.000000E+00
  0.000000E+00
  0.000000E+00
  0.000000E+00
  0.000000E+00
  0.000000E+00
  0.000000E+00
  0.000000E+00
  0.000000E+00
  0.000000E+00
  0.000000E+00
  0.000000E+00
  0.000000E+00
  0.000000E+00
  0.000000E+00
  0.000000E+00
  0.000000E+00
  0.000000E+00
  0.000000E+00
  0.000000E+00
  0.000000E+00
  0.000000E+00
  0.000000E+00
  0.000000E+00
  0.000000E+00
  0.000000E+00
  0.000000E+00
  0.000000E+00
  0.000000E+00
  0.000000E+00
  0.000000E+00
  0.000000E+00
  0.000000E+00
  0.000000E+00
  0.000000E+00
  0.000000E+00
  0.000000E+00
  0.000000E+00
  0.000000E+00
  0.000000E+00
  0.000000E+00
  0.000000E+00
  0.000000E+00
  0.000000E+00
  0.000000E+00
  0.000000E+00
  0.000000E+00
  0.000000E+00
  0.000000E+00
  0.000000E+00
  0.000000E+00
  0.000000E+00
  0.000000E+00
  0.000000E+00
  0.000000E+00
  0.000000E+00
  0.000000E+00
  0.000000E+00
  0.000000E+00
  0.000000E+00
  0.000000E+00
  0.000000E+00
  0.000000E+00
  0.000000E+00
  0.000000E+00
  0.000000E+00
  0.000000E+00
  0.000000E+00
  0.000000E+00
  0.000000E+00
  0.000000E+00
  0.000000E+00
  0.000000E+00
  0.000000E+00
  0.000000E+00
  0.000000E+00
  0.000000E+00
  0.000000E+00
  0.000000E+00
  0.000000E+00
  0.000000E+00
  0.000000E+00
  0.000000E+00
  0.000000E+00
  0.000000E+00
  0.000000E+00
  0.000000E+00
  0.000000E+00
  0.000000E+00
  0.000000E+00
  0.000000E+00
  0.000000E+00
  0.000000E+00
  0.000000E+00
  0.000000E+00
  0.000000E+00
  0.000000E+00
  0.000000E+00
  0.000000E+00
  0.000000E+00
  0.000000E+00
  0.000000E+00
  0.000000E+00
  0.000000E+00
  0.000000E+00
  0.000000E+00
  0.000000E+00
  0.000000E+00
  0.000000E+00
  0.000000E+00
  0.000000E+00
  0.000000E+00
  0.000000E+00
  0.000000E+00
  0.000000E+00
  0.000000E+00
  1.000000E-08
  1.695085E-02
  3.390169E-02
  5.085254E-02
  6.780338E-02
  8.475423E-02
  1.017051E-01
  1.186559E-01
  1.356068E-01
  1.525576E-01
  1.695085E-01
  1.864593E-01
  2.034101E-01
  2.203610E-01
  2.373118E-01
  2.542627E-01
  2.712135E-01
  2.881644E-01
  3.051152E-01
  3.220661E-01
  3.390169E-01
  3.559678E-01
  3.729186E-01
  3.898694E-01
  4.068203E-01
  4.237711E-01
  4.407220E-01
  4.576728E-01
  4.746237E-01
  4.915745E-01
  5.085254E-01
  5.254762E-01
  5.424271E-01
  5.593779E-01
  5.763287E-01
  5.932796E-01
  6.102304E-01
  6.271813E-01
  6.441321E-01
  6.610830E-01
  6.780338E-01
  6.949847E-01
  7.119355E-01
  7.288864E-01
  7.458372E-01
  7.627880E-01
  7.797389E-01
  7.966897E-01
  8.136406E-01
  8.305914E-01
  8.475423E-01
  8.644931E-01
  8.814440E-01
  8.983948E-01
  9.153457E-01
  9.322965E-01
  9.492473E-01
  9.661982E-01
  9.831490E-01
  1.000100E+00
  1.017051E+00
  1.034002E+00
  1.050952E+00
  1.067903E+00
  1.084854E+00
  1.101805E+00
  1.118756E+00
  1.135707E+00
  1.152657E+00
  1.169608E+00
  1.186559E+00
  1.203510E+00
  1.220461E+00
  1.237412E+00
  1.254363E+00
  1.271313E+00
  1.288264E+00
  1.305215E+00
  1.322166E+00
  1.339117E+00
  1.356068E+00
  1.373018E+00
  1.389969E+00
  1.406920E+00
  1.423871E+00
  1.440822E+00
  1.457773E+00
  1.474724E+00
  1.491674E+00
  1.508625E+00
  1.525576E+00
  1.542527E+00
  1.559478E+00
  1.576429E+00
  1.593379E+00
  1.610330E+00
  1.627281E+00
  1.644232E+00
  1.661183E+00
  1.678134E+00
  1.695085E+00
  1.712035E+00
  1.728986E+00
  1.745937E+00
  1.762888E+00
  1.779839E+00
  1.796790E+00
  1.813740E+00
  1.830691E+00
  1.847642E+00
  1.864593E+00
  1.881544E+00
  1.898495E+00
  1.915446E+00
  1.932396E+00
  1.949347E+00
  1.966298E+00
  1.983249E+00
  2.000200E+00
  2.017151E+00
  2.034101E+00
  2.051052E+00
  2.068003E+00
  2.084954E+00
  2.101905E+00
  2.118856E+00
  2.135807E+00
  2.152757E+00
  2.169708E+00
  2.186659E+00
  2.203610E+00
  2.220561E+00
  2.237512E+00
  2.254462E+00
  2.271413E+00
  2.288364E+00
  2.305315E+00
  2.322266E+00
  2.339217E+00
  2.356168E+00
  2.373118E+00
  2.390069E+00
  2.407020E+00
  2.423971E+00
  2.440922E+00
  2.457873E+00
  2.474823E+00
  2.491774E+00
  2.508725E+00
  2.525676E+00
  1.106465E+04
  1.106277E+04
  1.106089E+04
  1.105901E+04
  1.105713E+04
  1.105525E+04
  1.105337E+04
  1.105149E+04
  1.104961E+04
  1.104405E+04
  1.103840E+04
  1.103276E+04
  1.102711E+04
  1.102146E+04
  1.101581E+04
  1.101017E+04
  1.100333E+04
  1.099431E+04
  1.098529E+04
  1.097626E+04
  1.096724E+04
  1.095822E+04
  1.094920E+04
  1.093983E+04
  1.092765E+04
  1.091547E+04
  1.090329E+04
  1.089111E+04
  1.087893E+04
  1.086675E+04
  1.085380E+04
  1.083829E+04
  1.082278E+04
  1.080727E+04
  1.079177E+04
  1.077626E+04
  1.076075E+04
  1.074288E+04
  1.072398E+04
  1.070507E+04
  1.068617E+04
  1.066727E+04
  1.064837E+04
  1.062786E+04
  1.060565E+04
  1.058344E+04
  1.056123E+04
  1.053902E+04
  1.051681E+04
  1.049266E+04
  1.046715E+04
  1.044164E+04
  1.041613E+04
  1.039062E+04
  1.036512E+04
  1.033633E+04
  1.030749E+04
  1.027866E+04
  1.024983E+04
  1.022100E+04
  1.019001E+04
  1.015792E+04
  1.012583E+04
  1.009374E+04
  1.006166E+04
  1.002758E+04
  9.992201E+03
  9.956822E+03
  9.921447E+03
  9.886074E+03
  9.847871E+03
  9.808960E+03
  9.770052E+03
  9.731147E+03
  9.691366E+03
  9.648734E+03
  9.606104E+03
  9.563476E+03
  9.520850E+03
  9.474813E+03
  9.428396E+03
  9.381981E+03
  9.335566E+03
  9.286203E+03
  9.236010E+03
  9.185818E+03
  9.135628E+03
  9.082465E+03
  9.028848E+03
  8.975234E+03
  8.921193E+03
  8.864718E+03
  8.808248E+03
  8.751784E+03
  8.693714E+03
  8.634658E+03
  8.575614E+03
  8.515914E+03
  8.454358E+03
  8.392828E+03
  8.331150E+03
  8.267394E+03
  8.203677E+03
  8.139877E+03
  8.073736E+03
  8.007639E+03
  7.941024E+03
  7.871726E+03
  7.802472E+03
  7.731525E+03
  7.658393E+03
  7.585301E+03
  7.508617E+03
  7.431285E+03
  7.352324E+03
  7.270631E+03
  7.188818E+03
  7.102779E+03
  7.016760E+03
  6.927285E+03
  6.836996E+03
  6.743787E+03
  6.649289E+03
  6.551946E+03
  6.453293E+03
  6.351550E+03
  6.248920E+03
  6.142743E+03
  6.035632E+03
  5.925982E+03
  5.814498E+03
  5.701670E+03
  5.586140E+03
  5.469004E+03
  5.350166E+03
  5.228884E+03
  5.104968E+03
  4.978746E+03
  4.850398E+03
  4.721211E+03
  4.595489E+03
  4.483586E+03
  4.403228E+03
  4.389684E+03
  4.480059E+03
  4.443025E+03
  4.002590E+03
  4.499275E+03
  1.342716E+03
 -1.190818E-04
  6.302302E+02
  6.301658E+02
  6.301015E+02
  6.300371E+02
  6.299727E+02
  6.299084E+02
  6.298440E+02
  6.297797E+02
  6.297154E+02
  6.295749E+02
  6.294327E+02
  6.292904E+02
  6.291481E+02
  6.290059E+02
  6.288636E+02
  6.287214E+02
  6.285794E+02
  6.284380E+02
  6.282965E+02
  6.281551E+02
  6.280137E+02
  6.278722E+02
  6.277308E+02
  6.275864E+02
  6.274187E+02
  6.272510E+02
  6.270832E+02
  6.269155E+02
  6.267477E+02
  6.265799E+02
  6.263911E+02
  6.261323E+02
  6.258734E+02
  6.256145E+02
  6.253556E+02
  6.250967E+02
  6.248377E+02
  6.245070E+02
  6.241447E+02
  6.237824E+02
  6.234200E+02
  6.230576E+02
  6.226951E+02
  6.222700E+02
  6.217790E+02
  6.212878E+02
  6.207965E+02
  6.203052E+02
  6.198137E+02
  6.191907E+02
  6.184754E+02
  6.177600E+02
  6.170445E+02
  6.163288E+02
  6.156130E+02
  6.145824E+02
  6.135466E+02
  6.125107E+02
  6.114747E+02
  6.104386E+02
  6.091961E+02
  6.078476E+02
  6.064990E+02
  6.051504E+02
  6.038016E+02
  6.023050E+02
  6.007113E+02
  5.991175E+02
  5.975235E+02
  5.959294E+02
  5.942185E+02
  5.924782E+02
  5.907375E+02
  5.889966E+02
  5.872568E+02
  5.855210E+02
  5.837849E+02
  5.820484E+02
  5.803117E+02
  5.785890E+02
  5.768678E+02
  5.751462E+02
  5.734244E+02
  5.715507E+02
  5.696340E+02
  5.677170E+02
  5.657998E+02
  5.635420E+02
  5.612320E+02
  5.589218E+02
  5.565345E+02
  5.537093E+02
  5.508849E+02
  5.480612E+02
  5.447708E+02
  5.411939E+02
  5.376200E+02
  5.338125E+02
  5.293468E+02
  5.248883E+02
  5.203896E+02
  5.153217E+02
  5.102647E+02
  5.052078E+02
  4.999529E+02
  4.947097E+02
  4.894857E+02
  4.843104E+02
  4.791451E+02
  4.741032E+02
  4.692148E+02
  4.643334E+02
  4.598245E+02
  4.553881E+02
  4.511588E+02
  4.472691E+02
  4.433996E+02
  4.401085E+02
  4.368155E+02
  4.340300E+02
  4.313631E+02
  4.291116E+02
  4.270424E+02
  4.253363E+02
  4.237974E+02
  4.226432E+02
  4.216013E+02
  4.210455E+02
  4.206436E+02
  4.206622E+02
  4.210637E+02
  4.217603E+02
  4.231634E+02
  4.250836E+02
  4.275751E+02
  4.309531E+02
  4.354112E+02
  4.410191E+02
  4.481751E+02
  4.576102E+02
  4.707932E+02
  4.905574E+02
  5.215400E+02
  5.719015E+02
  6.495956E+02
  7.179525E+02
  7.307364E+02
  8.824825E+02
  2.120338E+02
  3.888809E-04
  1.807275E+03
  1.806644E+03
  1.806013E+03
  1.805382E+03
  1.804751E+03
  1.804120E+03
  1.803489E+03
  1.802858E+03
  1.802228E+03
  1.800679E+03
  1.799109E+03
  1.797538E+03
  1.795967E+03
  1.794396E+03
  1.792825E+03
  1.791254E+03
  1.789501E+03
  1.787411E+03
  1.785322E+03
  1.783232E+03
  1.781143E+03
  1.779053E+03
  1.776964E+03
  1.774808E+03
  1.772118E+03
  1.769429E+03
  1.766739E+03
  1.764050E+03
  1.761360E+03
  1.758671E+03
  1.755821E+03
  1.752438E+03
  1.749056E+03
  1.745673E+03
  1.742291E+03
  1.738908E+03
  1.735526E+03
  1.731677E+03
  1.727623E+03
  1.723570E+03
  1.719517E+03
  1.715464E+03
  1.711411E+03
  1.707069E+03
  1.702422E+03
  1.697775E+03
  1.693128E+03
  1.688482E+03
  1.683836E+03
  1.678893E+03
  1.673741E+03
  1.668590E+03
  1.663440E+03
  1.658290E+03
  1.653140E+03
  1.647613E+03
  1.642080E+03
  1.636548E+03
  1.631017E+03
  1.625486E+03
  1.619772E+03
  1.613966E+03
  1.608160E+03
  1.602355E+03
  1.596551E+03
  1.590554E+03
  1.584432E+03
  1.578311E+03
  1.572190E+03
  1.566071E+03
  1.559647E+03
  1.553147E+03
  1.546648E+03
  1.540150E+03
  1.533603E+03
  1.526892E+03
  1.520181E+03
  1.513471E+03
  1.506762E+03
  1.499966E+03
  1.493161E+03
  1.486356E+03
  1.479552E+03
  1.472560E+03
  1.465516E+03
  1.458472E+03
  1.451429E+03
  1.444256E+03
  1.437064E+03
  1.429873E+03
  1.422712E+03
  1.415721E+03
  1.408732E+03
  1.401744E+03
  1.394837E+03
  1.387982E+03
  1.381132E+03
  1.374205E+03
  1.367054E+03
  1.359915E+03
  1.352754E+03
  1.345207E+03
  1.337679E+03
  1.330142E+03
  1.322126E+03
  1.314132E+03
  1.305983E+03
  1.297009E+03
  1.288056E+03
  1.278463E+03
  1.268042E+03
  1.257639E+03
  1.245798E+03
  1.233698E+03
  1.220941E+03
  1.207077E+03
  1.193165E+03
  1.177561E+03
  1.161962E+03
  1.145084E+03
  1.127903E+03
  1.109833E+03
  1.091368E+03
  1.072256E+03
  1.052847E+03
  1.032986E+03
  1.012998E+03
  9.928422E+02
  9.727475E+02
  9.528560E+02
  9.333897E+02
  9.142596E+02
  8.961632E+02
  8.788704E+02
  8.624559E+02
  8.473959E+02
  8.338968E+02
  8.220179E+02
  8.124059E+02
  8.064775E+02
  8.075159E+02
  8.226141E+02
  8.636815E+02
  9.491639E+02
  1.093333E+03
  1.203433E+03
  1.135539E+03
  1.287066E+03
  2.061854E+02
 -8.799204E-11
  1.245081E+00
  1.244869E+00
  1.244658E+00
  1.244446E+00
  1.244235E+00
  1.244023E+00
  1.243812E+00
  1.243600E+00
  1.243388E+00
  1.242763E+00
  1.242128E+00
  1.241492E+00
  1.240857E+00
  1.240221E+00
  1.239586E+00
  1.238950E+00
  1.238181E+00
  1.237166E+00
  1.236150E+00
  1.235135E+00
  1.234120E+00
  1.233105E+00
  1.232090E+00
  1.231036E+00
  1.229665E+00
  1.228294E+00
  1.226924E+00
  1.225553E+00
  1.224183E+00
  1.222812E+00
  1.221355E+00
  1.219610E+00
  1.217865E+00
  1.216119E+00
  1.214374E+00
  1.212629E+00
  1.210884E+00
  1.208873E+00
  1.206746E+00
  1.204619E+00
  1.202492E+00
  1.200365E+00
  1.198238E+00
  1.195930E+00
  1.193431E+00
  1.190932E+00
  1.188432E+00
  1.185933E+00
  1.183434E+00
  1.180717E+00
  1.177846E+00
  1.174975E+00
  1.172105E+00
  1.169234E+00
  1.166364E+00
  1.163125E+00
  1.159880E+00
  1.156635E+00
  1.153391E+00
  1.150147E+00
  1.146660E+00
  1.143048E+00
  1.139438E+00
  1.135827E+00
  1.132217E+00
  1.128382E+00
  1.124401E+00
  1.120420E+00
  1.116439E+00
  1.112459E+00
  1.108160E+00
  1.103781E+00
  1.099403E+00
  1.095025E+00
  1.090549E+00
  1.085751E+00
  1.080954E+00
  1.076157E+00
  1.071361E+00
  1.066180E+00
  1.060957E+00
  1.055734E+00
  1.050511E+00
  1.044956E+00
  1.039308E+00
  1.033660E+00
  1.028012E+00
  1.022030E+00
  1.015997E+00
  1.009964E+00
  1.003883E+00
  9.975276E-01
  9.911732E-01
  9.848194E-01
  9.782849E-01
  9.716394E-01
  9.649953E-01
  9.582774E-01
  9.513507E-01
  9.444268E-01
  9.374863E-01
  9.303120E-01
  9.231420E-01
  9.159628E-01
  9.085201E-01
  9.010824E-01
  8.935863E-01
  8.857883E-01
  8.779954E-01
  8.700119E-01
  8.617825E-01
  8.535575E-01
  8.449284E-01
  8.362265E-01
  8.273412E-01
  8.181484E-01
  8.089421E-01
  7.992604E-01
  7.895809E-01
  7.795125E-01
  7.693524E-01
  7.588638E-01
  7.482301E-01
  7.372763E-01
  7.261752E-01
  7.147263E-01
  7.031774E-01
  6.912296E-01
  6.791767E-01
  6.668380E-01
  6.542929E-01
  6.415966E-01
  6.285963E-01
  6.154152E-01
  6.020427E-01
  5.883950E-01
  5.744510E-01
  5.602476E-01
  5.458049E-01
  5.312677E-01
  5.171205E-01
  5.045282E-01
  4.954858E-01
  4.939617E-01
  5.041313E-01
  4.999641E-01
  4.504028E-01
  5.062937E-01
  1.510930E-01
 -1.340002E-08
  1.125233E+00
  1.125118E+00
  1.125003E+00
  1.124888E+00
  1.124773E+00
  1.124659E+00
  1.124544E+00
  1.124429E+00
  1.124314E+00
  1.124063E+00
  1.123809E+00
  1.123555E+00
  1.123301E+00
  1.123047E+00
  1.122793E+00
  1.122539E+00
  1.122286E+00
  1.122033E+00
  1.121781E+00
  1.121528E+00
  1.121276E+00
  1.121023E+00
  1.120771E+00
  1.120513E+00
  1.120213E+00
  1.119914E+00
  1.119614E+00
  1.119315E+00
  1.119015E+00
  1.118716E+00
  1.118379E+00
  1.117917E+00
  1.117454E+00
  1.116992E+00
  1.116530E+00
  1.116068E+00
  1.115605E+00
  1.115015E+00
  1.114368E+00
  1.113721E+00
  1.113074E+00
  1.112427E+00
  1.111780E+00
  1.111021E+00
  1.110144E+00
  1.109267E+00
  1.108390E+00
  1.107513E+00
  1.106635E+00
  1.105523E+00
  1.104246E+00
  1.102969E+00
  1.101691E+00
  1.100413E+00
  1.099135E+00
  1.097295E+00
  1.095446E+00
  1.093596E+00
  1.091747E+00
  1.089897E+00
  1.087678E+00
  1.085271E+00
  1.082863E+00
  1.080455E+00
  1.078047E+00
  1.075375E+00
  1.072529E+00
  1.069684E+00
  1.066838E+00
  1.063991E+00
  1.060937E+00
  1.057829E+00
  1.054722E+00
  1.051613E+00
  1.048507E+00
  1.045408E+00
  1.042308E+00
  1.039208E+00
  1.036107E+00
  1.033031E+00
  1.029958E+00
  1.026885E+00
  1.023810E+00
  1.020465E+00
  1.017043E+00
  1.013620E+00
  1.010197E+00
  1.006166E+00
  1.002042E+00
  9.979168E-01
  9.936544E-01
  9.886104E-01
  9.835675E-01
  9.785260E-01
  9.726512E-01
  9.662650E-01
  9.598840E-01
  9.530858E-01
  9.451128E-01
  9.371524E-01
  9.291202E-01
  9.200719E-01
  9.110429E-01
  9.020141E-01
  8.926319E-01
  8.832706E-01
  8.739435E-01
  8.647033E-01
  8.554810E-01
  8.464791E-01
  8.377511E-01
  8.290357E-01
  8.209854E-01
  8.130645E-01
  8.055134E-01
  7.985686E-01
  7.916599E-01
  7.857838E-01
  7.799043E-01
  7.749310E-01
  7.701695E-01
  7.661496E-01
  7.624552E-01
  7.594091E-01
  7.566615E-01
  7.546007E-01
  7.527404E-01
  7.517481E-01
  7.510306E-01
  7.510638E-01
  7.517805E-01
  7.530243E-01
  7.555295E-01
  7.589579E-01
  7.634063E-01
  7.694375E-01
  7.773970E-01
  7.874097E-01
  8.001862E-01
  8.170318E-01
  8.405692E-01
  8.758569E-01
  9.311742E-01
  1.021091E+00
  1.159809E+00
  1.281855E+00
  1.304680E+00
  1.575613E+00
  3.785719E-01
  6.943204E-07
  1.246090E+00
  1.245655E+00
  1.245220E+00
  1.244784E+00
  1.244349E+00
  1.243914E+00
  1.243479E+00
  1.243045E+00
  1.242610E+00
  1.241542E+00
  1.240459E+00
  1.239376E+00
  1.238293E+00
  1.237210E+00
  1.236127E+00
  1.235044E+00
  1.233835E+00
  1.232394E+00
  1.230953E+00
  1.229513E+00
  1.228072E+00
  1.226631E+00
  1.225191E+00
  1.223704E+00
  1.221850E+00
  1.219995E+00
  1.218141E+00
  1.216286E+00
  1.214432E+00
  1.212578E+00
  1.210613E+00
  1.208281E+00
  1.205948E+00
  1.203616E+00
  1.201284E+00
  1.198952E+00
  1.196620E+00
  1.193966E+00
  1.191171E+00
  1.188376E+00
  1.185582E+00
  1.182787E+00
  1.179993E+00
  1.176999E+00
  1.173795E+00
  1.170591E+00
  1.167387E+00
  1.164184E+00
  1.160980E+00
  1.157572E+00
  1.154020E+00
  1.150469E+00
  1.146917E+00
  1.143367E+00
  1.139816E+00
  1.136005E+00
  1.132190E+00
  1.128376E+00
  1.124562E+00
  1.120749E+00
  1.116809E+00
  1.112806E+00
  1.108803E+00
  1.104800E+00
  1.100798E+00
  1.096664E+00
  1.092443E+00
  1.088222E+00
  1.084002E+00
  1.079783E+00
  1.075354E+00
  1.070872E+00
  1.066391E+00
  1.061911E+00
  1.057397E+00
  1.052769E+00
  1.048143E+00
  1.043516E+00
  1.038890E+00
  1.034205E+00
  1.029513E+00
  1.024821E+00
  1.020129E+00
  1.015309E+00
  1.010452E+00
  1.005595E+00
  1.000739E+00
  9.957933E-01
  9.908346E-01
  9.858765E-01
  9.809393E-01
  9.761189E-01
  9.712998E-01
  9.664822E-01
  9.617196E-01
  9.569934E-01
  9.522705E-01
  9.474941E-01
  9.425641E-01
  9.376415E-01
  9.327038E-01
  9.275008E-01
  9.223099E-01
  9.171135E-01
  9.115867E-01
  9.060745E-01
  9.004562E-01
  8.942687E-01
  8.880958E-01
  8.814815E-01
  8.742961E-01
  8.671236E-01
  8.589593E-01
  8.506170E-01
  8.418207E-01
  8.322619E-01
  8.226700E-01
  8.119109E-01
  8.011558E-01
  7.895190E-01
  7.776728E-01
  7.652133E-01
  7.524820E-01
  7.393049E-01
  7.259224E-01
  7.122289E-01
  6.984470E-01
  6.845502E-01
  6.706952E-01
  6.569803E-01
  6.435585E-01
  6.303686E-01
  6.178914E-01
  6.059683E-01
  5.946507E-01
  5.842670E-01
  5.749597E-01
  5.667693E-01
  5.601419E-01
  5.560544E-01
  5.567704E-01
  5.671804E-01
  5.954958E-01
  6.544346E-01
  7.538369E-01
  8.297492E-01
  7.829375E-01
  8.874132E-01
  1.421618E-01
 -6.066922E-14
  9.893498E-01
  9.891817E-01
  9.890136E-01
  9.888455E-01
  9.886774E-01
  9.885093E-01
  9.883413E-01
  9.881732E-01
  9.880052E-01
  9.875083E-01
  9.870034E-01
  9.864984E-01
  9.859935E-01
  9.854886E-01
  9.849836E-01
  9.844787E-01
  9.838674E-01
  9.830608E-01
  9.822542E-01
  9.814476E-01
  9.806410E-01
  9.798345E-01
  9.790279E-01
  9.781900E-01
  9.771010E-01
  9.760120E-01
  9.749230E-01
  9.738340E-01
  9.727451E-01
  9.716562E-01
  9.704984E-01
  9.691116E-01
  9.677248E-01
  9.663381E-01
  9.649514E-01
  9.635648E-01
  9.621782E-01
  9.605804E-01
  9.588903E-01
  9.572002E-01
  9.555102E-01
  9.538202E-01
  9.521304E-01
  9.502964E-01
  9.483103E-01
  9.463244E-01
  9.443386E-01
  9.423529E-01
  9.403672E-01
  9.382078E-01
  9.359266E-01
  9.336456E-01
  9.313647E-01
  9.290840E-01
  9.268035E-01
  9.242294E-01
  9.216509E-01
  9.190726E-01
  9.164945E-01
  9.139166E-01
  9.111458E-01
  9.082763E-01
  9.054070E-01
  9.025380E-01
  8.996692E-01
  8.966222E-01
  8.934585E-01
  8.902950E-01
  8.871318E-01
  8.839688E-01
  8.805528E-01
  8.770735E-01
  8.735944E-01
  8.701156E-01
  8.665585E-01
  8.627465E-01
  8.589347E-01
  8.551231E-01
  8.513116E-01
  8.471953E-01
  8.430449E-01
  8.388946E-01
  8.347445E-01
  8.303306E-01
  8.258426E-01
  8.213547E-01
  8.168669E-01
  8.121132E-01
  8.073190E-01
  8.025250E-01
  7.976928E-01
  7.926428E-01
  7.875932E-01
  7.825441E-01
  7.773512E-01
  7.720701E-01
  7.667899E-01
  7.614508E-01
  7.559455E-01
  7.504422E-01
  7.449255E-01
  7.392224E-01
  7.335225E-01
  7.278151E-01
  7.218979E-01
  7.159844E-01
  7.100244E-01
  7.038244E-01
  6.976283E-01
  6.912809E-01
  6.847382E-01
  6.781990E-01
  6.713394E-01
  6.644220E-01
  6.573593E-01
  6.500529E-01
  6.427360E-01
  6.350425E-01
  6.273507E-01
  6.193511E-01
  6.112788E-01
  6.029463E-01
  5.944989E-01
  5.857978E-01
  5.769798E-01
  5.678861E-01
  5.587130E-01
  5.492233E-01
  5.396499E-01
  5.298496E-01
  5.198852E-01
  5.098004E-01
  4.994740E-01
  4.890035E-01
  4.783805E-01
  4.675385E-01
  4.564606E-01
  4.451760E-01
  4.337009E-01
  4.221501E-01
  4.109084E-01
  4.009016E-01
  3.937150E-01
  3.925020E-01
  4.005802E-01
  3.972656E-01
  3.578812E-01
  4.022862E-01
  1.649047E-01
 -2.590163E-03
  5.635229E-02
  5.634653E-02
  5.634077E-02
  5.633502E-02
  5.632926E-02
  5.632351E-02
  5.631776E-02
  5.631201E-02
  5.630626E-02
  5.629370E-02
  5.628098E-02
  5.626826E-02
  5.625554E-02
  5.624283E-02
  5.623011E-02
  5.621739E-02
  5.620470E-02
  5.619206E-02
  5.617941E-02
  5.616677E-02
  5.615412E-02
  5.614148E-02
  5.612884E-02
  5.611593E-02
  5.610094E-02
  5.608594E-02
  5.607095E-02
  5.605595E-02
  5.604095E-02
  5.602596E-02
  5.600907E-02
  5.598594E-02
  5.596279E-02
  5.593965E-02
  5.591650E-02
  5.589335E-02
  5.587020E-02
  5.584063E-02
  5.580824E-02
  5.577585E-02
  5.574345E-02
  5.571105E-02
  5.567864E-02
  5.564063E-02
  5.559673E-02
  5.555281E-02
  5.550889E-02
  5.546496E-02
  5.542102E-02
  5.536531E-02
  5.530136E-02
  5.523739E-02
  5.517341E-02
  5.510942E-02
  5.504542E-02
  5.495326E-02
  5.486065E-02
  5.476803E-02
  5.467539E-02
  5.458274E-02
  5.447164E-02
  5.435106E-02
  5.423048E-02
  5.410988E-02
  5.398928E-02
  5.385545E-02
  5.371295E-02
  5.357043E-02
  5.342790E-02
  5.328536E-02
  5.313238E-02
  5.297676E-02
  5.282111E-02
  5.266544E-02
  5.250987E-02
  5.235467E-02
  5.219943E-02
  5.204416E-02
  5.188886E-02
  5.173483E-02
  5.158093E-02
  5.142700E-02
  5.127304E-02
  5.110550E-02
  5.093412E-02
  5.076271E-02
  5.059128E-02
  5.038940E-02
  5.018284E-02
  4.997627E-02
  4.976280E-02
  4.951017E-02
  4.925760E-02
  4.900510E-02
  4.871086E-02
  4.839099E-02
  4.807138E-02
  4.773087E-02
  4.733149E-02
  4.693273E-02
  4.653036E-02
  4.607708E-02
  4.562475E-02
  4.517241E-02
  4.470235E-02
  4.423332E-02
  4.376600E-02
  4.330302E-02
  4.284093E-02
  4.238989E-02
  4.195257E-02
  4.151588E-02
  4.111254E-02
  4.071568E-02
  4.033737E-02
  3.998946E-02
  3.964336E-02
  3.934905E-02
  3.905456E-02
  3.880552E-02
  3.856710E-02
  3.836587E-02
  3.818096E-02
  3.802856E-02
  3.789113E-02
  3.778813E-02
  3.769517E-02
  3.764572E-02
  3.761003E-02
  3.761195E-02
  3.764810E-02
  3.771063E-02
  3.783634E-02
  3.800826E-02
  3.823126E-02
  3.853349E-02
  3.893228E-02
  3.943385E-02
  4.007381E-02
  4.091751E-02
  4.209625E-02
  4.386339E-02
  4.663355E-02
  5.113637E-02
  5.808297E-02
  6.419451E-02
  6.533691E-02
  7.890396E-02
  2.604077E-02
  8.458592E-03
  1.615982E-01
  1.615418E-01
  1.614854E-01
  1.614290E-01
  1.613725E-01
  1.613161E-01
  1.612597E-01
  1.612033E-01
  1.611469E-01
  1.610085E-01
  1.608680E-01
  1.607276E-01
  1.605871E-01
  1.604467E-01
  1.603062E-01
  1.601658E-01
  1.600090E-01
  1.598222E-01
  1.596353E-01
  1.594485E-01
  1.592617E-01
  1.590749E-01
  1.588881E-01
  1.586953E-01
  1.584548E-01
  1.582143E-01
  1.579738E-01
  1.577334E-01
  1.574929E-01
  1.572524E-01
  1.569976E-01
  1.566952E-01
  1.563927E-01
  1.560903E-01
  1.557878E-01
  1.554854E-01
  1.551830E-01
  1.548388E-01
  1.544764E-01
  1.541140E-01
  1.537516E-01
  1.533892E-01
  1.530268E-01
  1.526385E-01
  1.522230E-01
  1.518076E-01
  1.513921E-01
  1.509766E-01
  1.505612E-01
  1.501192E-01
  1.496586E-01
  1.491980E-01
  1.487375E-01
  1.482770E-01
  1.478165E-01
  1.473223E-01
  1.468276E-01
  1.463330E-01
  1.458384E-01
  1.453438E-01
  1.448329E-01
  1.443137E-01
  1.437946E-01
  1.432755E-01
  1.427565E-01
  1.422203E-01
  1.416729E-01
  1.411256E-01
  1.405783E-01
  1.400311E-01
  1.394567E-01
  1.388755E-01
  1.382944E-01
  1.377134E-01
  1.371279E-01
  1.365278E-01
  1.359278E-01
  1.353278E-01
  1.347279E-01
  1.341202E-01
  1.335118E-01
  1.329033E-01
  1.322949E-01
  1.316697E-01
  1.310399E-01
  1.304100E-01
  1.297802E-01
  1.291389E-01
  1.284958E-01
  1.278528E-01
  1.272125E-01
  1.265873E-01
  1.259623E-01
  1.253375E-01
  1.247198E-01
  1.241068E-01
  1.234942E-01
  1.228746E-01
  1.222350E-01
  1.215964E-01
  1.209558E-01
  1.202806E-01
  1.196070E-01
  1.189327E-01
  1.182154E-01
  1.175000E-01
  1.167708E-01
  1.159678E-01
  1.151666E-01
  1.143082E-01
  1.133758E-01
  1.124450E-01
  1.113858E-01
  1.103034E-01
  1.091623E-01
  1.079224E-01
  1.066782E-01
  1.052829E-01
  1.038881E-01
  1.023791E-01
  1.008430E-01
  9.922755E-02
  9.757688E-02
  9.586851E-02
  9.413354E-02
  9.235832E-02
  9.057164E-02
  8.877012E-02
  8.697401E-02
  8.519608E-02
  8.345613E-02
  8.174622E-02
  8.012870E-02
  7.858299E-02
  7.711574E-02
  7.576955E-02
  7.456287E-02
  7.350097E-02
  7.264169E-02
  7.211171E-02
  7.220451E-02
  7.355437E-02
  7.722616E-02
  8.486914E-02
  9.775931E-02
  1.076029E-01
  1.015313E-01
  1.150783E-01
  2.532250E-02
 -1.913925E-09
  9.894798E-01
  9.893118E-01
  9.891438E-01
  9.889757E-01
  9.888077E-01
  9.886397E-01
  9.884717E-01
  9.883037E-01
  9.881357E-01
  9.876391E-01
  9.871343E-01
  9.866296E-01
  9.861249E-01
  9.856201E-01
  9.851154E-01
  9.846107E-01
  9.839996E-01
  9.831933E-01
  9.823870E-01
  9.815807E-01
  9.807745E-01
  9.799682E-01
  9.791620E-01
  9.783245E-01
  9.772359E-01