 Title= "ADflow Lift Distribution Data"
Variables = "eta" "CoordinateX" "CoordinateY" "CoordinateZ" "Lift" "Drag" "Moment" "Normalized Lift" "Normalized Drag" "Normalized Moment" "CL" "CD" "CM" "CLp" "CDp" "CMp" "CLv" "CDv" "CMv" "Elliptical" "thickness" "twist" "chord" "fx" "fy" "fz" 
Zone T= "LiftDist_01 allWalls: : z normal"
 I=          150
 DATAPACKING=BLOCK
  0.000000E+00
  6.711405E-03
  1.342281E-02
  2.013422E-02
  2.684563E-02
  3.355704E-02
  4.026845E-02
  4.697986E-02
  5.369127E-02
  6.040268E-02
  6.711409E-02
  7.382550E-02
  8.053691E-02
  8.724832E-02
  9.395973E-02
  1.006711E-01
  1.073825E-01
  1.140940E-01
  1.208054E-01
  1.275168E-01
  1.342282E-01
  1.409396E-01
  1.476510E-01
  1.543624E-01
  1.610738E-01
  1.677852E-01
  1.744966E-01
  1.812081E-01
  1.879195E-01
  1.946309E-01
  2.013423E-01
  2.080537E-01
  2.147651E-01
  2.214765E-01
  2.281879E-01
  2.348993E-01
  2.416107E-01
  2.483221E-01
  2.550336E-01
  2.617450E-01
  2.684564E-01
  2.751678E-01
  2.818792E-01
  2.885906E-01
  2.953020E-01
  3.020134E-01
  3.087248E-01
  3.154362E-01
  3.221476E-01
  3.288591E-01
  3.355705E-01
  3.422819E-01
  3.489933E-01
  3.557047E-01
  3.624161E-01
  3.691275E-01
  3.758389E-01
  3.825503E-01
  3.892617E-01
  3.959732E-01
  4.026846E-01
  4.093960E-01
  4.161074E-01
  4.228188E-01
  4.295302E-01
  4.362416E-01
  4.429530E-01
  4.496644E-01
  4.563758E-01
  4.630872E-01
  4.697987E-01
  4.765101E-01
  4.832215E-01
  4.899329E-01
  4.966443E-01
  5.033557E-01
  5.100671E-01
  5.167785E-01
  5.234899E-01
  5.302013E-01
  5.369128E-01
  5.436242E-01
  5.503356E-01
  5.570470E-01
  5.637584E-01
  5.704698E-01
  5.771812E-01
  5.838926E-01
  5.906040E-01
  5.973154E-01
  6.040268E-01
  6.107383E-01
  6.174497E-01
  6.241611E-01
  6.308725E-01
  6.375839E-01
  6.442953E-01
  6.510067E-01
  6.577181E-01
  6.644295E-01
  6.711409E-01
  6.778524E-01
  6.845638E-01
  6.912752E-01
  6.979866E-01
  7.046980E-01
  7.114094E-01
  7.181208E-01
  7.248322E-01
  7.315436E-01
  7.382550E-01
  7.449664E-01
  7.516779E-01
  7.583893E-01
  7.651007E-01
  7.718121E-01
  7.785235E-01
  7.852349E-01
  7.919463E-01
  7.986577E-01
  8.053691E-01
  8.120805E-01
  8.187919E-01
  8.255034E-01
  8.322148E-01
  8.389262E-01
  8.456376E-01
  8.523490E-01
  8.590604E-01
  8.657718E-01
  8.724832E-01
  8.791946E-01
  8.859060E-01
  8.926175E-01
  8.993289E-01
  9.060403E-01
  9.127517E-01
  9.194631E-01
  9.261745E-01
  9.328859E-01
  9.395973E-01
  9.463087E-01
  9.530201E-01
  9.597315E-01
  9.664430E-01
  9.731544E-01
  9.798658E-01
  9.865772E-01
  9.932886E-01
  1.000000E+00
  0.000000E+00
  0.000000E+00
  0.000000E+00
  0.000000E+00
  0.000000E+00
  0.000000E+00
  0.000000E+00
  0.000000E+00
  0.000000E+00
  0.000000E+00
  0.000000E+00
  0.000000E+00
  0.000000E+00
  0.000000E+00
  0.000000E+00
  0.000000E+00
  0.000000E+00
  0.000000E+00
  0.000000E+00
  0.000000E+00
  0.000000E+00
  0.000000E+00
  0.000000E+00
  0.000000E+00
  0.000000E+00
  0.000000E+00
  0.000000E+00
  0.000000E+00
  0.000000E+00
  0.000000E+00
  0.000000E+00
  0.000000E+00
  0.000000E+00
  0.000000E+00
  0.000000E+00
  0.000000E+00
  0.000000E+00
  0.000000E+00
  0.000000E+00
  0.000000E+00
  0.000000E+00
  0.000000E+00
  0.000000E+00
  0.000000E+00
  0.000000E+00
  0.000000E+00
  0.000000E+00
  0.000000E+00
  0.000000E+00
  0.000000E+00
  0.000000E+00
  0.000000E+00
  0.000000E+00
  0.000000E+00
  0.000000E+00
  0.000000E+00
  0.000000E+00
  0.000000E+00
  0.000000E+00
  0.000000E+00
  0.000000E+00
  0.000000E+00
  0.000000E+00
  0.000000E+00
  0.000000E+00
  0.000000E+00
  0.000000E+00
  0.000000E+00
  0.000000E+00
  0.000000E+00
  0.000000E+00
  0.000000E+00
  0.000000E+00
  0.000000E+00
  0.000000E+00
  0.000000E+00
  0.000000E+00
  0.000000E+00
  0.000000E+00
  0.000000E+00
  0.000000E+00
  0.000000E+00
  0.000000E+00
  0.000000E+00
  0.000000E+00
  0.000000E+00
  0.000000E+00
  0.000000E+00
  0.000000E+00
  0.000000E+00
  0.000000E+00
  0.000000E+00
  0.000000E+00
  0.000000E+00
  0.000000E+00
  0.000000E+00
  0.000000E+00
  0.000000E+00
  0.000000E+00
  0.000000E+00
  0.000000E+00
  0.000000E+00
  0.000000E+00
  0.000000E+00
  0.000000E+00
  0.000000E+00
  0.000000E+00
  0.000000E+00
  0.000000E+00
  0.000000E+00
  0.000000E+00
  0.000000E+00
  0.000000E+00
  0.000000E+00
  0.000000E+00
  0.000000E+00
  0.000000E+00
  0.000000E+00
  0.000000E+00
  0.000000E+00
  0.000000E+00
  0.000000E+00
  0.000000E+00
  0.000000E+00
  0.000000E+00
  0.000000E+00
  0.000000E+00
  0.000000E+00
  0.000000E+00
  0.000000E+00
  0.000000E+00
  0.000000E+00
  0.000000E+00
  0.000000E+00
  0.000000E+00
  0.000000E+00
  0.000000E+00
  0.000000E+00
  0.000000E+00
  0.000000E+00
  0.000000E+00
  0.000000E+00
  0.000000E+00
  0.000000E+00
  0.000000E+00
  0.000000E+00
  0.000000E+00
  0.000000E+00
  0.000000E+00
  0.000000E+00
  0.000000E+00
  0.000000E+00
  0.000000E+00
  0.000000E+00
  0.000000E+00
  0.000000E+00
  0.000000E+00
  0.000000E+00
  0.000000E+00
  0.000000E+00
  0.000000E+00
  0.000000E+00
  0.000000E+00
  0.000000E+00
  0.000000E+00
  0.000000E+00
  0.000000E+00
  0.000000E+00
  0.000000E+00
  0.000000E+00
  0.000000E+00
  0.000000E+00
  0.000000E+00
  0.000000E+00
  0.000000E+00
  0.000000E+00
  0.000000E+00
  0.000000E+00
  0.000000E+00
  0.000000E+00
  0.000000E+00
  0.000000E+00
  0.000000E+00
  0.000000E+00
  0.000000E+00
  0.000000E+00
  0.000000E+00
  0.000000E+00
  0.000000E+00
  0.000000E+00
  0.000000E+00
  0.000000E+00
  0.000000E+00
  0.000000E+00
  0.000000E+00
  0.000000E+00
  0.000000E+00
  0.000000E+00
  0.000000E+00
  0.000000E+00
  0.000000E+00
  0.000000E+00
  0.000000E+00
  0.000000E+00
  0.000000E+00
  0.000000E+00
  0.000000E+00
  0.000000E+00
  0.000000E+00
  0.000000E+00
  0.000000E+00
  0.000000E+00
  0.000000E+00
  0.000000E+00
  0.000000E+00
  0.000000E+00
  0.000000E+00
  0.000000E+00
  0.000000E+00
  0.000000E+00
  0.000000E+00
  0.000000E+00
  0.000000E+00
  0.000000E+00
  0.000000E+00
  0.000000E+00
  0.000000E+00
  0.000000E+00
  0.000000E+00
  0.000000E+00
  0.000000E+00
  0.000000E+00
  0.000000E+00
  0.000000E+00
  0.000000E+00
  0.000000E+00
  0.000000E+00
  0.000000E+00
  0.000000E+00
  0.000000E+00
  0.000000E+00
  0.000000E+00
  0.000000E+00
  0.000000E+00
  0.000000E+00
  0.000000E+00
  0.000000E+00
  0.000000E+00
  0.000000E+00
  0.000000E+00
  0.000000E+00
  0.000000E+00
  0.000000E+00
  0.000000E+00
  0.000000E+00
  0.000000E+00
  0.000000E+00
  0.000000E+00
  0.000000E+00
  0.000000E+00
  0.000000E+00
  0.000000E+00
  0.000000E+00
  0.000000E+00
  0.000000E+00
  0.000000E+00
  0.000000E+00
  0.000000E+00
  0.000000E+00
  0.000000E+00
  0.000000E+00
  0.000000E+00
  0.000000E+00
  0.000000E+00
  0.000000E+00
  0.000000E+00
  0.000000E+00
  0.000000E+00
  0.000000E+00
  0.000000E+00
  0.000000E+00
  0.000000E+00
  0.000000E+00
  0.000000E+00
  0.000000E+00
  0.000000E+00
  0.000000E+00
  0.000000E+00
  0.000000E+00
  0.000000E+00
  0.000000E+00
  0.000000E+00
  0.000000E+00
  0.000000E+00
  0.000000E+00
  0.000000E+00
  0.000000E+00
  0.000000E+00
  0.000000E+00
  0.000000E+00
  1.000000E-08
  1.695085E-02
  3.390169E-02
  5.085254E-02
  6.780338E-02
  8.475423E-02
  1.017051E-01
  1.186559E-01
  1.356068E-01
  1.525576E-01
  1.695085E-01
  1.864593E-01
  2.034101E-01
  2.203610E-01
  2.373118E-01
  2.542627E-01
  2.712135E-01
  2.881644E-01
  3.051152E-01
  3.220661E-01
  3.390169E-01
  3.559678E-01
  3.729186E-01
  3.898694E-01
  4.068203E-01
  4.237711E-01
  4.407220E-01
  4.576728E-01
  4.746237E-01
  4.915745E-01
  5.085254E-01
  5.254762E-01
  5.424271E-01
  5.593779E-01
  5.763287E-01
  5.932796E-01
  6.102304E-01
  6.271813E-01
  6.441321E-01
  6.610830E-01
  6.780338E-01
  6.949847E-01
  7.119355E-01
  7.288864E-01
  7.458372E-01
  7.627880E-01
  7.797389E-01
  7.966897E-01
  8.136406E-01
  8.305914E-01
  8.475423E-01
  8.644931E-01
  8.814440E-01
  8.983948E-01
  9.153457E-01
  9.322965E-01
  9.492473E-01
  9.661982E-01
  9.831490E-01
  1.000100E+00
  1.017051E+00
  1.034002E+00
  1.050952E+00
  1.067903E+00
  1.084854E+00
  1.101805E+00
  1.118756E+00
  1.135707E+00
  1.152657E+00
  1.169608E+00
  1.186559E+00
  1.203510E+00
  1.220461E+00
  1.237412E+00
  1.254363E+00
  1.271313E+00
  1.288264E+00
  1.305215E+00
  1.322166E+00
  1.339117E+00
  1.356068E+00
  1.373018E+00
  1.389969E+00
  1.406920E+00
  1.423871E+00
  1.440822E+00
  1.457773E+00
  1.474724E+00
  1.491674E+00
  1.508625E+00
  1.525576E+00
  1.542527E+00
  1.559478E+00
  1.576429E+00
  1.593379E+00
  1.610330E+00
  1.627281E+00
  1.644232E+00
  1.661183E+00
  1.678134E+00
  1.695085E+00
  1.712035E+00
  1.728986E+00
  1.745937E+00
  1.762888E+00
  1.779839E+00
  1.796790E+00
  1.813740E+00
  1.830691E+00
  1.847642E+00
  1.864593E+00
  1.881544E+00
  1.898495E+00
  1.915446E+00
  1.932396E+00
  1.949347E+00
  1.966298E+00
  1.983249E+00
  2.000200E+00
  2.017151E+00
  2.034101E+00
  2.051052E+00
  2.068003E+00
  2.084954E+00
  2.101905E+00
  2.118856E+00
  2.135807E+00
  2.152757E+00
  2.169708E+00
  2.186659E+00
  2.203610E+00
  2.220561E+00
  2.237512E+00
  2.254462E+00
  2.271413E+00
  2.288364E+00
  2.305315E+00
  2.322266E+00
  2.339217E+00
  2.356168E+00
  2.373118E+00
  2.390069E+00
  2.407020E+00
  2.423971E+00
  2.440922E+00
  2.457873E+00
  2.474823E+00
  2.491774E+00
  2.508725E+00
  2.525676E+00
  1.105296E+04
  1.105118E+04
  1.104941E+04
  1.104763E+04
  1.104586E+04
  1.104408E+04
  1.104231E+04
  1.104053E+04
  1.103876E+04
  1.103342E+04
  1.102800E+04
  1.102257E+04
  1.101715E+04
  1.101172E+04
  1.100630E+04
  1.100087E+04
  1.099429E+04
  1.098558E+04
  1.097687E+04
  1.096817E+04
  1.095946E+04
  1.095075E+04
  1.094204E+04
  1.093300E+04
  1.092128E+04
  1.090956E+04
  1.089785E+04
  1.088613E+04
  1.087441E+04
  1.086269E+04
  1.085023E+04
  1.083529E+04
  1.082036E+04
  1.080542E+04
  1.079048E+04
  1.077555E+04
  1.076061E+04
  1.074332E+04
  1.072501E+04
  1.070669E+04
  1.068838E+04
  1.067006E+04
  1.065175E+04
  1.063179E+04
  1.061008E+04
  1.058837E+04
  1.056666E+04
  1.054495E+04
  1.052325E+04
  1.049952E+04
  1.047437E+04
  1.044922E+04
  1.042407E+04
  1.039893E+04
  1.037378E+04
  1.034518E+04
  1.031653E+04
  1.028789E+04
  1.025924E+04
  1.023059E+04
  1.019965E+04
  1.016753E+04
  1.013542E+04
  1.010330E+04
  1.007119E+04
  1.003696E+04
  1.000135E+04
  9.965740E+03
  9.930133E+03
  9.894529E+03
  9.855988E+03
  9.816712E+03
  9.777440E+03
  9.738171E+03
  9.698008E+03
  9.654931E+03
  9.611858E+03
  9.568786E+03
  9.525718E+03
  9.479211E+03
  9.432322E+03
  9.385435E+03
  9.338550E+03
  9.288757E+03
  9.238148E+03
  9.187540E+03
  9.136935E+03
  9.083452E+03
  9.029529E+03
  8.975610E+03
  8.921283E+03
  8.864619E+03
  8.807960E+03
  8.751308E+03
  8.693124E+03
  8.634001E+03
  8.574890E+03
  8.515152E+03
  8.453639E+03
  8.392153E+03
  8.330525E+03
  8.266878E+03
  8.203272E+03
  8.139586E+03
  8.073568E+03
  8.007598E+03
  7.941105E+03
  7.871906E+03
  7.802754E+03
  7.731885E+03
  7.658799E+03
  7.585754E+03
  7.509054E+03
  7.431697E+03
  7.352680E+03
  7.270880E+03
  7.188959E+03
  7.102744E+03
  7.016548E+03
  6.926860E+03
  6.836348E+03
  6.742902E+03
  6.648159E+03
  6.550565E+03
  6.451659E+03
  6.349667E+03
  6.246789E+03
  6.140381E+03
  6.033044E+03
  5.923185E+03
  5.811505E+03
  5.698491E+03
  5.582793E+03
  5.465497E+03
  5.346510E+03
  5.225091E+03
  5.101064E+03
  4.974773E+03
  4.846425E+03
  4.717351E+03
  4.591920E+03
  4.480551E+03
  4.401025E+03
  4.388666E+03
  4.480605E+03
  4.444955E+03
  4.004322E+03
  4.499565E+03
  1.345870E+03
 -1.181778E-04
  6.261219E+02
  6.260925E+02
  6.260631E+02
  6.260337E+02
  6.260043E+02
  6.259750E+02
  6.259456E+02
  6.259163E+02
  6.258870E+02
  6.258150E+02
  6.257420E+02
  6.256690E+02
  6.255960E+02
  6.255230E+02
  6.254500E+02
  6.253771E+02
  6.253041E+02
  6.252312E+02
  6.251583E+02
  6.250854E+02
  6.250125E+02
  6.249396E+02
  6.248667E+02
  6.247920E+02
  6.247027E+02
  6.246135E+02
  6.245242E+02
  6.244349E+02
  6.243456E+02
  6.242564E+02
  6.241468E+02
  6.239696E+02
  6.237924E+02
  6.236152E+02
  6.234379E+02
  6.232607E+02
  6.230834E+02
  6.228317E+02
  6.225474E+02
  6.222630E+02
  6.219785E+02
  6.216941E+02
  6.214095E+02
  6.210660E+02
  6.206601E+02
  6.202542E+02
  6.198482E+02
  6.194420E+02
  6.190358E+02
  6.185186E+02
  6.179236E+02
  6.173285E+02
  6.167331E+02
  6.161377E+02
  6.155420E+02
  6.146894E+02
  6.138326E+02
  6.129756E+02
  6.121184E+02
  6.112610E+02
  6.102320E+02
  6.091150E+02
  6.079977E+02
  6.068803E+02
  6.057626E+02
  6.045051E+02
  6.031557E+02
  6.018061E+02
  6.004563E+02
  5.991062E+02
  5.976014E+02
  5.960575E+02
  5.945134E+02
  5.929689E+02
  5.913993E+02
  5.897486E+02
  5.880976E+02
  5.864463E+02
  5.847947E+02
  5.830328E+02
  5.812584E+02
  5.794837E+02
  5.777088E+02
  5.756990E+02
  5.736231E+02
  5.715470E+02
  5.694706E+02
  5.670121E+02
  5.644951E+02
  5.619781E+02
  5.593841E+02
  5.563520E+02
  5.533210E+02
  5.502910E+02
  5.468166E+02
  5.430698E+02
  5.393264E+02
  5.353630E+02
  5.307787E+02
  5.262022E+02
  5.215891E+02
  5.164433E+02
  5.113091E+02
  5.061767E+02
  5.008651E+02
  4.955659E+02
  4.902873E+02
  4.850613E+02
  4.798459E+02
  4.747528E+02
  4.698114E+02
  4.648774E+02
  4.603112E+02
  4.558168E+02
  4.515276E+02
  4.475745E+02
  4.436416E+02
  4.402819E+02
  4.369206E+02
  4.340674E+02
  4.313330E+02
  4.290180E+02
  4.268871E+02
  4.251214E+02
  4.235235E+02
  4.223118E+02
  4.212125E+02
  4.206022E+02
  4.201465E+02
  4.201144E+02
  4.204680E+02
  4.211187E+02
  4.224815E+02
  4.243645E+02
  4.268225E+02
  4.301730E+02
  4.346123E+02
  4.402130E+02
  4.473793E+02
  4.568520E+02
  4.701137E+02
  4.900151E+02
  5.212156E+02
  5.719076E+02
  6.500759E+02
  7.189171E+02
  7.318107E+02
  8.834313E+02
  2.136130E+02
  3.890732E-04
  1.805076E+03
  1.804471E+03
  1.803865E+03
  1.803259E+03
  1.802653E+03
  1.802047E+03
  1.801442E+03
  1.800836E+03
  1.800230E+03
  1.798722E+03
  1.797192E+03
  1.795661E+03
  1.794131E+03
  1.792601E+03
  1.791071E+03
  1.789540E+03
  1.787835E+03
  1.785809E+03
  1.783783E+03
  1.781757E+03
  1.779731E+03
  1.777705E+03
  1.775679E+03
  1.773595E+03
  1.771039E+03
  1.768484E+03
  1.765929E+03
  1.763373E+03
  1.760818E+03
  1.758263E+03
  1.755559E+03
  1.752362E+03
  1.749165E+03
  1.745967E+03
  1.742770E+03
  1.739573E+03
  1.736376E+03
  1.732712E+03
  1.728844E+03
  1.724977E+03
  1.721109E+03
  1.717241E+03
  1.713373E+03
  1.709183E+03
  1.704652E+03
  1.700122E+03
  1.695591E+03
  1.691061E+03
  1.686530E+03
  1.681595E+03
  1.676376E+03
  1.671158E+03
  1.665940E+03
  1.660722E+03
  1.655504E+03
  1.649625E+03
  1.643737E+03
  1.637848E+03
  1.631961E+03
  1.626073E+03
  1.619816E+03
  1.613371E+03
  1.606926E+03
  1.600482E+03
  1.594038E+03
  1.587291E+03
  1.580345E+03
  1.573400E+03
  1.566456E+03
  1.559512E+03
  1.552216E+03
  1.544832E+03
  1.537449E+03
  1.530066E+03
  1.522648E+03
  1.515114E+03
  1.507580E+03
  1.500047E+03
  1.492514E+03
  1.485034E+03
  1.477560E+03
  1.470087E+03
  1.462614E+03
  1.455111E+03
  1.447601E+03
  1.440091E+03
  1.432582E+03
  1.425123E+03
  1.417672E+03
  1.410222E+03
  1.402831E+03
  1.395772E+03
  1.388716E+03
  1.381662E+03
  1.374797E+03
  1.368053E+03
  1.361313E+03
  1.354538E+03
  1.347656E+03
  1.340785E+03
  1.333900E+03
  1.326737E+03
  1.319592E+03
  1.312442E+03
  1.304869E+03
  1.297317E+03
  1.289613E+03
  1.281091E+03
  1.272592E+03
  1.263439E+03
  1.253441E+03
  1.243462E+03
  1.231997E+03
  1.220265E+03
  1.207846E+03
  1.194275E+03
  1.180653E+03
  1.165258E+03
  1.149870E+03
  1.133144E+03
  1.116101E+03
  1.098136E+03
  1.079762E+03
  1.060727E+03
  1.041387E+03
  1.021597E+03
  1.001679E+03
  9.816078E+02
  9.616027E+02
  9.418166E+02
  9.224689E+02
  9.034671E+02
  8.855186E+02
  8.683839E+02
  8.521382E+02
  8.372623E+02
  8.239694E+02
  8.123272E+02
  8.030006E+02
  7.974348E+02
  7.989516E+02
  8.146871E+02
  8.565880E+02
  9.431315E+02
  1.088583E+03
  1.199945E+03
  1.132560E+03
  1.283283E+03
  2.071591E+02
 -8.714100E-11
  1.243786E+00
  1.243586E+00
  1.243387E+00
  1.243187E+00
  1.242987E+00
  1.242787E+00
  1.242587E+00
  1.242388E+00
  1.242188E+00
  1.241587E+00
  1.240977E+00
  1.240367E+00
  1.239756E+00
  1.239146E+00
  1.238535E+00
  1.237925E+00
  1.237184E+00
  1.236204E+00
  1.235224E+00
  1.234244E+00
  1.233264E+00
  1.232285E+00
  1.231305E+00
  1.230287E+00
  1.228969E+00
  1.227650E+00
  1.226331E+00
  1.225013E+00
  1.223694E+00
  1.222375E+00
  1.220973E+00
  1.219292E+00
  1.217611E+00
  1.215931E+00
  1.214250E+00
  1.212569E+00
  1.210888E+00
  1.208943E+00
  1.206882E+00
  1.204821E+00
  1.202760E+00
  1.200699E+00
  1.198638E+00
  1.196392E+00
  1.193949E+00
  1.191506E+00
  1.189063E+00
  1.186621E+00
  1.184178E+00
  1.181508E+00
  1.178677E+00
  1.175848E+00
  1.173018E+00
  1.170188E+00
  1.167359E+00
  1.164140E+00
  1.160916E+00
  1.157693E+00
  1.154469E+00
  1.151246E+00
  1.147764E+00
  1.144149E+00
  1.140535E+00
  1.136921E+00
  1.133308E+00
  1.129456E+00
  1.125449E+00
  1.121442E+00
  1.117435E+00
  1.113428E+00
  1.109091E+00
  1.104672E+00
  1.100252E+00
  1.095833E+00
  1.091314E+00
  1.086466E+00
  1.081619E+00
  1.076773E+00
  1.071926E+00
  1.066693E+00
  1.061416E+00
  1.056140E+00
  1.050864E+00
  1.045261E+00
  1.039566E+00
  1.033871E+00
  1.028177E+00
  1.022158E+00
  1.016090E+00
  1.010023E+00
  1.003909E+00
  9.975328E-01
  9.911571E-01
  9.847820E-01
  9.782346E-01
  9.715815E-01
  9.649298E-01
  9.582075E-01
  9.512855E-01
  9.443664E-01
  9.374314E-01
  9.302693E-01
  9.231117E-01
  9.159452E-01
  9.085162E-01
  9.010925E-01
  8.936102E-01
  8.858232E-01
  8.780416E-01
  8.700667E-01
  8.618423E-01
  8.536226E-01
  8.449916E-01
  8.362866E-01
  8.273948E-01
  8.181899E-01
  8.089714E-01
  7.992696E-01
  7.895700E-01
  7.794774E-01
  7.692922E-01
  7.587767E-01
  7.481153E-01
  7.371331E-01
  7.260032E-01
  7.145261E-01
  7.029493E-01
  6.909752E-01
  6.788967E-01
  6.665342E-01
  6.539669E-01
  6.412494E-01
  6.282300E-01
  6.150308E-01
  6.016411E-01
  5.879779E-01
  5.740212E-01
  5.598097E-01
  5.453667E-01
  5.308421E-01
  5.167274E-01
  5.041950E-01
  4.952460E-01
  4.938553E-01
  5.042011E-01
  5.001895E-01
  4.506052E-01
  5.063347E-01
  1.514504E-01
 -1.329851E-08
  1.117911E+00
  1.117859E+00
  1.117806E+00
  1.117754E+00
  1.117701E+00
  1.117649E+00
  1.117597E+00
  1.117544E+00
  1.117492E+00
  1.117363E+00
  1.117233E+00
  1.117103E+00
  1.116972E+00
  1.116842E+00
  1.116712E+00
  1.116581E+00
  1.116451E+00
  1.116321E+00
  1.116191E+00
  1.116061E+00
  1.115930E+00
  1.115800E+00
  1.115670E+00
  1.115537E+00
  1.115377E+00
  1.115218E+00
  1.115059E+00
  1.114899E+00
  1.114740E+00
  1.114580E+00
  1.114385E+00
  1.114068E+00
  1.113752E+00
  1.113436E+00
  1.113119E+00
  1.112803E+00
  1.112486E+00
  1.112037E+00
  1.111529E+00
  1.111021E+00
  1.110513E+00
  1.110006E+00
  1.109498E+00
  1.108884E+00
  1.108160E+00
  1.107435E+00
  1.106710E+00
  1.105985E+00
  1.105259E+00
  1.104336E+00
  1.103274E+00
  1.102211E+00
  1.101148E+00
  1.100085E+00
  1.099021E+00
  1.097499E+00
  1.095969E+00
  1.094439E+00
  1.092909E+00
  1.091378E+00
  1.089541E+00
  1.087546E+00
  1.085551E+00
  1.083556E+00
  1.081561E+00
  1.079316E+00
  1.076906E+00
  1.074497E+00
  1.072087E+00
  1.069676E+00
  1.066989E+00
  1.064233E+00
  1.061476E+00
  1.058718E+00
  1.055916E+00
  1.052969E+00
  1.050021E+00
  1.047072E+00
  1.044124E+00
  1.040978E+00
  1.037810E+00
  1.034641E+00
  1.031472E+00
  1.027884E+00
  1.024177E+00
  1.020470E+00
  1.016763E+00
  1.012374E+00
  1.007879E+00
  1.003386E+00
  9.987540E-01
  9.933404E-01
  9.879287E-01
  9.825188E-01
  9.763154E-01
  9.696256E-01
  9.629420E-01
  9.558656E-01
  9.476804E-01
  9.395093E-01
  9.312729E-01
  9.220852E-01
  9.129184E-01
  9.037548E-01
  8.942711E-01
  8.848097E-01
  8.753850E-01
  8.660542E-01
  8.567424E-01
  8.476488E-01
  8.388262E-01
  8.300168E-01
  8.218641E-01
  8.138395E-01
  8.061813E-01
  7.991233E-01
  7.921013E-01
  7.861028E-01
  7.801012E-01
  7.750070E-01
  7.701249E-01
  7.659916E-01
  7.621869E-01
  7.590342E-01
  7.561814E-01
  7.540179E-01
  7.520551E-01
  7.509654E-01
  7.501519E-01
  7.500945E-01
  7.507258E-01
  7.518877E-01
  7.543208E-01
  7.576829E-01
  7.620716E-01
  7.680538E-01
  7.759800E-01
  7.859797E-01
  7.987748E-01
  8.156878E-01
  8.393659E-01
  8.748990E-01
  9.306061E-01
  1.021114E+00
  1.160680E+00
  1.283593E+00
  1.306614E+00
  1.577325E+00
  3.813959E-01
  6.946720E-07
  1.250828E+00
  1.250408E+00
  1.249989E+00
  1.249569E+00
  1.249149E+00
  1.248729E+00
  1.248309E+00
  1.247890E+00
  1.247470E+00
  1.246425E+00
  1.245365E+00
  1.244304E+00
  1.243244E+00
  1.242183E+00
  1.241123E+00
  1.240063E+00
  1.238881E+00
  1.237477E+00
  1.236073E+00
  1.234669E+00
  1.233265E+00
  1.231861E+00
  1.230458E+00
  1.229013E+00
  1.227242E+00
  1.225472E+00
  1.223701E+00
  1.221930E+00
  1.220159E+00
  1.218389E+00
  1.216515E+00
  1.214300E+00
  1.212084E+00
  1.209869E+00
  1.207653E+00
  1.205438E+00
  1.203222E+00
  1.200683E+00
  1.198003E+00
  1.195323E+00
  1.192643E+00
  1.189963E+00
  1.187283E+00
  1.184379E+00
  1.181239E+00
  1.178100E+00
  1.174960E+00
  1.171821E+00
  1.168682E+00
  1.165262E+00
  1.161646E+00
  1.158029E+00
  1.154413E+00
  1.150798E+00
  1.147182E+00
  1.143108E+00
  1.139028E+00
  1.134947E+00
  1.130867E+00
  1.126788E+00
  1.122452E+00
  1.117986E+00
  1.113520E+00
  1.109054E+00
  1.104589E+00
  1.099914E+00
  1.095101E+00
  1.090288E+00
  1.085476E+00
  1.080665E+00
  1.075609E+00
  1.070492E+00
  1.065376E+00
  1.060260E+00
  1.055120E+00
  1.049899E+00
  1.044678E+00
  1.039458E+00
  1.034238E+00
  1.029055E+00
  1.023876E+00
  1.018697E+00
  1.013519E+00
  1.008320E+00
  1.003115E+00
  9.979115E-01
  9.927080E-01
  9.875391E-01
  9.823760E-01
  9.772137E-01
  9.720923E-01
  9.672009E-01
  9.623111E-01
  9.574229E-01
  9.526659E-01
  9.479924E-01
  9.433225E-01
  9.386276E-01
  9.338584E-01
  9.290971E-01
  9.243267E-01
  9.193630E-01
  9.144115E-01
  9.094570E-01
  9.042090E-01
  8.989760E-01
  8.936378E-01
  8.877327E-01
  8.818427E-01
  8.755002E-01
  8.685722E-01
  8.616574E-01
  8.537127E-01
  8.455829E-01
  8.369773E-01
  8.275732E-01
  8.181338E-01
  8.074662E-01
  7.968026E-01
  7.852126E-01
  7.734025E-01
  7.609534E-01
  7.482212E-01
  7.350309E-01
  7.216296E-01
  7.079160E-01
  6.941137E-01
  6.802054E-01
  6.663429E-01
  6.526321E-01
  6.392251E-01
  6.260578E-01
  6.136204E-01
  6.017469E-01
  5.904894E-01
  5.801811E-01
  5.709698E-01
  5.629024E-01
  5.564395E-01
  5.525827E-01
  5.536338E-01
  5.645377E-01
  5.935729E-01
  6.535433E-01
  7.543338E-01
  8.315021E-01
  7.848075E-01
  8.892515E-01
  1.435510E-01
 -6.038438E-14
  9.883032E-01
  9.881445E-01
  9.879858E-01
  9.878270E-01
  9.876683E-01
  9.875096E-01
  9.873509E-01
  9.871922E-01
  9.870335E-01
  9.865564E-01
  9.860714E-01
  9.855864E-01
  9.851014E-01
  9.846164E-01
  9.841315E-01
  9.836465E-01
  9.830580E-01
  9.822794E-01
  9.815008E-01
  9.807223E-01
  9.799437E-01
  9.791652E-01
  9.783866E-01
  9.775782E-01
  9.765305E-01
  9.754828E-01
  9.744351E-01
  9.733874E-01
  9.723397E-01
  9.712921E-01
  9.701778E-01
  9.688423E-01
  9.675068E-01
  9.661714E-01
  9.648359E-01
  9.635005E-01
  9.621651E-01
  9.606195E-01
  9.589819E-01
  9.573443E-01
  9.557068E-01
  9.540693E-01
  9.524319E-01
  9.506467E-01
  9.487057E-01
  9.467648E-01
  9.448239E-01
  9.428831E-01
  9.409423E-01
  9.388204E-01
  9.365717E-01
  9.343231E-01
  9.320747E-01
  9.298263E-01
  9.275781E-01
  9.250210E-01
  9.224592E-01
  9.198976E-01
  9.173362E-01
  9.147749E-01
  9.120082E-01
  9.091362E-01
  9.062645E-01
  9.033930E-01
  9.005218E-01
  8.974614E-01
  8.942769E-01
  8.910928E-01
  8.879090E-01
  8.847255E-01
  8.812793E-01
  8.777674E-01
  8.742559E-01
  8.707446E-01
  8.671534E-01
  8.633017E-01
  8.594503E-01
  8.555990E-01
  8.517480E-01
  8.475897E-01
  8.433971E-01
  8.392047E-01
  8.350124E-01
  8.305602E-01
  8.260349E-01
  8.215098E-01
  8.169849E-01
  8.122026E-01
  8.073811E-01
  8.025599E-01
  7.977021E-01
  7.926352E-01
  7.875689E-01
  7.825031E-01
  7.773002E-01
  7.720132E-01
  7.667272E-01
  7.613849E-01
  7.558836E-01
  7.503845E-01
  7.448724E-01
  7.391794E-01
  7.334896E-01
  7.277925E-01
  7.218865E-01
  7.159845E-01
  7.100356E-01
  7.038446E-01
  6.976576E-01
  6.913171E-01
  6.847786E-01
  6.782436E-01
  6.713826E-01
  6.644628E-01
  6.573950E-01
  6.500791E-01
  6.427525E-01
  6.350430E-01
  6.273354E-01
  6.193165E-01
  6.112243E-01
  6.028704E-01
  5.944010E-01
  5.856773E-01
  5.768365E-01
  5.677203E-01
  5.585249E-01
  5.490144E-01
  5.394206E-01
  5.296014E-01
  5.196193E-01
  5.095177E-01
  4.991760E-01
  4.886910E-01
  4.780544E-01
  4.672001E-01
  4.561121E-01
  4.448211E-01
  4.333458E-01
  4.218051E-01
  4.105891E-01
  4.006300E-01
  3.935177E-01
  3.924106E-01
  4.006285E-01
  3.974376E-01
  3.580356E-01
  4.023117E-01
  1.652921E-01
 -2.570499E-03
  5.598484E-02
  5.598222E-02
  5.597959E-02
  5.597696E-02
  5.597434E-02
  5.597172E-02
  5.596910E-02
  5.596648E-02
  5.596386E-02
  5.595743E-02
  5.595090E-02
  5.594437E-02
  5.593785E-02
  5.593133E-02
  5.592481E-02
  5.591829E-02
  5.591177E-02
  5.590525E-02
  5.589873E-02
  5.589222E-02
  5.588571E-02
  5.587919E-02
  5.587268E-02
  5.586600E-02
  5.585803E-02
  5.585005E-02
  5.584207E-02
  5.583409E-02
  5.582612E-02
  5.581814E-02
  5.580834E-02
  5.579251E-02
  5.577667E-02
  5.576083E-02
  5.574499E-02
  5.572914E-02
  5.571330E-02
  5.569080E-02
  5.566538E-02
  5.563995E-02
  5.561452E-02
  5.558909E-02
  5.556366E-02
  5.553294E-02
  5.549666E-02
  5.546037E-02
  5.542407E-02
  5.538776E-02
  5.535144E-02
  5.530520E-02
  5.525200E-02
  5.519879E-02
  5.514556E-02
  5.509232E-02
  5.503906E-02
  5.496283E-02
  5.488622E-02
  5.480959E-02
  5.473294E-02
  5.465628E-02
  5.456427E-02
  5.446439E-02
  5.436450E-02
  5.426458E-02
  5.416464E-02
  5.405220E-02
  5.393155E-02
  5.381087E-02
  5.369017E-02
  5.356946E-02
  5.343490E-02
  5.329685E-02
  5.315878E-02
  5.302069E-02
  5.288034E-02
  5.273274E-02
  5.258512E-02
  5.243747E-02
  5.228979E-02
  5.213225E-02
  5.197359E-02
  5.181490E-02
  5.165620E-02
  5.147650E-02
  5.129088E-02
  5.110524E-02
  5.091958E-02
  5.069975E-02
  5.047469E-02
  5.024963E-02
  5.001768E-02
  4.974655E-02
  4.947552E-02
  4.920458E-02
  4.889389E-02
  4.855883E-02
  4.822409E-02
  4.786965E-02
  4.745966E-02
  4.705037E-02
  4.663780E-02
  4.617755E-02
  4.571833E-02
  4.525926E-02
  4.478413E-02
  4.431011E-02
  4.383791E-02
  4.337041E-02
  4.290384E-02
  4.244821E-02
  4.200617E-02
  4.156477E-02
  4.115631E-02
  4.075426E-02
  4.037059E-02
  4.001700E-02
  3.966523E-02
  3.936479E-02
  3.906419E-02
  3.880909E-02
  3.856462E-02
  3.835771E-02
  3.816727E-02
  3.800953E-02
  3.786682E-02
  3.775867E-02
  3.766058E-02
  3.760624E-02
  3.756573E-02
  3.756310E-02
  3.759496E-02
  3.765338E-02
  3.777546E-02
  3.794405E-02
  3.816404E-02
  3.846380E-02
  3.886090E-02
  3.936181E-02
  4.000267E-02
  4.084973E-02
  4.203548E-02
  4.381488E-02
  4.660450E-02
  5.113686E-02
  5.812585E-02
  6.428067E-02
  6.543287E-02
  7.898869E-02
  2.623473E-02
  8.462779E-03
  1.614014E-01
  1.613472E-01
  1.612930E-01
  1.612389E-01
  1.611847E-01
  1.611305E-01
  1.610764E-01
  1.610222E-01
  1.609681E-01
  1.608333E-01
  1.606964E-01
  1.605596E-01
  1.604228E-01
  1.602860E-01
  1.601491E-01
  1.600123E-01
  1.598599E-01
  1.596787E-01
  1.594976E-01
  1.593164E-01
  1.591353E-01
  1.589541E-01
  1.587730E-01
  1.585866E-01
  1.583581E-01
  1.581297E-01
  1.579012E-01
  1.576727E-01
  1.574443E-01
  1.572158E-01
  1.569741E-01
  1.566882E-01
  1.564023E-01
  1.561165E-01
  1.558306E-01
  1.555447E-01
  1.552589E-01
  1.549313E-01
  1.545855E-01
  1.542396E-01
  1.538938E-01
  1.535480E-01
  1.532022E-01
  1.528275E-01
  1.524224E-01
  1.520173E-01
  1.516122E-01
  1.512071E-01
  1.508021E-01
  1.503608E-01
  1.498942E-01
  1.494276E-01
  1.489610E-01
  1.484944E-01
  1.480279E-01
  1.475022E-01
  1.469757E-01
  1.464492E-01
  1.459228E-01
  1.453963E-01
  1.448369E-01
  1.442606E-01
  1.436843E-01
  1.431081E-01
  1.425319E-01
  1.419286E-01
  1.413075E-01
  1.406865E-01
  1.400656E-01
  1.394448E-01
  1.387924E-01
  1.381321E-01
  1.374719E-01
  1.368118E-01
  1.361486E-01
  1.354749E-01
  1.348012E-01
  1.341276E-01
  1.334541E-01
  1.327852E-01
  1.321170E-01
  1.314487E-01
  1.307805E-01
  1.301097E-01
  1.294382E-01
  1.287667E-01
  1.280952E-01
  1.274282E-01
  1.267620E-01
  1.260959E-01
  1.254350E-01
  1.248038E-01
  1.241728E-01
  1.235421E-01
  1.229282E-01
  1.223251E-01
  1.217224E-01
  1.211164E-01
  1.205009E-01
  1.198863E-01
  1.192705E-01
  1.186296E-01
  1.179903E-01
  1.173506E-01
  1.166729E-01
  1.159972E-01
  1.153078E-01
  1.145452E-01
  1.137846E-01
  1.129656E-01
  1.120710E-01
  1.111782E-01
  1.101525E-01
  1.091030E-01
  1.079922E-01
  1.067784E-01
  1.055601E-01
  1.041836E-01
  1.028075E-01
  1.013121E-01
  9.978836E-02
  9.818228E-02
  9.653972E-02
  9.483817E-02
  9.310942E-02
  9.134045E-02
  8.956004E-02
  8.776602E-02
  8.597788E-02
  8.420932E-02
  8.247995E-02
  8.078147E-02
  7.917714E-02
  7.764553E-02
  7.619334E-02
  7.486357E-02
  7.367529E-02
  7.263453E-02
  7.180075E-02
  7.130316E-02
  7.143871E-02
  7.284553E-02
  7.659183E-02
  8.432968E-02
  9.733448E-02
  1.072909E-01
  1.012648E-01
  1.147399E-01
  2.544211E-02
 -1.895415E-09
  9.884323E-01
  9.882736E-01
  9.881149E-01
  9.879563E-01
  9.877976E-01
  9.876390E-01
  9.874803E-01
  9.873217E-01
  9.871631E-01
  9.866861E-01
  9.862013E-01
  9.857165E-01
  9.852317E-01
  9.847469E-01
  9.842621E-01
  9.837773E-01
  9.831889E-01
  9.824106E-01
  9.816324E-01
  9.808541E-01
  9.800758E-01
  9.792975E-01
  9.785193E-01
  9.777112E-01
  9.766638E-01