 Title = "ADflow Slice Data"
Variables =  "CoordinateX"  "CoordinateY"  "CoordinateZ"  "XoC"  "YoC"  "ZoC" "VelocityX" "VelocityY" "VelocityZ" "CoefPressure" "Mach" 
Zone T= "Slice_0001 None Relative Regular z = 0.10000000"
 Nodes =          114  Elements=          106  ZONETYPE=FELINESEG
 DATAPACKING=POINT
  7.301402E-01  6.734790E-02  1.000000E-01  7.450342E-01  5.884504E-02  1.416122E-17  2.556325E-02 -4.229398E-03 -1.853510E-04 -4.348805E-01  0.000000E+00
  7.043967E-01  7.146024E-02  1.000000E-01  7.187649E-01  6.304136E-02 -4.248366E-17  2.688700E-02 -4.141003E-03 -1.832943E-04 -4.693388E-01  0.000000E+00
  6.775455E-01  7.544462E-02  1.000000E-01  6.913653E-01  6.710712E-02  3.965142E-16  2.801683E-02 -4.010864E-03 -1.799325E-04 -5.016226E-01  0.000000E+00
  6.496792E-01  7.928755E-02  1.000000E-01  6.629299E-01  7.102854E-02  4.248366E-17  2.898983E-02 -3.870791E-03 -1.754403E-04 -5.349884E-01  0.000000E+00
  6.209097E-01  8.299965E-02  1.000000E-01  6.335729E-01  7.481646E-02 -2.832244E-17  2.991571E-02 -3.731912E-03 -1.700373E-04 -5.717247E-01  0.000000E+00
  5.913667E-01  8.655537E-02  1.000000E-01  6.034265E-01  7.844479E-02 -2.832244E-17  3.092878E-02 -3.583704E-03 -1.638778E-04 -6.122058E-01  0.000000E+00
  5.611982E-01  8.991241E-02  1.000000E-01  5.726419E-01  8.187040E-02  0.000000E+00  3.212959E-02 -3.417961E-03 -1.569339E-04 -6.573429E-01  0.000000E+00
  5.305654E-01  9.301802E-02  1.000000E-01  5.413834E-01  8.503943E-02 -5.664488E-17  3.359039E-02 -3.225400E-03 -1.490671E-04 -7.089129E-01  0.000000E+00
  4.996398E-01  9.581885E-02  1.000000E-01  5.098262E-01  8.789747E-02  0.000000E+00  3.537754E-02 -2.981195E-03 -1.401496E-04 -7.680146E-01  0.000000E+00
  4.685986E-01  9.823814E-02  1.000000E-01  4.781510E-01  9.036616E-02  1.416122E-17  3.754321E-02 -2.638542E-03 -1.301430E-04 -8.330530E-01  0.000000E+00
  4.376215E-01  1.001801E-01  1.000000E-01  4.465413E-01  9.234775E-02 -8.496732E-17  4.006998E-02 -2.147554E-03 -1.190799E-04 -9.001993E-01  0.000000E+00
  4.068895E-01  1.015526E-01  1.000000E-01  4.151816E-01  9.374832E-02  0.000000E+00  4.283902E-02 -1.470468E-03 -1.070917E-04 -9.647217E-01  0.000000E+00
  3.765814E-01  1.022846E-01  1.000000E-01  3.842545E-01  9.449529E-02 -5.664488E-17  4.564647E-02 -6.095532E-04 -9.447386E-05 -1.023934E+00  0.000000E+00
  3.468696E-01  1.023622E-01  1.000000E-01  3.539359E-01  9.457449E-02 -5.664488E-17  4.832071E-02  4.140908E-04 -8.179193E-05 -1.076601E+00  0.000000E+00
  3.179133E-01  1.017889E-01  1.000000E-01  3.243883E-01  9.398945E-02 -2.832244E-17  5.079925E-02  1.588163E-03 -6.978097E-05 -1.122381E+00  0.000000E+00
  2.898519E-01  1.005847E-01  1.000000E-01  2.957537E-01  9.276069E-02 -4.248366E-17  5.309269E-02  2.889098E-03 -5.899971E-05 -1.164469E+00  0.000000E+00
  2.628044E-01  9.879250E-02  1.000000E-01  2.681538E-01  9.093185E-02  0.000000E+00  5.527784E-02  4.304693E-03 -4.965651E-05 -1.206971E+00  0.000000E+00
  9.800000E-01  1.206337E-02  1.000000E-01  9.999970E-01  2.431410E-03 -2.832244E-17  1.060430E-02 -1.316048E-02 -1.981167E-04 -5.646007E-02  0.000000E+00
  9.720124E-01  1.419111E-02  1.000000E-01  9.918463E-01  4.602602E-03 -2.832244E-17  1.212447E-02 -3.300928E-03 -1.862801E-04  6.891144E-02  0.000000E+00
  9.632634E-01  1.653541E-02  1.000000E-01  9.829187E-01  6.994782E-03 -2.832244E-17  9.084249E-03 -2.371466E-03 -1.580254E-04  2.209893E-02  0.000000E+00
  9.536907E-01  1.908477E-02  1.000000E-01  9.731505E-01  9.596213E-03 -2.832244E-17  7.180827E-03 -1.901912E-03 -1.383286E-04  4.204652E-03  0.000000E+00
  9.432303E-01  2.182348E-02  1.000000E-01  9.624763E-01  1.239086E-02  1.416122E-17  6.748460E-03 -1.751233E-03 -1.313293E-04 -1.561657E-02  0.000000E+00
  9.318220E-01  2.475489E-02  1.000000E-01  9.508351E-01  1.538213E-02  1.416122E-17  7.461314E-03 -1.895970E-03 -1.334622E-04 -4.142031E-02  0.000000E+00
  9.194070E-01  2.788204E-02  1.000000E-01  9.381665E-01  1.857315E-02 -8.496732E-17  8.824144E-03 -2.196229E-03 -1.401102E-04 -6.918446E-02  0.000000E+00
  9.059278E-01  3.120297E-02  1.000000E-01  9.244120E-01  2.196191E-02 -5.664488E-17  1.042629E-02 -2.535416E-03 -1.480606E-04 -9.876845E-02  0.000000E+00
  8.913299E-01  3.471165E-02  1.000000E-01  9.095160E-01  2.554225E-02  0.000000E+00  1.206343E-02 -2.860120E-03 -1.557221E-04 -1.307055E-01  0.000000E+00
  8.755643E-01  3.840258E-02  1.000000E-01  8.934284E-01  2.930855E-02 -2.832244E-17  1.370298E-02 -3.161101E-03 -1.626533E-04 -1.651092E-01  0.000000E+00
  8.585885E-01  4.226474E-02  1.000000E-01  8.761058E-01  3.324960E-02  4.106754E-16  1.538807E-02 -3.441944E-03 -1.689590E-04 -2.015519E-01  0.000000E+00
  8.403666E-01  4.627553E-02  1.000000E-01  8.575118E-01  3.734230E-02  3.965142E-16  1.713855E-02 -3.699027E-03 -1.746259E-04 -2.394214E-01  0.000000E+00
  8.208730E-01  5.040490E-02  1.000000E-01  8.376202E-01  4.155600E-02 -8.496732E-17  1.892293E-02 -3.920853E-03 -1.793639E-04 -2.783828E-01  0.000000E+00
  8.000947E-01  5.461968E-02  1.000000E-01  8.164175E-01  4.585686E-02 -2.832244E-17  2.069664E-02 -4.094650E-03 -1.829121E-04 -3.181493E-01  0.000000E+00
  7.780326E-01  5.887988E-02  1.000000E-01  7.939048E-01  5.020408E-02 -2.832244E-17  2.242213E-02 -4.209162E-03 -1.851415E-04 -3.581987E-01  0.000000E+00
  7.547032E-01  6.313963E-02  1.000000E-01  7.700989E-01  5.455083E-02  4.389978E-16  2.406024E-02 -4.255028E-03 -1.859734E-04 -3.975375E-01  0.000000E+00
  7.301402E-01  6.734790E-02  1.000000E-01  7.450342E-01  5.884504E-02  2.832244E-17  2.556325E-02 -4.229398E-03 -1.853510E-04 -4.348805E-01  0.000000E+00
  2.444131E-01 -2.577839E-03  1.000000E-01  2.493868E-01 -1.250883E-02  3.681917E-16  2.787581E-02  1.273666E-03  4.645431E-05  1.677675E-01  0.000000E+00
  2.700250E-01 -1.411304E-03  1.000000E-01  2.755219E-01 -1.131847E-02 -4.248366E-17  2.812545E-02  1.260419E-03  4.923195E-05  1.659953E-01  0.000000E+00
  2.967058E-01 -2.360500E-04  1.000000E-01  3.027476E-01 -1.011921E-02 -2.832244E-17  2.849983E-02  1.291623E-03  5.288665E-05  1.580749E-01  0.000000E+00
  3.243554E-01  1.050822E-03  1.000000E-01  3.309618E-01 -8.806056E-03  4.248366E-16  2.864522E-02  1.444605E-03  5.745821E-05  1.452223E-01  0.000000E+00
  3.528511E-01  2.599071E-03  1.000000E-01  3.600396E-01 -7.226186E-03 -4.248366E-17  2.816552E-02  1.738513E-03  6.274644E-05  1.337218E-01  0.000000E+00
  3.820469E-01  4.624444E-03  1.000000E-01  3.898316E-01 -5.159449E-03  5.664488E-17  2.680328E-02  2.123545E-03  6.827181E-05  1.312961E-01  0.000000E+00
  4.117740E-01  7.295053E-03  1.000000E-01  4.201659E-01 -2.434296E-03 -5.664488E-17  2.463303E-02  2.482107E-03  7.344028E-05  1.449648E-01  0.000000E+00
  4.418498E-01  1.068658E-02  1.000000E-01  4.508559E-01  1.026494E-03 -2.832244E-17  2.209170E-02  2.677448E-03  7.785211E-05  1.750075E-01  0.000000E+00
  4.721105E-01  1.464722E-02  1.000000E-01  4.817347E-01  5.068025E-03 -5.664488E-17  1.994903E-02  2.512735E-03  8.171359E-05  2.269658E-01  0.000000E+00
  5.024968E-01  1.831280E-02  1.000000E-01  5.127416E-01  8.808468E-03  1.416122E-17  1.866320E-02  2.071579E-03  8.543223E-05  2.818606E-01  0.000000E+00
  5.328693E-01  2.135703E-02  1.000000E-01  5.437343E-01  1.191488E-02 -4.248366E-17  1.802879E-02  1.670066E-03  8.922348E-05  3.085908E-01  0.000000E+00
  5.630297E-01  2.390755E-02  1.000000E-01  5.745108E-01  1.451748E-02  1.416122E-17  1.768577E-02  1.398787E-03  9.321736E-05  3.156667E-01  0.000000E+00
  5.927917E-01  2.609575E-02  1.000000E-01  6.048806E-01  1.675037E-02  5.664488E-17  1.736196E-02  1.220015E-03  9.718379E-05  3.212709E-01  0.000000E+00
  6.219828E-01  2.804570E-02  1.000000E-01  6.346679E-01  1.874015E-02 -4.248366E-17  1.691657E-02  1.085073E-03  1.006995E-04  3.306815E-01  0.000000E+00
  6.504533E-01  2.978795E-02  1.000000E-01  6.637198E-01  2.051798E-02  5.664488E-17  1.636589E-02  9.351028E-04  1.036075E-04  3.443632E-01  0.000000E+00
  6.780742E-01  3.124322E-02  1.000000E-01  6.919049E-01  2.200298E-02  4.531591E-16  1.581899E-02  7.384740E-04  1.060477E-04  3.603550E-01  0.000000E+00
  7.047326E-01  3.231384E-02  1.000000E-01  7.191077E-01  2.309546E-02  0.000000E+00  1.539250E-02  5.008707E-04  1.082745E-04  3.749945E-01  0.000000E+00
  1.215943E-04  9.342868E-03  1.000000E-01  1.060953E-04 -3.446579E-04 -5.664488E-17 -4.544593E-02  8.106871E-02  6.988821E-05  7.514038E-01  0.000000E+00
  4.902502E-03  3.675440E-03  1.000000E-01  4.984645E-03 -6.127835E-03 -8.496732E-17 -1.684922E-02  1.961487E-02  5.497663E-05  9.384938E-01  0.000000E+00
  1.254908E-02  3.581577E-05  1.000000E-01  1.278739E-02 -9.841793E-03 -2.832244E-17  7.848392E-03 -2.040678E-03  4.109935E-05  5.436135E-01  0.000000E+00
  2.163699E-02 -2.351060E-03  1.000000E-01  2.206092E-02 -1.227742E-02  1.416122E-17  2.164506E-02 -4.459319E-03  3.515044E-05  3.420938E-01  0.000000E+00
  3.184423E-02 -4.025906E-03  1.000000E-01  3.247662E-02 -1.398647E-02 -2.832244E-17  2.740713E-02 -3.595105E-03  3.441065E-05  3.080624E-01  0.000000E+00
  4.311596E-02 -5.198914E-03  1.000000E-01  4.397856E-02 -1.518343E-02 -8.496732E-17  2.960564E-02 -2.379890E-03  3.497513E-05  2.727719E-01  0.000000E+00
  5.546913E-02 -5.913292E-03  1.000000E-01  5.658402E-02 -1.591240E-02  1.416122E-17  3.027201E-02 -1.406370E-03  3.575808E-05  2.401921E-01  0.000000E+00
  6.891473E-02 -6.382759E-03  1.000000E-01  7.030423E-02 -1.639146E-02 -8.496732E-17  3.050890E-02 -8.745169E-04  3.661336E-05  2.281580E-01  0.000000E+00
  8.348882E-02 -6.713976E-03  1.000000E-01  8.517597E-02 -1.672944E-02  5.664488E-17  3.063336E-02 -5.252380E-04  3.740615E-05  2.160610E-01  0.000000E+00
  9.923792E-02 -6.900873E-03  1.000000E-01  1.012467E-01 -1.692015E-02 -9.912855E-17  3.060324E-02 -1.671384E-04  3.814921E-05  1.971209E-01  0.000000E+00
  1.162051E-01 -6.885739E-03  1.000000E-01  1.185604E-01 -1.690471E-02 -8.496732E-17  3.038220E-02  2.001776E-04  3.892510E-05  1.802528E-01  0.000000E+00
  1.344203E-01 -6.661076E-03  1.000000E-01  1.371476E-01 -1.667546E-02 -8.496732E-17  2.999404E-02  5.217197E-04  3.976296E-05  1.709309E-01  0.000000E+00
  1.539027E-01 -6.224076E-03  1.000000E-01  1.570280E-01 -1.622953E-02  4.389978E-16  2.945859E-02  7.986282E-04  4.065419E-05  1.658825E-01  0.000000E+00
  1.746592E-01 -5.563941E-03  1.000000E-01  1.782083E-01 -1.555592E-02  3.257081E-16  2.885063E-02  1.017830E-03  4.165093E-05  1.639386E-01  0.000000E+00
  1.966815E-01 -4.709552E-03  1.000000E-01  2.006804E-01 -1.468408E-02 -2.832244E-17  2.830090E-02  1.163519E-03  4.285559E-05  1.651160E-01  0.000000E+00
  2.199461E-01 -3.699439E-03  1.000000E-01  2.244202E-01 -1.365333E-02 -4.248366E-17  2.793970E-02  1.247257E-03  4.439709E-05  1.669800E-01  0.000000E+00
  2.444131E-01 -2.577839E-03  1.000000E-01  2.493868E-01 -1.250883E-02  3.823530E-16  2.787581E-02  1.273666E-03  4.645431E-05  1.677675E-01  0.000000E+00
  7.047326E-01  3.231384E-02  1.000000E-01  7.191077E-01  2.309546E-02 -2.832244E-17  1.539250E-02  5.008707E-04  1.082745E-04  3.749945E-01  0.000000E+00
  7.303325E-01  3.293817E-02  1.000000E-01  7.452304E-01  2.373254E-02 -2.832244E-17  1.517806E-02  2.361971E-04  1.105513E-04  3.858896E-01  0.000000E+00
  7.547951E-01  3.309324E-02  1.000000E-01  7.701927E-01  2.389078E-02  4.389978E-16  1.525009E-02 -5.819260E-05  1.131223E-04  3.928611E-01  0.000000E+00
  7.780600E-01  3.276353E-02  1.000000E-01  7.939327E-01  2.355434E-02  1.416122E-17  1.566279E-02 -3.967081E-04  1.161712E-04  3.956797E-01  0.000000E+00
  8.000833E-01  3.196105E-02  1.000000E-01  8.164058E-01  2.273546E-02 -4.248366E-17  1.642745E-02 -7.933571E-04  1.197686E-04  3.936495E-01  0.000000E+00
  8.208376E-01  3.071829E-02  1.000000E-01  8.375840E-01  2.146733E-02 -2.832244E-17  1.747678E-02 -1.232116E-03  1.237792E-04  3.857180E-01  0.000000E+00
  8.403144E-01  2.914313E-02  1.000000E-01  8.574586E-01  1.985999E-02  4.389978E-16  1.864980E-02 -1.647989E-03  1.278273E-04  3.710696E-01  0.000000E+00
  8.585258E-01  2.739834E-02  1.000000E-01  8.760419E-01  1.807957E-02  3.965142E-16  1.974967E-02 -1.974521E-03  1.314240E-04  3.522139E-01  0.000000E+00
  8.754993E-01  2.562758E-02  1.000000E-01  8.933621E-01  1.627264E-02 -2.832244E-17  2.063203E-02 -2.193968E-03  1.340884E-04  3.333850E-01  0.000000E+00
  8.912718E-01  2.391404E-02  1.000000E-01  9.094567E-01  1.452411E-02 -2.832244E-17  2.128144E-02 -2.364214E-03  1.355279E-04  3.182756E-01  0.000000E+00
  9.058836E-01  2.225083E-02  1.000000E-01  9.243669E-01  1.282693E-02 -4.248366E-17  2.182286E-02 -2.570963E-03  1.358456E-04  3.074962E-01  0.000000E+00
  9.193796E-01  2.060219E-02  1.000000E-01  9.381386E-01  1.114462E-02 -5.664488E-17  2.244897E-02 -2.842230E-03  1.357295E-04  2.963793E-01  0.000000E+00
  9.318118E-01  1.896864E-02  1.000000E-01  9.508247E-01  9.477708E-03  4.248366E-17  2.336331E-02 -3.194333E-03  1.365934E-04  2.822490E-01  0.000000E+00
  9.432349E-01  1.734475E-02  1.000000E-01  9.624810E-01  7.820653E-03 -2.832244E-17  2.460572E-02 -3.643564E-03  1.394790E-04  2.656426E-01  0.000000E+00
  9.537058E-01  1.573022E-02  1.000000E-01  9.731658E-01  6.173143E-03  0.000000E+00  2.553675E-02 -4.089411E-03  1.419982E-04  2.409898E-01  0.000000E+00
  9.632829E-01  1.412933E-02  1.000000E-01  9.829385E-01  4.539556E-03 -2.832244E-17  2.455698E-02 -4.279316E-03  1.364250E-04  2.062260E-01  0.000000E+00
  9.720275E-01  1.257464E-02  1.000000E-01  9.918618E-01  2.953120E-03  0.000000E+00  2.087546E-02 -3.730787E-03  1.175526E-04  2.037117E-01  0.000000E+00
  9.800000E-01  1.108815E-02  1.000000E-01  9.999970E-01  1.436273E-03  1.416122E-17  1.389832E-02  4.374835E-03  7.500952E-05 -1.005834E-02  0.000000E+00
  1.215943E-04  1.002354E-02  1.000000E-01  1.060953E-04  3.499151E-04 -9.912855E-17  2.284853E-02  5.296488E-02  3.347477E-05  4.582059E-01  0.000000E+00
  7.278129E-05  9.908880E-03  1.000000E-01  5.628531E-05  2.329140E-04  1.416122E-17  1.552825E-02  7.596130E-02  4.628632E-05  2.982341E-01  0.000000E+00
  1.762252E-05  9.680628E-03  1.000000E-01  0.000000E+00  0.000000E+00  0.000000E+00 -1.214829E-02  1.219101E-01  6.714629E-05  3.380873E-01  0.000000E+00
  8.694958E-05  9.455461E-03  1.000000E-01  7.074296E-05 -2.297657E-04  0.000000E+00 -5.086020E-02  1.320569E-01  7.678896E-05  3.871972E-01  0.000000E+00
  1.215943E-04  9.342868E-03  1.000000E-01  1.060953E-04 -3.446579E-04 -4.248366E-17 -4.544593E-02  8.106871E-02  6.988821E-05  7.514038E-01  0.000000E+00
  9.800000E-01  1.108815E-02  1.000000E-01  9.999970E-01  1.436273E-03  0.000000E+00  1.389832E-02  4.374835E-03  7.500952E-05 -1.005834E-02  0.000000E+00
  9.800000E-01  1.125069E-02  1.000000E-01  9.999970E-01  1.602130E-03  0.000000E+00  4.509135E-03 -1.546981E-03 -1.281198E-05 -2.109691E-01  0.000000E+00
  9.800000E-01  1.157576E-02  1.000000E-01  9.999970E-01  1.933842E-03 -2.832244E-17 -4.417073E-04 -1.597006E-02 -1.114439E-04 -1.753152E-01  0.000000E+00
  9.800000E-01  1.190084E-02  1.000000E-01  9.999970E-01  2.265554E-03 -5.664488E-17  3.431323E-03 -1.965005E-02 -1.735034E-04 -1.936971E-01  0.000000E+00
  9.800000E-01  1.206337E-02  1.000000E-01  9.999970E-01  2.431410E-03  0.000000E+00  1.060430E-02 -1.316048E-02 -1.981167E-04 -5.646007E-02  0.000000E+00
  2.628044E-01  9.879250E-02  1.000000E-01  2.681538E-01  9.093185E-02 -2.832244E-17  5.527784E-02  4.304693E-03 -4.965651E-05 -1.206971E+00  0.000000E+00
  2.368706E-01  9.646176E-02  1.000000E-01  2.416903E-01  8.855351E-02  3.681917E-16  5.751131E-02  5.919224E-03 -4.171186E-05 -1.246914E+00  0.000000E+00
  2.121362E-01  9.358516E-02  1.000000E-01  2.164508E-01  8.561815E-02  1.416122E-17  5.982131E-02  7.807886E-03 -3.497282E-05 -1.277500E+00  0.000000E+00
  1.886687E-01  9.018040E-02  1.000000E-01  1.925040E-01  8.214386E-02 -4.248366E-17  6.202909E-02  9.948841E-03 -2.919119E-05 -1.293843E+00  0.000000E+00
  1.665185E-01  8.627971E-02  1.000000E-01  1.699014E-01  7.816350E-02  4.814815E-16  6.390668E-02  1.227554E-02 -2.417677E-05 -1.293476E+00  0.000000E+00
  1.457161E-01  8.194003E-02  1.000000E-01  1.486742E-01  7.373519E-02  4.531591E-16  6.530101E-02  1.471430E-02 -1.979299E-05 -1.277982E+00  0.000000E+00
  1.262764E-01  7.722110E-02  1.000000E-01  1.288374E-01  6.891989E-02  0.000000E+00  6.619505E-02  1.722860E-02 -1.590836E-05 -1.252571E+00  0.000000E+00
  1.081990E-01  7.218268E-02  1.000000E-01  1.103908E-01  6.377856E-02  0.000000E+00  6.662580E-02  1.979488E-02 -1.235515E-05 -1.224344E+00  0.000000E+00
  9.146971E-02  6.688714E-02  1.000000E-01  9.331986E-02  5.837487E-02  0.000000E+00  6.670291E-02  2.256793E-02 -8.995169E-06 -1.188493E+00  0.000000E+00
  7.608258E-02  6.133014E-02  1.000000E-01  7.761847E-02  5.270438E-02  0.000000E+00  6.638443E-02  2.571915E-02 -5.765681E-06 -1.126654E+00  0.000000E+00
  6.202881E-02  5.550104E-02  1.000000E-01  6.327767E-02  4.675623E-02 -5.664488E-17  6.533287E-02  2.910937E-02 -2.665458E-06 -1.021639E+00  0.000000E+00
  4.929579E-02  4.941671E-02  1.000000E-01  5.028460E-02  4.054764E-02 -8.496732E-17  6.319080E-02  3.219005E-02  3.017988E-07 -8.784904E-01  0.000000E+00
  3.782553E-02  4.318788E-02  1.000000E-01  3.858008E-02  3.419159E-02  4.248366E-17  6.009372E-02  3.474316E-02  3.192846E-06 -7.240199E-01  0.000000E+00
  2.757469E-02  3.686835E-02  1.000000E-01  2.811988E-02  2.774299E-02 -2.832244E-17  5.654449E-02  3.700837E-02  6.291774E-06 -6.058760E-01  0.000000E+00
  1.848362E-02  3.053483E-02  1.000000E-01  1.884314E-02  2.128012E-02  5.664488E-17  5.321943E-02  4.043726E-02  1.039530E-05 -5.082205E-01  0.000000E+00
  1.064273E-02  2.406141E-02  1.000000E-01  1.084211E-02  1.467449E-02  1.416122E-17  4.946771E-02  4.665866E-02  1.690196E-05 -2.685461E-01  0.000000E+00
  4.262692E-03  1.729813E-02  1.000000E-01  4.331769E-03  7.773078E-03  1.416122E-17  4.010568E-02  5.390013E-02  2.598602E-05  2.424418E-01  0.000000E+00
  1.215943E-04  1.002354E-02  1.000000E-01  1.060953E-04  3.499151E-04 -8.496732E-17  2.284853E-02  5.296488E-02  3.347477E-05  4.582059E-01  0.000000E+00
    1    2
    2    3
    3    4
    4    5
    5    6
    6    7
    7    8
    8    9
    9   10
   10   11
   11   12
   12   13
   13   14
   14   15
   15   16
   16   17
   18   19
   19   20
   20   21
   21   22
   22   23
   23   24
   24   25
   25   26
   26   27
   27   28
   28   29
   29   30
   30   31
   31   32
   32   33
   33   34
   35   36
   36   37
   37   38
   38   39
   39   40
   40   41
   41   42
   42   43
   43   44
   44   45
   45   46
   46   47
   47   48
   48   49
   49   50
   50   51
   52   53
   53   54
   54   55
   55   56
   56   57
   57   58
   58   59
   59   60
   60   61
   61   62
   62   63
   63   64
   64   65
   65   66
   66   67
   67   68
   69   70
   70   71
   71   72
   72   73
   73   74
   74   75
   75   76
   76   77
   77   78
   78   79
   79   80
   80   81
   81   82
   82   83
   83   84
   84   85
   85   86
   87   88
   88   89
   89   90
   90   91
   92   93
   93   94
   94   95
   95   96
   97   98
   98   99
   99  100
  100  101
  101  102
  102  103
  103  104
  104  105
  105  106
  106  107
  107  108
  108  109
  109  110
  110  111
  111  112
  112  113
  113  114
Zone T= "Slice_0002 None Relative Regular z = 0.36666667"
 Nodes =          114  Elements=          106  ZONETYPE=FELINESEG
 DATAPACKING=POINT
  7.301402E-01  6.672879E-02  3.666667E-01  7.450347E-01  5.824011E-02 -5.664491E-17  2.570381E-02 -4.235440E-03 -5.938032E-04 -4.285914E-01  0.000000E+00
  7.043967E-01  7.082688E-02  3.666667E-01  7.187653E-01  6.242190E-02 -1.132898E-16  2.701981E-02 -4.148771E-03 -5.864136E-04 -4.626121E-01  0.000000E+00
  6.775455E-01  7.480196E-02  3.666667E-01  6.913657E-01  6.647816E-02  3.058825E-14  2.814513E-02 -4.021598E-03 -5.752430E-04 -4.945728E-01  0.000000E+00
  6.496792E-01  7.864083E-02  3.666667E-01  6.629303E-01  7.039545E-02 -1.699347E-16  2.911620E-02 -3.884982E-03 -5.611641E-04 -5.276579E-01  0.000000E+00
  6.209097E-01  8.235384E-02  3.666667E-01  6.335732E-01  7.418429E-02  0.000000E+00  3.004063E-02 -3.749596E-03 -5.450925E-04 -5.640872E-01  0.000000E+00
  5.913667E-01  8.591556E-02  3.666667E-01  6.034268E-01  7.781875E-02  1.132898E-16  3.105026E-02 -3.605126E-03 -5.275469E-04 -6.042393E-01  0.000000E+00
  5.611982E-01  8.928440E-02  3.666667E-01  5.726422E-01  8.125640E-02  2.265797E-16  3.224518E-02 -3.443723E-03 -5.082764E-04 -6.490443E-01  0.000000E+00
  5.305654E-01  9.240807E-02  3.666667E-01  5.413837E-01  8.444387E-02  1.132898E-16  3.369996E-02 -3.256407E-03 -4.865459E-04 -7.002882E-01  0.000000E+00
  4.996398E-01  9.523340E-02  3.666667E-01  5.098265E-01  8.732690E-02 -1.699347E-16  3.548484E-02 -3.018622E-03 -4.615775E-04 -7.590829E-01  0.000000E+00
  4.685986E-01  9.768334E-02  3.666667E-01  4.781513E-01  8.982687E-02  1.132898E-16  3.765499E-02 -2.683484E-03 -4.328404E-04 -8.238599E-01  0.000000E+00
  4.376215E-01  9.966140E-02  3.666667E-01  4.465415E-01  9.184534E-02 -5.664491E-17  4.019315E-02 -2.200561E-03 -3.999958E-04 -8.908466E-01  0.000000E+00
  4.068895E-01  1.010746E-01  3.666667E-01  4.151819E-01  9.328739E-02 -5.664491E-17  4.297927E-02 -1.531268E-03 -3.630651E-04 -9.554040E-01  0.000000E+00
  3.765814E-01  1.018506E-01  3.666667E-01  3.842547E-01  9.407924E-02  5.664491E-17  4.581004E-02 -6.769825E-04 -3.227340E-04 -1.014948E+00  0.000000E+00
  3.468696E-01  1.019743E-01  3.666667E-01  3.539361E-01  9.420546E-02 -5.664491E-17  4.851682E-02  3.428250E-04 -2.808200E-04 -1.068247E+00  0.000000E+00
  3.179133E-01  1.014471E-01  3.666667E-01  3.243884E-01  9.366754E-02  0.000000E+00  5.103882E-02  1.518100E-03 -2.399763E-04 -1.114810E+00  0.000000E+00
  2.898519E-01  1.002869E-01  3.666667E-01  2.957538E-01  9.248363E-02  5.664491E-17  5.338340E-02  2.826083E-03 -2.024141E-04 -1.157677E+00  0.000000E+00
  2.628044E-01  9.853501E-02  3.666667E-01  2.681540E-01  9.069594E-02  5.664491E-17  5.562079E-02  4.253641E-03 -1.691982E-04 -1.200876E+00  0.000000E+00
  9.800000E-01  1.180257E-02  3.666667E-01  9.999976E-01  2.192070E-03  5.664491E-17  1.059451E-02 -1.305936E-02 -6.315030E-04 -5.700980E-02  0.000000E+00
  9.720124E-01  1.391446E-02  3.666667E-01  9.918469E-01  4.347096E-03  0.000000E+00  1.215022E-02 -3.283620E-03 -5.967544E-04  6.947879E-02  0.000000E+00
  9.632634E-01  1.624163E-02  3.666667E-01  9.829192E-01  6.721802E-03  1.132898E-16  9.195619E-03 -2.382981E-03 -5.073127E-04  2.279002E-02  0.000000E+00
  9.536907E-01  1.877254E-02  3.666667E-01  9.731510E-01  9.304402E-03 -5.664491E-17  7.354014E-03 -1.933104E-03 -4.453071E-04  4.945274E-03  0.000000E+00
  9.432303E-01  2.149144E-02  3.666667E-01  9.624769E-01  1.207883E-02 -1.699347E-16  6.953719E-03 -1.790978E-03 -4.234383E-04 -1.478217E-02  0.000000E+00
  9.318220E-01  2.440168E-02  3.666667E-01  9.508356E-01  1.504851E-02 -5.664491E-17  7.678716E-03 -1.936770E-03 -4.303227E-04 -4.041203E-02  0.000000E+00
  9.194070E-01  2.750635E-02  3.666667E-01  9.381670E-01  1.821659E-02  0.000000E+00  9.041031E-03 -2.233700E-03 -4.513709E-04 -6.793299E-02  0.000000E+00
  9.059278E-01  3.080357E-02  3.666667E-01  9.244125E-01  2.158115E-02 -1.132898E-16  1.063640E-02 -2.567715E-03 -4.765604E-04 -9.721718E-02  0.000000E+00
  8.913299E-01  3.428744E-02  3.666667E-01  9.095165E-01  2.513618E-02  0.000000E+00  1.226804E-02 -2.887758E-03 -5.010422E-04 -1.287950E-01  0.000000E+00
  8.755643E-01  3.795264E-02  3.666667E-01  8.934289E-01  2.887624E-02 -1.132898E-16  1.390844E-02 -3.185870E-03 -5.234940E-04 -1.627752E-01  0.000000E+00
  8.585885E-01  4.178846E-02  3.666667E-01  8.761063E-01  3.279040E-02  3.098477E-14  1.559696E-02 -3.464649E-03 -5.440502E-04 -1.987367E-01  0.000000E+00
  8.403666E-01  4.577263E-02  3.666667E-01  8.575123E-01  3.685594E-02  3.098477E-14  1.734451E-02 -3.718545E-03 -5.623485E-04 -2.360745E-01  0.000000E+00
  8.208730E-01  4.987560E-02  3.666667E-01  8.376206E-01  4.104271E-02 -5.664491E-17  1.911757E-02 -3.935958E-03 -5.773585E-04 -2.744627E-01  0.000000E+00
  8.000947E-01  5.406478E-02  3.666667E-01  8.164179E-01  4.531745E-02 -5.664491E-17  2.087619E-02 -4.105445E-03 -5.883112E-04 -3.136259E-01  0.000000E+00
  7.780326E-01  5.830092E-02  3.666667E-01  7.939052E-01  4.964011E-02 -1.132898E-16  2.258668E-02 -4.216761E-03 -5.948332E-04 -3.530583E-01  0.000000E+00
  7.547032E-01  6.253896E-02  3.666667E-01  7.700993E-01  5.396471E-02  3.075819E-14  2.421156E-02 -4.260993E-03 -5.966962E-04 -3.917936E-01  0.000000E+00
  7.301402E-01  6.672879E-02  3.666667E-01  7.450347E-01  5.824011E-02 -5.664491E-17  2.570381E-02 -4.235440E-03 -5.938032E-04 -4.285914E-01  0.000000E+00
  2.444131E-01 -2.812204E-03  3.666667E-01  2.493870E-01 -1.272119E-02  3.092812E-14  2.814019E-02  1.248709E-03  1.549403E-04  1.654806E-01  0.000000E+00
  2.700250E-01 -1.681333E-03  3.666667E-01  2.755220E-01 -1.156722E-02  5.664491E-17  2.841026E-02  1.233275E-03  1.656199E-04  1.635074E-01  0.000000E+00
  2.967058E-01 -5.456019E-04  3.666667E-01  3.027478E-01 -1.040830E-02 -5.664491E-17  2.880863E-02  1.263124E-03  1.790096E-04  1.553146E-01  0.000000E+00
  3.243554E-01  6.985210E-04  3.666667E-01  3.309620E-01 -9.138765E-03  3.070154E-14  2.897438E-02  1.417384E-03  1.951216E-04  1.421161E-01  0.000000E+00
  3.528511E-01  2.202117E-03  3.666667E-01  3.600398E-01 -7.604459E-03 -5.664491E-17  2.850373E-02  1.716636E-03  2.131574E-04  1.302188E-01  0.000000E+00
  3.820469E-01  4.182972E-03  3.666667E-01  3.898318E-01 -5.583147E-03 -1.132898E-16  2.713677E-02  2.110962E-03  2.314346E-04  1.274216E-01  0.000000E+00
  4.117740E-01  6.810827E-03  3.666667E-01  4.201661E-01 -2.901620E-03  1.132898E-16  2.495058E-02  2.480657E-03  2.479682E-04  1.408237E-01  0.000000E+00
  4.418498E-01  1.016264E-02  3.666667E-01  4.508562E-01  5.186504E-04 -1.699347E-16  2.238617E-02  2.685930E-03  2.615109E-04  1.707224E-01  0.000000E+00
  4.721105E-01  1.408786E-02  3.666667E-01  4.817350E-01  4.524036E-03 -1.132898E-16  2.022136E-02  2.525507E-03  2.731902E-04  2.226846E-01  0.000000E+00
  5.024968E-01  1.772326E-02  3.666667E-01  5.127419E-01  8.233693E-03  5.664491E-17  1.892048E-02  2.083294E-03  2.845057E-04  2.776763E-01  0.000000E+00
  5.328693E-01  2.074334E-02  3.666667E-01  5.437346E-01  1.131546E-02 -2.265797E-16  1.827677E-02  1.680262E-03  2.959119E-04  3.044518E-01  0.000000E+00
  5.630297E-01  2.327612E-02  3.666667E-01  5.745111E-01  1.389996E-02  1.132898E-16  1.792708E-02  1.408766E-03  3.079390E-04  3.114917E-01  0.000000E+00
  5.927917E-01  2.545295E-02  3.666667E-01  6.048809E-01  1.612125E-02  0.000000E+00  1.759708E-02  1.230784E-03  3.200294E-04  3.170552E-01  0.000000E+00
  6.219828E-01  2.739743E-02  3.666667E-01  6.346683E-01  1.810545E-02  5.664491E-17  1.714497E-02  1.096991E-03  3.308819E-04  3.264785E-01  0.000000E+00
  6.504533E-01  2.913943E-02  3.666667E-01  6.637202E-01  1.988302E-02 -1.132898E-16  1.658699E-02  9.477621E-04  3.400287E-04  3.402162E-01  0.000000E+00
  6.780742E-01  3.059942E-02  3.666667E-01  6.919053E-01  2.137283E-02  3.092812E-14  1.603240E-02  7.512505E-04  3.478860E-04  3.562752E-01  0.000000E+00
  7.047326E-01  3.167990E-02  3.666667E-01  7.191081E-01  2.247538E-02 -5.664491E-17  1.559818E-02  5.132629E-04  3.551521E-04  3.709946E-01  0.000000E+00
  1.215943E-04  9.316571E-03  3.666667E-01  1.060954E-04 -3.446989E-04 -2.265797E-16 -4.448983E-02  7.940868E-02  2.165660E-04  7.557337E-01  0.000000E+00
  4.902502E-03  3.647198E-03  3.666667E-01  4.984648E-03 -6.129863E-03  5.664491E-17 -1.616360E-02  1.899133E-02  1.685843E-04  9.362075E-01  0.000000E+00
  1.254908E-02  4.263786E-06  3.666667E-01  1.278740E-02 -9.847201E-03  2.265797E-16  8.248477E-03 -2.205839E-03  1.247345E-04  5.393244E-01  0.000000E+00
  2.163699E-02 -2.386813E-03  3.666667E-01  2.206093E-02 -1.228711E-02  5.664491E-17  2.189209E-02 -4.524102E-03  1.061347E-04  3.382842E-01  0.000000E+00
  3.184423E-02 -4.066710E-03  3.666667E-01  3.247663E-02 -1.400132E-02  0.000000E+00  2.762929E-02 -3.639146E-03  1.039615E-04  3.049718E-01  0.000000E+00
  4.311596E-02 -5.245700E-03  3.666667E-01  4.397858E-02 -1.520439E-02 -1.132898E-16  2.983861E-02 -2.415429E-03  1.059217E-04  2.700692E-01  0.000000E+00
  5.546913E-02 -5.967127E-03  3.666667E-01  5.658405E-02 -1.594055E-02 -5.664491E-17  3.051344E-02 -1.436033E-03  1.086064E-04  2.376717E-01  0.000000E+00
  6.891473E-02 -6.444866E-03  3.666667E-01  7.030427E-02 -1.642805E-02  1.699347E-16  3.075506E-02 -9.015635E-04  1.116395E-04  2.258072E-01  0.000000E+00
  8.348882E-02 -6.785773E-03  3.666667E-01  8.517602E-02 -1.677592E-02  2.832246E-16  3.088348E-02 -5.511232E-04  1.146749E-04  2.138691E-01  0.000000E+00
  9.923792E-02 -6.984011E-03  3.666667E-01  1.012468E-01 -1.697821E-02 -1.132898E-16  3.085619E-02 -1.917900E-04  1.177888E-04  1.950350E-01  0.000000E+00
  1.162051E-01 -6.982135E-03  3.666667E-01  1.185605E-01 -1.697629E-02  5.664491E-17  3.063569E-02  1.768608E-04  1.212528E-04  1.782229E-01  0.000000E+00
  1.344203E-01 -6.772945E-03  3.666667E-01  1.371477E-01 -1.676283E-02  0.000000E+00  3.024563E-02  4.993634E-04  1.251536E-04  1.689320E-01  0.000000E+00
  1.539027E-01 -6.353957E-03  3.666667E-01  1.570281E-01 -1.633528E-02  3.064490E-14  2.970655E-02  7.768727E-04  1.294386E-04  1.638959E-01  0.000000E+00
  1.746592E-01 -5.714728E-03  3.666667E-01  1.782084E-01 -1.568300E-02  3.109806E-14  2.909535E-02  9.961923E-04  1.342355E-04  1.619363E-01  0.000000E+00
  1.966815E-01 -4.884502E-03  3.666667E-01  2.006805E-01 -1.483582E-02 -1.132898E-16  2.854581E-02  1.141365E-03  1.398205E-04  1.630627E-01  0.000000E+00
  2.199461E-01 -3.902154E-03  3.666667E-01  2.244203E-01 -1.383340E-02 -1.699347E-16  2.819071E-02  1.224017E-03  1.465467E-04  1.648347E-01  0.000000E+00
  2.444131E-01 -2.812204E-03  3.666667E-01  2.493870E-01 -1.272119E-02  3.092812E-14  2.814019E-02  1.248709E-03  1.549403E-04  1.654806E-01  0.000000E+00
  7.047326E-01  3.167990E-02  3.666667E-01  7.191081E-01  2.247538E-02 -5.664491E-17  1.559818E-02  5.132629E-04  3.551521E-04  3.709946E-01  0.000000E+00