 Title= "ADflow Lift Distribution Data"
Variables = "eta" "CoordinateX" "CoordinateY" "CoordinateZ" "Lift" "Drag" "Moment" "Normalized Lift" "Normalized Drag" "Normalized Moment" "CL" "CD" "CM" "CLp" "CDp" "CMp" "CLv" "CDv" "CMv" "Elliptical" "thickness" "twist" "chord" "fx" "fy" "fz" 
Zone T= "LiftDist_01 allWalls: : z normal"
 I=          150
 DATAPACKING=BLOCK
  0.000000E+00
  6.711405E-03
  1.342281E-02
  2.013422E-02
  2.684563E-02
  3.355704E-02
  4.026845E-02
  4.697986E-02
  5.369127E-02
  6.040268E-02
  6.711409E-02
  7.382550E-02
  8.053691E-02
  8.724832E-02
  9.395973E-02
  1.006711E-01
  1.073825E-01
  1.140940E-01
  1.208054E-01
  1.275168E-01
  1.342282E-01
  1.409396E-01
  1.476510E-01
  1.543624E-01
  1.610738E-01
  1.677852E-01
  1.744966E-01
  1.812081E-01
  1.879195E-01
  1.946309E-01
  2.013423E-01
  2.080537E-01
  2.147651E-01
  2.214765E-01
  2.281879E-01
  2.348993E-01
  2.416107E-01
  2.483221E-01
  2.550336E-01
  2.617450E-01
  2.684564E-01
  2.751678E-01
  2.818792E-01
  2.885906E-01
  2.953020E-01
  3.020134E-01
  3.087248E-01
  3.154362E-01
  3.221476E-01
  3.288591E-01
  3.355705E-01
  3.422819E-01
  3.489933E-01
  3.557047E-01
  3.624161E-01
  3.691275E-01
  3.758389E-01
  3.825503E-01
  3.892617E-01
  3.959732E-01
  4.026846E-01
  4.093960E-01
  4.161074E-01
  4.228188E-01
  4.295302E-01
  4.362416E-01
  4.429530E-01
  4.496644E-01
  4.563758E-01
  4.630872E-01
  4.697987E-01
  4.765101E-01
  4.832215E-01
  4.899329E-01
  4.966443E-01
  5.033557E-01
  5.100671E-01
  5.167785E-01
  5.234899E-01
  5.302013E-01
  5.369128E-01
  5.436242E-01
  5.503356E-01
  5.570470E-01
  5.637584E-01
  5.704698E-01
  5.771812E-01
  5.838926E-01
  5.906040E-01
  5.973154E-01
  6.040268E-01
  6.107383E-01
  6.174497E-01
  6.241611E-01
  6.308725E-01
  6.375839E-01
  6.442953E-01
  6.510067E-01
  6.577181E-01
  6.644295E-01
  6.711409E-01
  6.778524E-01
  6.845638E-01
  6.912752E-01
  6.979866E-01
  7.046980E-01
  7.114094E-01
  7.181208E-01
  7.248322E-01
  7.315436E-01
  7.382550E-01
  7.449664E-01
  7.516779E-01
  7.583893E-01
  7.651007E-01
  7.718121E-01
  7.785235E-01
  7.852349E-01
  7.919463E-01
  7.986577E-01
  8.053691E-01
  8.120805E-01
  8.187919E-01
  8.255034E-01
  8.322148E-01
  8.389262E-01
  8.456376E-01
  8.523490E-01
  8.590604E-01
  8.657718E-01
  8.724832E-01
  8.791946E-01
  8.859060E-01
  8.926175E-01
  8.993289E-01
  9.060403E-01
  9.127517E-01
  9.194631E-01
  9.261745E-01
  9.328859E-01
  9.395973E-01
  9.463087E-01
  9.530201E-01
  9.597315E-01
  9.664430E-01
  9.731544E-01
  9.798658E-01
  9.865772E-01
  9.932886E-01
  1.000000E+00
  0.000000E+00
  0.000000E+00
  0.000000E+00
  0.000000E+00
  0.000000E+00
  0.000000E+00
  0.000000E+00
  0.000000E+00
  0.000000E+00
  0.000000E+00
  0.000000E+00
  0.000000E+00
  0.000000E+00
  0.000000E+00
  0.000000E+00
  0.000000E+00
  0.000000E+00
  0.000000E+00
  0.000000E+00
  0.000000E+00
  0.000000E+00
  0.000000E+00
  0.000000E+00
  0.000000E+00
  0.000000E+00
  0.000000E+00
  0.000000E+00
  0.000000E+00
  0.000000E+00
  0.000000E+00
  0.000000E+00
  0.000000E+00
  0.000000E+00
  0.000000E+00
  0.000000E+00
  0.000000E+00
  0.000000E+00
  0.000000E+00
  0.000000E+00
  0.000000E+00
  0.000000E+00
  0.000000E+00
  0.000000E+00
  0.000000E+00
  0.000000E+00
  0.000000E+00
  0.000000E+00
  0.000000E+00
  0.000000E+00
  0.000000E+00
  0.000000E+00
  0.000000E+00
  0.000000E+00
  0.000000E+00
  0.000000E+00
  0.000000E+00
  0.000000E+00
  0.000000E+00
  0.000000E+00
  0.000000E+00
  0.000000E+00
  0.000000E+00
  0.000000E+00
  0.000000E+00
  0.000000E+00
  0.000000E+00
  0.000000E+00
  0.000000E+00
  0.000000E+00
  0.000000E+00
  0.000000E+00
  0.000000E+00
  0.000000E+00
  0.000000E+00
  0.000000E+00
  0.000000E+00
  0.000000E+00
  0.000000E+00
  0.000000E+00
  0.000000E+00
  0.000000E+00
  0.000000E+00
  0.000000E+00
  0.000000E+00
  0.000000E+00
  0.000000E+00
  0.000000E+00
  0.000000E+00
  0.000000E+00
  0.000000E+00
  0.000000E+00
  0.000000E+00
  0.000000E+00
  0.000000E+00
  0.000000E+00
  0.000000E+00
  0.000000E+00
  0.000000E+00
  0.000000E+00
  0.000000E+00
  0.000000E+00
  0.000000E+00
  0.000000E+00
  0.000000E+00
  0.000000E+00
  0.000000E+00
  0.000000E+00
  0.000000E+00
  0.000000E+00
  0.000000E+00
  0.000000E+00
  0.000000E+00
  0.000000E+00
  0.000000E+00
  0.000000E+00
  0.000000E+00
  0.000000E+00
  0.000000E+00
  0.000000E+00
  0.000000E+00
  0.000000E+00
  0.000000E+00
  0.000000E+00
  0.000000E+00
  0.000000E+00
  0.000000E+00
  0.000000E+00
  0.000000E+00
  0.000000E+00
  0.000000E+00
  0.000000E+00
  0.000000E+00
  0.000000E+00
  0.000000E+00
  0.000000E+00
  0.000000E+00
  0.000000E+00
  0.000000E+00
  0.000000E+00
  0.000000E+00
  0.000000E+00
  0.000000E+00
  0.000000E+00
  0.000000E+00
  0.000000E+00
  0.000000E+00
  0.000000E+00
  0.000000E+00
  0.000000E+00
  0.000000E+00
  0.000000E+00
  0.000000E+00
  0.000000E+00
  0.000000E+00
  0.000000E+00
  0.000000E+00
  0.000000E+00
  0.000000E+00
  0.000000E+00
  0.000000E+00
  0.000000E+00
  0.000000E+00
  0.000000E+00
  0.000000E+00
  0.000000E+00
  0.000000E+00
  0.000000E+00
  0.000000E+00
  0.000000E+00
  0.000000E+00
  0.000000E+00
  0.000000E+00
  0.000000E+00
  0.000000E+00
  0.000000E+00
  0.000000E+00
  0.000000E+00
  0.000000E+00
  0.000000E+00
  0.000000E+00
  0.000000E+00
  0.000000E+00
  0.000000E+00
  0.000000E+00
  0.000000E+00
  0.000000E+00
  0.000000E+00
  0.000000E+00
  0.000000E+00
  0.000000E+00
  0.000000E+00
  0.000000E+00
  0.000000E+00
  0.000000E+00
  0.000000E+00
  0.000000E+00
  0.000000E+00
  0.000000E+00
  0.000000E+00
  0.000000E+00
  0.000000E+00
  0.000000E+00
  0.000000E+00
  0.000000E+00
  0.000000E+00
  0.000000E+00
  0.000000E+00
  0.000000E+00
  0.000000E+00
  0.000000E+00
  0.000000E+00
  0.000000E+00
  0.000000E+00
  0.000000E+00
  0.000000E+00
  0.000000E+00
  0.000000E+00
  0.000000E+00
  0.000000E+00
  0.000000E+00
  0.000000E+00
  0.000000E+00
  0.000000E+00
  0.000000E+00
  0.000000E+00
  0.000000E+00
  0.000000E+00
  0.000000E+00
  0.000000E+00
  0.000000E+00
  0.000000E+00
  0.000000E+00
  0.000000E+00
  0.000000E+00
  0.000000E+00
  0.000000E+00
  0.000000E+00
  0.000000E+00
  0.000000E+00
  0.000000E+00
  0.000000E+00
  0.000000E+00
  0.000000E+00
  0.000000E+00
  0.000000E+00
  0.000000E+00
  0.000000E+00
  0.000000E+00
  0.000000E+00
  0.000000E+00
  0.000000E+00
  0.000000E+00
  0.000000E+00
  0.000000E+00
  0.000000E+00
  0.000000E+00
  0.000000E+00
  0.000000E+00
  0.000000E+00
  0.000000E+00
  0.000000E+00
  0.000000E+00
  0.000000E+00
  0.000000E+00
  0.000000E+00
  0.000000E+00
  0.000000E+00
  0.000000E+00
  0.000000E+00
  0.000000E+00
  0.000000E+00
  0.000000E+00
  0.000000E+00
  0.000000E+00
  0.000000E+00
  0.000000E+00
  0.000000E+00
  0.000000E+00
  0.000000E+00
  0.000000E+00
  0.000000E+00
  0.000000E+00
  0.000000E+00
  0.000000E+00
  0.000000E+00
  0.000000E+00
  0.000000E+00
  0.000000E+00
  0.000000E+00
  0.000000E+00
  0.000000E+00
  0.000000E+00
  0.000000E+00
  0.000000E+00
  0.000000E+00
  0.000000E+00
  0.000000E+00
  0.000000E+00
  0.000000E+00
  0.000000E+00
  1.000000E-08
  1.695085E-02
  3.390169E-02
  5.085254E-02
  6.780338E-02
  8.475423E-02
  1.017051E-01
  1.186559E-01
  1.356068E-01
  1.525576E-01
  1.695085E-01
  1.864593E-01
  2.034101E-01
  2.203610E-01
  2.373118E-01
  2.542627E-01
  2.712135E-01
  2.881644E-01
  3.051152E-01
  3.220661E-01
  3.390169E-01
  3.559678E-01
  3.729186E-01
  3.898694E-01
  4.068203E-01
  4.237711E-01
  4.407220E-01
  4.576728E-01
  4.746237E-01
  4.915745E-01
  5.085254E-01
  5.254762E-01
  5.424271E-01
  5.593779E-01
  5.763287E-01
  5.932796E-01
  6.102304E-01
  6.271813E-01
  6.441321E-01
  6.610830E-01
  6.780338E-01
  6.949847E-01
  7.119355E-01
  7.288864E-01
  7.458372E-01
  7.627880E-01
  7.797389E-01
  7.966897E-01
  8.136406E-01
  8.305914E-01
  8.475423E-01
  8.644931E-01
  8.814440E-01
  8.983948E-01
  9.153457E-01
  9.322965E-01
  9.492473E-01
  9.661982E-01
  9.831490E-01
  1.000100E+00
  1.017051E+00
  1.034002E+00
  1.050952E+00
  1.067903E+00
  1.084854E+00
  1.101805E+00
  1.118756E+00
  1.135707E+00
  1.152657E+00
  1.169608E+00
  1.186559E+00
  1.203510E+00
  1.220461E+00
  1.237412E+00
  1.254363E+00
  1.271313E+00
  1.288264E+00
  1.305215E+00
  1.322166E+00
  1.339117E+00
  1.356068E+00
  1.373018E+00
  1.389969E+00
  1.406920E+00
  1.423871E+00
  1.440822E+00
  1.457773E+00
  1.474724E+00
  1.491674E+00
  1.508625E+00
  1.525576E+00
  1.542527E+00
  1.559478E+00
  1.576429E+00
  1.593379E+00
  1.610330E+00
  1.627281E+00
  1.644232E+00
  1.661183E+00
  1.678134E+00
  1.695085E+00
  1.712035E+00
  1.728986E+00
  1.745937E+00
  1.762888E+00
  1.779839E+00
  1.796790E+00
  1.813740E+00
  1.830691E+00
  1.847642E+00
  1.864593E+00
  1.881544E+00
  1.898495E+00
  1.915446E+00
  1.932396E+00
  1.949347E+00
  1.966298E+00
  1.983249E+00
  2.000200E+00
  2.017151E+00
  2.034101E+00
  2.051052E+00
  2.068003E+00
  2.084954E+00
  2.101905E+00
  2.118856E+00
  2.135807E+00
  2.152757E+00
  2.169708E+00
  2.186659E+00
  2.203610E+00
  2.220561E+00
  2.237512E+00
  2.254462E+00
  2.271413E+00
  2.288364E+00
  2.305315E+00
  2.322266E+00
  2.339217E+00
  2.356168E+00
  2.373118E+00
  2.390069E+00
  2.407020E+00
  2.423971E+00
  2.440922E+00
  2.457873E+00
  2.474823E+00
  2.491774E+00
  2.508725E+00
  2.525676E+00
  1.104598E+04
  1.104448E+04
  1.104298E+04
  1.104148E+04
  1.103998E+04
  1.103847E+04
  1.103697E+04
  1.103547E+04
  1.103397E+04
  1.102875E+04
  1.102344E+04
  1.101812E+04
  1.101281E+04
  1.100750E+04
  1.100219E+04
  1.099687E+04
  1.099017E+04
  1.098089E+04
  1.097162E+04
  1.096235E+04
  1.095308E+04
  1.094381E+04
  1.093455E+04
  1.092491E+04
  1.091234E+04
  1.089977E+04
  1.088721E+04
  1.087464E+04
  1.086207E+04
  1.084951E+04
  1.083616E+04
  1.082023E+04
  1.080430E+04
  1.078836E+04
  1.077243E+04
  1.075650E+04
  1.074057E+04
  1.072219E+04
  1.070274E+04
  1.068329E+04
  1.066385E+04
  1.064440E+04
  1.062496E+04
  1.060384E+04
  1.058096E+04
  1.055808E+04
  1.053520E+04
  1.051233E+04
  1.048945E+04
  1.046465E+04
  1.043851E+04
  1.041236E+04
  1.038622E+04
  1.036007E+04
  1.033393E+04
  1.030472E+04
  1.027545E+04
  1.024619E+04
  1.021693E+04
  1.018767E+04
  1.015643E+04
  1.012417E+04
  1.009191E+04
  1.005965E+04
  1.002740E+04
  9.993356E+03
  9.958145E+03
  9.922936E+03
  9.887729E+03
  9.852525E+03
  9.814909E+03
  9.776691E+03
  9.738475E+03
  9.700263E+03
  9.661316E+03
  9.619979E+03
  9.578646E+03
  9.537317E+03
  9.495991E+03
  9.451758E+03
  9.407204E+03
  9.362655E+03
  9.318111E+03
  9.270983E+03
  9.223131E+03
  9.175285E+03
  9.127444E+03
  9.076715E+03
  9.025549E+03
  8.974389E+03
  8.922742E+03
  8.868302E+03
  8.813870E+03
  8.759447E+03
  8.703000E+03
  8.645309E+03
  8.587633E+03
  8.529094E+03
  8.468118E+03
  8.407166E+03
  8.345984E+03
  8.281721E+03
  8.217491E+03
  8.153127E+03
  8.085410E+03
  8.017731E+03
  7.949434E+03
  7.877991E+03
  7.806586E+03
  7.733458E+03
  7.658108E+03
  7.582792E+03
  7.504104E+03
  7.424806E+03
  7.344055E+03
  7.260870E+03
  7.177582E+03
  7.090642E+03
  7.003719E+03
  6.913828E+03
  6.823238E+03
  6.730111E+03
  6.635865E+03
  6.539043E+03
  6.441036E+03
  6.340079E+03
  6.238276E+03
  6.132958E+03
  6.026699E+03
  5.917871E+03
  5.807159E+03
  5.695066E+03
  5.580163E+03
  5.463573E+03
  5.345196E+03
  5.224249E+03
  5.100545E+03
  4.974442E+03
  4.846127E+03
  4.716903E+03
  4.591079E+03
  4.478949E+03
  4.397995E+03
  4.383156E+03
  4.471577E+03
  4.432103E+03
  3.992377E+03
  4.500251E+03
  1.316410E+03
 -1.457205E-04
  6.262410E+02
  6.263614E+02
  6.264818E+02
  6.266024E+02
  6.267230E+02
  6.268436E+02
  6.269644E+02
  6.270852E+02
  6.272061E+02
  6.272912E+02
  6.273756E+02
  6.274599E+02
  6.275444E+02
  6.276289E+02
  6.277134E+02
  6.277980E+02
  6.278233E+02
  6.277395E+02
  6.276559E+02
  6.275722E+02
  6.274885E+02
  6.274049E+02
  6.273213E+02
  6.272362E+02
  6.271390E+02
  6.270417E+02
  6.269445E+02
  6.268473E+02
  6.267501E+02
  6.266529E+02
  6.265440E+02
  6.263964E+02
  6.262488E+02
  6.261012E+02
  6.259536E+02
  6.258060E+02
  6.256584E+02
  6.254454E+02
  6.252037E+02
  6.249621E+02
  6.247205E+02
  6.244790E+02
  6.242374E+02
  6.239349E+02
  6.235681E+02
  6.232014E+02
  6.228347E+02
  6.224681E+02
  6.221015E+02
  6.216247E+02
  6.210706E+02
  6.205165E+02
  6.199625E+02
  6.194085E+02
  6.188545E+02
  6.180226E+02
  6.171862E+02
  6.163496E+02
  6.155130E+02
  6.146762E+02
  6.135894E+02
  6.123742E+02
  6.111587E+02
  6.099429E+02
  6.087268E+02
  6.072385E+02
  6.055714E+02
  6.039039E+02
  6.022361E+02
  6.005679E+02
  5.985084E+02
  5.963506E+02
  5.941925E+02
  5.920341E+02
  5.897659E+02
  5.871416E+02
  5.845172E+02
  5.818928E+02
  5.792683E+02
  5.762891E+02
  5.732706E+02
  5.702523E+02
  5.672345E+02
  5.639858E+02
  5.606727E+02
  5.573606E+02
  5.540493E+02
  5.505933E+02
  5.471165E+02
  5.436411E+02
  5.401581E+02
  5.366253E+02
  5.330948E+02
  5.295665E+02
  5.260048E+02
  5.224241E+02
  5.188467E+02
  5.152487E+02
  5.115875E+02
  5.079307E+02
  5.042752E+02
  5.005865E+02
  4.969027E+02
  4.932243E+02
  4.895588E+02
  4.858979E+02
  4.822456E+02
  4.786179E+02
  4.749936E+02
  4.714064E+02
  4.678650E+02
  4.643256E+02
  4.609166E+02
  4.575325E+02
  4.542306E+02
  4.510643E+02
  4.479061E+02
  4.450090E+02
  4.421099E+02
  4.394924E+02
  4.369395E+02
  4.346714E+02
  4.325274E+02
  4.306784E+02
  4.289642E+02
  4.276019E+02
  4.263404E+02
  4.255600E+02
  4.249351E+02
  4.247439E+02
  4.249530E+02
  4.254681E+02
  4.267217E+02
  4.285052E+02
  4.308713E+02
  4.341355E+02
  4.384802E+02
  4.439660E+02
  4.509832E+02
  4.602515E+02
  4.732220E+02
  4.926937E+02
  5.232313E+02
  5.728417E+02
  6.492528E+02
  7.158778E+02
  7.280691E+02
  8.787782E+02
  2.031104E+02
  3.863391E-04
  1.789333E+03
  1.788942E+03
  1.788551E+03
  1.788160E+03
  1.787769E+03
  1.787379E+03
  1.786988E+03
  1.786598E+03
  1.786208E+03
  1.784726E+03
  1.783218E+03
  1.781710E+03
  1.780202E+03
  1.778694E+03
  1.777186E+03
  1.775678E+03
  1.773799E+03
  1.771238E+03
  1.768677E+03
  1.766117E+03
  1.763556E+03
  1.760995E+03
  1.758434E+03
  1.755800E+03
  1.752576E+03
  1.749351E+03
  1.746127E+03
  1.742902E+03
  1.739678E+03
  1.736453E+03
  1.733076E+03
  1.729187E+03
  1.725299E+03
  1.721411E+03
  1.717523E+03
  1.713635E+03
  1.709747E+03
  1.705367E+03
  1.700771E+03
  1.696175E+03
  1.691579E+03
  1.686984E+03
  1.682388E+03
  1.677506E+03
  1.672320E+03
  1.667135E+03
  1.661950E+03
  1.656765E+03
  1.651581E+03
  1.646243E+03
  1.640797E+03
  1.635351E+03
  1.629974E+03
  1.624529E+03
  1.619085E+03
  1.613777E+03
  1.608472E+03
  1.603167E+03
  1.597863E+03
  1.592559E+03
  1.587480E+03
  1.582451E+03
  1.577488E+03
  1.572525E+03
  1.567563E+03
  1.562808E+03
  1.558190E+03
  1.553572E+03
  1.548955E+03
  1.544338E+03
  1.539970E+03
  1.535665E+03
  1.531361E+03
  1.527057E+03
  1.522819E+03
  1.518788E+03
  1.514759E+03
  1.510731E+03
  1.506704E+03
  1.502772E+03
  1.498853E+03
  1.494935E+03
  1.491018E+03
  1.486927E+03
  1.482789E+03
  1.478653E+03
  1.474519E+03
  1.469951E+03
  1.465318E+03
  1.460689E+03
  1.455963E+03
  1.450670E+03
  1.445380E+03
  1.440095E+03
  1.434223E+03
  1.427992E+03
  1.421767E+03
  1.415206E+03
  1.407697E+03
  1.400198E+03
  1.392606E+03
  1.383775E+03
  1.374956E+03
  1.366088E+03
  1.355993E+03
  1.345911E+03
  1.335600E+03
  1.324124E+03
  1.312662E+03
  1.300544E+03
  1.287581E+03
  1.274629E+03
  1.260428E+03
  1.246001E+03
  1.231053E+03
  1.215233E+03
  1.199375E+03
  1.182233E+03
  1.165094E+03
  1.146997E+03
  1.128673E+03
  1.109718E+03
  1.090486E+03
  1.070829E+03
  1.050978E+03
  1.030854E+03
  1.010654E+03
  9.904285E+02
  9.702892E+02
  9.504187E+02
  9.309940E+02
  9.119175E+02
  8.938643E+02
  8.765849E+02
  8.601481E+02
  8.450016E+02
  8.313428E+02
  8.192456E+02
  8.093641E+02
  8.031335E+02
  8.038626E+02
  8.186559E+02
  8.593783E+02
  9.444518E+02
  1.088403E+03
  1.199219E+03
  1.135284E+03
  1.292711E+03
  1.990142E+02
 -1.112438E-10
  1.244946E+00
  1.244776E+00
  1.244607E+00
  1.244438E+00
  1.244268E+00
  1.244099E+00
  1.243930E+00
  1.243761E+00
  1.243592E+00
  1.243003E+00
  1.242405E+00
  1.241806E+00
  1.241207E+00
  1.240608E+00
  1.240009E+00
  1.239411E+00
  1.238655E+00
  1.237610E+00
  1.236565E+00
  1.235520E+00
  1.234475E+00
  1.233431E+00
  1.232386E+00
  1.231300E+00
  1.229883E+00
  1.228467E+00
  1.227051E+00
  1.225634E+00
  1.224218E+00
  1.222802E+00
  1.221298E+00
  1.219502E+00
  1.217706E+00
  1.215910E+00
  1.214115E+00
  1.212319E+00
  1.210523E+00
  1.208452E+00
  1.206260E+00
  1.204068E+00
  1.201876E+00
  1.199685E+00
  1.197493E+00
  1.195113E+00
  1.192535E+00
  1.189956E+00
  1.187378E+00
  1.184800E+00
  1.182222E+00
  1.179427E+00
  1.176479E+00
  1.173533E+00
  1.170586E+00
  1.167640E+00
  1.164694E+00
  1.161401E+00
  1.158102E+00
  1.154804E+00
  1.151507E+00
  1.148209E+00
  1.144688E+00
  1.141052E+00
  1.137416E+00
  1.133780E+00
  1.130145E+00
  1.126309E+00
  1.122340E+00
  1.118372E+00
  1.114404E+00
  1.110436E+00
  1.106196E+00
  1.101889E+00
  1.097582E+00
  1.093275E+00
  1.088886E+00
  1.084227E+00
  1.079568E+00
  1.074910E+00
  1.070253E+00
  1.065267E+00
  1.060246E+00
  1.055225E+00
  1.050204E+00
  1.044893E+00
  1.039500E+00
  1.034107E+00
  1.028715E+00
  1.022998E+00
  1.017231E+00
  1.011465E+00
  1.005644E+00
  9.995084E-01
  9.933736E-01
  9.872398E-01
  9.808779E-01
  9.743759E-01
  9.678754E-01
  9.612778E-01
  9.544054E-01
  9.475357E-01
  9.406402E-01
  9.333974E-01
  9.261584E-01
  9.189041E-01
  9.112720E-01
  9.036442E-01
  8.959467E-01
  8.878947E-01
  8.798470E-01
  8.716050E-01
  8.631127E-01
  8.546241E-01
  8.457555E-01
  8.368182E-01
  8.277171E-01
  8.183417E-01
  8.089546E-01
  7.991559E-01
  7.893593E-01
  7.792280E-01
  7.690181E-01
  7.585221E-01
  7.479000E-01
  7.369876E-01
  7.259417E-01
  7.145632E-01
  7.030894E-01
  6.912195E-01
  6.792435E-01
  6.669779E-01
  6.545001E-01
  6.418665E-01
  6.289163E-01
  6.157759E-01
  6.024342E-01
  5.888028E-01
  5.748606E-01
  5.606481E-01
  5.461863E-01
  5.316220E-01
  5.174409E-01
  5.048032E-01
  4.956792E-01
  4.940068E-01
  5.039723E-01
  4.995234E-01
  4.499638E-01
  5.072041E-01
  1.483669E-01
 -1.642353E-08
  1.120674E+00
  1.120890E+00
  1.121105E+00
  1.121321E+00
  1.121537E+00
  1.121753E+00
  1.121969E+00
  1.122185E+00
  1.122401E+00
  1.122554E+00
  1.122705E+00
  1.122856E+00
  1.123007E+00
  1.123158E+00
  1.123309E+00
  1.123461E+00
  1.123506E+00
  1.123356E+00
  1.123206E+00
  1.123057E+00
  1.122907E+00
  1.122757E+00
  1.122608E+00
  1.122455E+00
  1.122281E+00
  1.122107E+00
  1.121933E+00
  1.121759E+00
  1.121585E+00
  1.121411E+00
  1.121217E+00
  1.120952E+00
  1.120688E+00
  1.120424E+00
  1.120160E+00
  1.119896E+00
  1.119632E+00
  1.119251E+00
  1.118818E+00
  1.118386E+00
  1.117953E+00
  1.117521E+00
  1.117089E+00
  1.116548E+00
  1.115891E+00
  1.115235E+00
  1.114579E+00
  1.113923E+00
  1.113267E+00
  1.112413E+00
  1.111422E+00
  1.110430E+00
  1.109439E+00
  1.108447E+00
  1.107456E+00
  1.105967E+00
  1.104470E+00
  1.102973E+00
  1.101476E+00
  1.099979E+00
  1.098034E+00
  1.095859E+00
  1.093684E+00
  1.091508E+00
  1.089332E+00
  1.086669E+00
  1.083685E+00
  1.080702E+00
  1.077717E+00
  1.074732E+00
  1.071046E+00
  1.067185E+00
  1.063323E+00
  1.059460E+00
  1.055401E+00
  1.050705E+00
  1.046009E+00
  1.041312E+00
  1.036616E+00
  1.031284E+00
  1.025882E+00
  1.020481E+00
  1.015081E+00
  1.009267E+00
  1.003338E+00
  9.974111E-01
  9.914854E-01
  9.853008E-01
  9.790789E-01
  9.728597E-01
  9.666267E-01
  9.603047E-01
  9.539867E-01
  9.476728E-01
  9.412990E-01
  9.348914E-01
  9.284896E-01
  9.220507E-01
  9.154989E-01
  9.089551E-01
  9.024135E-01
  8.958123E-01
  8.892202E-01
  8.826376E-01
  8.760780E-01
  8.695267E-01
  8.629909E-01
  8.564990E-01
  8.500132E-01
  8.435939E-01
  8.372564E-01
  8.309225E-01
  8.248221E-01
  8.187661E-01
  8.128574E-01
  8.071912E-01
  8.015395E-01
  7.963551E-01
  7.911670E-01
  7.864828E-01
  7.819144E-01
  7.778556E-01
  7.740188E-01
  7.707101E-01
  7.676424E-01
  7.652046E-01
  7.629472E-01
  7.615505E-01
  7.604323E-01
  7.600901E-01
  7.604643E-01
  7.613860E-01
  7.636295E-01
  7.668210E-01
  7.710553E-01
  7.768967E-01
  7.846715E-01
  7.944886E-01
  8.070459E-01
  8.236318E-01
  8.468429E-01
  8.816880E-01
  9.363358E-01
  1.025115E+00
  1.161855E+00
  1.281082E+00
  1.302898E+00
  1.572596E+00
  3.634712E-01
  6.913637E-07
  1.238609E+00
  1.238338E+00
  1.238067E+00
  1.237797E+00
  1.237526E+00
  1.237256E+00
  1.236985E+00
  1.236715E+00
  1.236445E+00
  1.235420E+00
  1.234376E+00
  1.233332E+00
  1.232288E+00
  1.231244E+00
  1.230200E+00
  1.229156E+00
  1.227856E+00
  1.226083E+00
  1.224310E+00
  1.222538E+00
  1.220765E+00
  1.218993E+00
  1.217220E+00
  1.215396E+00
  1.213164E+00
  1.210932E+00
  1.208700E+00
  1.206468E+00
  1.204236E+00
  1.202004E+00
  1.199666E+00
  1.196975E+00
  1.194283E+00
  1.191592E+00
  1.188900E+00
  1.186209E+00
  1.183518E+00
  1.180486E+00
  1.177304E+00
  1.174123E+00
  1.170942E+00
  1.167760E+00
  1.164579E+00
  1.161200E+00
  1.157610E+00
  1.154021E+00
  1.150432E+00
  1.146843E+00
  1.143254E+00
  1.139559E+00
  1.135789E+00
  1.132020E+00
  1.128298E+00
  1.124528E+00
  1.120760E+00
  1.117086E+00
  1.113413E+00
  1.109741E+00
  1.106069E+00
  1.102398E+00
  1.098882E+00
  1.095401E+00
  1.091966E+00
  1.088530E+00
  1.085095E+00
  1.081804E+00
  1.078607E+00
  1.075410E+00
  1.072214E+00
  1.069019E+00
  1.065995E+00
  1.063015E+00
  1.060035E+00
  1.057057E+00
  1.054123E+00
  1.051333E+00
  1.048543E+00
  1.045755E+00
  1.042968E+00
  1.040246E+00
  1.037533E+00
  1.034821E+00
  1.032110E+00
  1.029278E+00
  1.026413E+00
  1.023550E+00
  1.020688E+00
  1.017526E+00
  1.014320E+00
  1.011115E+00
  1.007844E+00
  1.004180E+00
  1.000518E+00
  9.968599E-01
  9.927954E-01
  9.884819E-01
  9.841725E-01
  9.796312E-01
  9.744336E-01
  9.692423E-01
  9.639869E-01
  9.578738E-01
  9.517696E-01
  9.456311E-01
  9.386426E-01
  9.316639E-01
  9.245266E-01
  9.165828E-01
  9.086483E-01
  9.002601E-01
  8.912866E-01
  8.823212E-01
  8.724913E-01
  8.625042E-01
  8.521569E-01
  8.412061E-01
  8.302294E-01
  8.183628E-01
  8.064994E-01
  7.939720E-01
  7.812875E-01
  7.681671E-01
  7.548541E-01
  7.412474E-01
  7.275057E-01
  7.135758E-01
  6.995929E-01
  6.855925E-01
  6.716517E-01
  6.578969E-01
  6.444508E-01
  6.312458E-01
  6.187490E-01
  6.067879E-01
  5.954101E-01
  5.849253E-01
  5.754705E-01
  5.670966E-01
  5.602565E-01
  5.559435E-01
  5.564482E-01
  5.666884E-01
  5.948772E-01
  6.537666E-01
  7.534125E-01
  8.301210E-01
  7.858639E-01
  8.948376E-01
  1.377612E-01
 -7.700496E-14
  9.876795E-01
  9.875453E-01
  9.874111E-01
  9.872770E-01
  9.871429E-01
  9.870088E-01
  9.868748E-01
  9.867408E-01
  9.866068E-01
  9.861400E-01
  9.856651E-01
  9.851901E-01
  9.847152E-01
  9.842403E-01
  9.837654E-01
  9.832905E-01
  9.826907E-01
  9.818619E-01
  9.810331E-01
  9.802043E-01
  9.793756E-01
  9.785468E-01
  9.777181E-01
  9.768566E-01
  9.757330E-01
  9.746093E-01
  9.734857E-01
  9.723622E-01
  9.712386E-01
  9.701151E-01
  9.689219E-01
  9.674972E-01
  9.660725E-01
  9.646479E-01
  9.632234E-01
  9.617988E-01
  9.603744E-01
  9.587311E-01
  9.569922E-01
  9.552533E-01
  9.535145E-01
  9.517758E-01
  9.500372E-01
  9.481491E-01
  9.461033E-01
  9.440577E-01
  9.420121E-01
  9.399668E-01
  9.379215E-01
  9.357040E-01
  9.333660E-01
  9.310281E-01
  9.286904E-01
  9.263529E-01
  9.240155E-01
  9.214030E-01
  9.187864E-01
  9.161699E-01
  9.135536E-01
  9.109375E-01
  9.081438E-01
  9.052592E-01
  9.023747E-01
  8.994904E-01
  8.966063E-01
  8.935625E-01
  8.904140E-01
  8.872657E-01
  8.841177E-01
  8.809698E-01
  8.776062E-01
  8.741888E-01
  8.707716E-01
  8.673547E-01
  8.638722E-01
  8.601758E-01
  8.564797E-01
  8.527840E-01
  8.490886E-01
  8.451332E-01
  8.411490E-01
  8.371653E-01
  8.331819E-01
  8.289674E-01
  8.246882E-01
  8.204094E-01
  8.161310E-01
  8.115943E-01
  8.070184E-01
  8.024430E-01
  7.978241E-01
  7.929551E-01
  7.880869E-01
  7.832194E-01
  7.781708E-01
  7.730108E-01
  7.678520E-01
  7.626160E-01
  7.571618E-01
  7.517097E-01
  7.462370E-01
  7.404886E-01
  7.347431E-01
  7.289855E-01
  7.229282E-01
  7.168743E-01
  7.107650E-01
  7.043748E-01
  6.979879E-01
  6.914472E-01
  6.847081E-01
  6.779719E-01
  6.709349E-01
  6.638435E-01
  6.566223E-01
  6.491840E-01
  6.417365E-01
  6.339631E-01
  6.261914E-01
  6.181547E-01
  6.100557E-01
  6.017303E-01
  5.933051E-01
  5.846500E-01
  5.758892E-01
  5.668650E-01
  5.577651E-01
  5.483515E-01
  5.388536E-01
  5.291262E-01
  5.192303E-01
  5.092107E-01
  4.989398E-01
  4.885179E-01
  4.779359E-01
  4.671238E-01
  4.560648E-01
  4.447908E-01
  4.333187E-01
  4.217648E-01
  4.105143E-01
  4.004874E-01
  3.932476E-01
  3.919191E-01
  3.998228E-01
  3.962903E-01
  3.569694E-01
  4.023753E-01
  1.616736E-01
 -3.169411E-03
  5.599550E-02
  5.600627E-02
  5.601705E-02
  5.602784E-02
  5.603863E-02
  5.604943E-02
  5.606024E-02
  5.607105E-02
  5.608186E-02
  5.608949E-02
  5.609703E-02
  5.610459E-02
  5.611214E-02
  5.611971E-02
  5.612727E-02
  5.613484E-02
  5.613711E-02
  5.612963E-02
  5.612215E-02
  5.611468E-02
  5.610720E-02
  5.609973E-02
  5.609226E-02
  5.608466E-02
  5.607597E-02
  5.606728E-02
  5.605859E-02
  5.604990E-02
  5.604122E-02
  5.603253E-02
  5.602280E-02
  5.600960E-02
  5.599641E-02
  5.598321E-02
  5.597002E-02
  5.595683E-02
  5.594363E-02
  5.592459E-02
  5.590298E-02
  5.588138E-02
  5.585978E-02
  5.583819E-02
  5.581659E-02
  5.578955E-02
  5.575675E-02
  5.572396E-02
  5.569117E-02
  5.565839E-02
  5.562562E-02
  5.558298E-02
  5.553344E-02
  5.548389E-02
  5.543435E-02
  5.538482E-02
  5.533528E-02
  5.526090E-02
  5.518611E-02
  5.511131E-02
  5.503650E-02
  5.496168E-02
  5.486450E-02
  5.475584E-02
  5.464716E-02
  5.453845E-02
  5.442971E-02
  5.429663E-02
  5.414756E-02
  5.399846E-02
  5.384932E-02
  5.370016E-02
  5.351601E-02
  5.332306E-02
  5.313008E-02
  5.293708E-02
  5.273426E-02
  5.249959E-02
  5.226492E-02
  5.203024E-02
  5.179556E-02
  5.152915E-02
  5.125922E-02
  5.098932E-02
  5.071945E-02
  5.042894E-02
  5.013267E-02
  4.983647E-02
  4.954035E-02
  4.923129E-02
  4.892036E-02
  4.860955E-02
  4.829806E-02
  4.798211E-02
  4.766635E-02
  4.735079E-02
  4.703224E-02
  4.671198E-02
  4.639201E-02
  4.607018E-02
  4.574269E-02
  4.541560E-02
  4.508861E-02
  4.475864E-02
  4.442911E-02
  4.410006E-02
  4.377216E-02
  4.344467E-02
  4.311795E-02
  4.279345E-02
  4.246924E-02
  4.214837E-02
  4.183160E-02
  4.151501E-02
  4.121012E-02
  4.090746E-02
  4.061217E-02
  4.032901E-02
  4.004659E-02
  3.978756E-02
  3.952834E-02
  3.929433E-02
  3.906612E-02
  3.886339E-02
  3.867177E-02
  3.850657E-02
  3.835343E-02
  3.823179E-02
  3.811916E-02
  3.804958E-02
  3.799390E-02
  3.797703E-02
  3.799594E-02
  3.804221E-02
  3.815453E-02
  3.831421E-02
  3.852597E-02
  3.881803E-02
  3.920667E-02
  3.969732E-02
  4.032487E-02
  4.115367E-02
  4.231345E-02
  4.405445E-02
  4.678484E-02
  5.122054E-02
  5.805247E-02
  6.400920E-02
  6.509866E-02
  7.857308E-02
  2.494481E-02
  8.402850E-03
  1.599937E-01
  1.599587E-01
  1.599238E-01
  1.598889E-01
  1.598540E-01
  1.598191E-01
  1.597842E-01
  1.597493E-01
  1.597144E-01
  1.595820E-01
  1.594472E-01
  1.593123E-01
  1.591775E-01
  1.590427E-01
  1.589079E-01
  1.587731E-01
  1.586050E-01
  1.583761E-01
  1.581471E-01
  1.579182E-01
  1.576892E-01
  1.574603E-01
  1.572313E-01
  1.569958E-01
  1.567075E-01
  1.564192E-01
  1.561309E-01
  1.558426E-01
  1.555543E-01
  1.552660E-01
  1.549640E-01
  1.546163E-01
  1.542687E-01
  1.539210E-01
  1.535734E-01
  1.532257E-01
  1.528781E-01
  1.524864E-01
  1.520755E-01
  1.516645E-01
  1.512536E-01
  1.508427E-01
  1.504318E-01
  1.499953E-01
  1.495316E-01
  1.490679E-01
  1.486043E-01
  1.481407E-01
  1.476772E-01
  1.471999E-01
  1.467129E-01
  1.462260E-01
  1.457452E-01
  1.452584E-01
  1.447715E-01
  1.442969E-01
  1.438226E-01
  1.433482E-01
  1.428740E-01
  1.423997E-01
  1.419455E-01
  1.414959E-01
  1.410521E-01
  1.406084E-01
  1.401647E-01
  1.397395E-01
  1.393265E-01
  1.389136E-01
  1.385008E-01
  1.380880E-01
  1.376974E-01
  1.373124E-01
  1.369275E-01
  1.365427E-01
  1.361637E-01
  1.358033E-01
  1.354430E-01
  1.350828E-01
  1.347227E-01
  1.343711E-01
  1.340205E-01
  1.336701E-01
  1.333199E-01
  1.329540E-01
  1.325839E-01
  1.322139E-01
  1.318442E-01
  1.314356E-01
  1.310213E-01
  1.306072E-01
  1.301844E-01
  1.297110E-01
  1.292378E-01
  1.287650E-01
  1.282398E-01
  1.276823E-01
  1.271254E-01
  1.265385E-01
  1.258668E-01
  1.251959E-01
  1.245167E-01
  1.237266E-01
  1.229377E-01
  1.221444E-01
  1.212413E-01
  1.203394E-01
  1.194171E-01
  1.183906E-01
  1.173653E-01
  1.162814E-01
  1.151220E-01
  1.139637E-01
  1.126937E-01
  1.114035E-01
  1.100668E-01
  1.086522E-01
  1.072343E-01
  1.057016E-01
  1.041692E-01
  1.025512E-01
  1.009129E-01
  9.921845E-02
  9.749910E-02
  9.574189E-02
  9.396728E-02
  9.216843E-02
  9.036271E-02
  8.855481E-02
  8.675460E-02
  8.497843E-02
  8.324212E-02
  8.153693E-02
  7.992321E-02
  7.837864E-02
  7.690937E-02
  7.555542E-02
  7.433445E-02
  7.325303E-02
  7.236967E-02
  7.181268E-02
  7.187789E-02
  7.320052E-02
  7.684150E-02
  8.444799E-02
  9.731881E-02
  1.072265E-01
  1.015088E-01
  1.155835E-01
  2.444175E-02
 -2.419545E-09
  9.878155E-01
  9.876814E-01
  9.875474E-01
  9.874133E-01
  9.872793E-01
  9.871453E-01
  9.870114E-01
  9.868775E-01
  9.867436E-01
  9.862771E-01
  9.858024E-01
  9.853277E-01
  9.848530E-01
  9.843783E-01
  9.839037E-01
  9.834290E-01
  9.828296E-01
  9.820011E-01
  9.811727E-01
  9.803443E-01
  9.795159E-01
  9.786875E-01
  9.778591E-01
  9.769980E-01
  9.758748E-01