 Title = "ADflow Slice Data"
Variables =  "CoordinateX"  "CoordinateY"  "CoordinateZ"  "XoC"  "YoC"  "ZoC" "VelocityX" "VelocityY" "VelocityZ" "CoefPressure" "Mach" 
Zone T= "Slice_0001 None Relative Regular z = 0.10000000"
 Nodes =          114  Elements=          106  ZONETYPE=FELINESEG
 DATAPACKING=POINT
  7.301402E-01  6.743076E-02  1.000000E-01  7.450353E-01  5.892625E-02  1.416124E-17  2.477163E-02 -4.292120E-03 -3.048781E-04 -4.316288E-01  0.000000E+00
  7.043967E-01  7.177349E-02  1.000000E-01  7.187659E-01  6.335768E-02 -4.248372E-17  2.621099E-02 -4.255289E-03 -3.313393E-04 -4.710014E-01  0.000000E+00
  6.775455E-01  7.600624E-02  1.000000E-01  6.913663E-01  6.767688E-02  3.965147E-16  2.754627E-02 -4.168660E-03 -3.493073E-04 -5.095975E-01  0.000000E+00
  6.496792E-01  8.008989E-02  1.000000E-01  6.629308E-01  7.184394E-02  4.248372E-17  2.880159E-02 -4.047510E-03 -3.541376E-04 -5.489379E-01  0.000000E+00
  6.209097E-01  8.399599E-02  1.000000E-01  6.335737E-01  7.582982E-02 -2.832248E-17  3.004012E-02 -3.896802E-03 -3.430610E-04 -5.898400E-01  0.000000E+00
  5.913667E-01  8.767599E-02  1.000000E-01  6.034273E-01  7.958498E-02 -2.832248E-17  3.133537E-02 -3.714093E-03 -3.162503E-04 -6.325240E-01  0.000000E+00
  5.611982E-01  9.108424E-02  1.000000E-01  5.726427E-01  8.306284E-02  0.000000E+00  3.274940E-02 -3.498547E-03 -2.762347E-04 -6.779667E-01  0.000000E+00
  5.305654E-01  9.417097E-02  1.000000E-01  5.413841E-01  8.621262E-02 -5.664496E-17  3.434212E-02 -3.246125E-03 -2.269989E-04 -7.279828E-01  0.000000E+00
  4.996398E-01  9.689257E-02  1.000000E-01  5.098269E-01  8.898981E-02  0.000000E+00  3.618056E-02 -2.939002E-03 -1.732419E-04 -7.839035E-01  0.000000E+00
  4.685986E-01  9.918788E-02  1.000000E-01  4.781517E-01  9.133200E-02  1.416124E-17  3.832106E-02 -2.537608E-03 -1.198277E-04 -8.444765E-01  0.000000E+00
  4.376215E-01  1.009802E-01  1.000000E-01  4.465419E-01  9.316098E-02 -8.496744E-17  4.075048E-02 -1.999307E-03 -7.140963E-05 -9.064144E-01  0.000000E+00
  4.068895E-01  1.021972E-01  1.000000E-01  4.151822E-01  9.440283E-02  0.000000E+00  4.336263E-02 -1.293707E-03 -3.195586E-05 -9.658043E-01  0.000000E+00
  3.765814E-01  1.027848E-01  1.000000E-01  3.842550E-01  9.500244E-02 -5.664496E-17  4.598154E-02 -4.286905E-04 -3.996447E-06 -1.020919E+00  0.000000E+00
  3.468696E-01  1.027418E-01  1.000000E-01  3.539364E-01  9.495854E-02 -5.664496E-17  4.847557E-02  5.773646E-04  1.227318E-05 -1.071037E+00  0.000000E+00
  3.179133E-01  1.020749E-01  1.000000E-01  3.243887E-01  9.427794E-02 -2.832248E-17  5.081754E-02  1.723748E-03  1.900278E-05 -1.115575E+00  0.000000E+00
  2.898519E-01  1.007995E-01  1.000000E-01  2.957541E-01  9.297658E-02 -4.248372E-17  5.302892E-02  2.996501E-03  1.941252E-05 -1.157277E+00  0.000000E+00
  2.628044E-01  9.895386E-02  1.000000E-01  2.681542E-01  9.109320E-02  0.000000E+00  5.517594E-02  4.387287E-03  1.649993E-05 -1.199922E+00  0.000000E+00
  9.800000E-01  1.142082E-02  1.000000E-01  9.999984E-01  1.772308E-03 -2.832248E-17  1.057874E-02 -1.314167E-02 -1.129328E-04 -5.527866E-02  0.000000E+00
  9.720124E-01  1.353577E-02  1.000000E-01  9.918477E-01  3.930452E-03 -2.832248E-17  1.214012E-02 -3.289808E-03 -1.282686E-04  7.064235E-02  0.000000E+00
  9.632634E-01  1.586789E-02  1.000000E-01  9.829200E-01  6.310206E-03 -2.832248E-17  9.109603E-03 -2.368351E-03 -1.082100E-04  2.415360E-02  0.000000E+00
  9.536907E-01  1.840602E-02  1.000000E-01  9.731518E-01  8.900178E-03 -2.832248E-17  7.190780E-03 -1.898316E-03 -9.350187E-05  6.726707E-03  0.000000E+00
  9.432303E-01  2.113500E-02  1.000000E-01  9.624777E-01  1.168490E-02  1.416124E-17  6.726171E-03 -1.741301E-03 -8.813995E-05 -1.253536E-02  0.000000E+00
  9.318220E-01  2.405918E-02  1.000000E-01  9.508364E-01  1.466881E-02  1.416124E-17  7.395349E-03 -1.876773E-03 -9.003083E-05 -3.770568E-02  0.000000E+00
  9.194070E-01  2.718291E-02  1.000000E-01  9.381678E-01  1.785634E-02 -8.496744E-17  8.706490E-03 -2.167082E-03 -9.644328E-05 -6.475122E-02  0.000000E+00
  9.059278E-01  3.050591E-02  1.000000E-01  9.244133E-01  2.124721E-02 -5.664496E-17  1.024957E-02 -2.496842E-03 -1.055502E-04 -9.354098E-02  0.000000E+00
  8.913299E-01  3.402429E-02  1.000000E-01  9.095172E-01  2.483745E-02  0.000000E+00  1.181665E-02 -2.812547E-03 -1.166093E-04 -1.246355E-01  0.000000E+00
  8.755643E-01  3.773522E-02  1.000000E-01  8.934297E-01  2.862418E-02 -2.832248E-17  1.336906E-02 -3.104334E-03 -1.297651E-04 -1.581848E-01  0.000000E+00
  8.585885E-01  4.163096E-02  1.000000E-01  8.761071E-01  3.259948E-02  4.106760E-16  1.494965E-02 -3.376889E-03 -1.457043E-04 -1.938227E-01  0.000000E+00
  8.403666E-01  4.569269E-02  1.000000E-01  8.575130E-01  3.674418E-02  3.965147E-16  1.659005E-02 -3.630477E-03 -1.650535E-04 -2.310334E-01  0.000000E+00
  8.208730E-01  4.989476E-02  1.000000E-01  8.376213E-01  4.103207E-02 -8.496744E-17  1.827207E-02 -3.857283E-03 -1.879930E-04 -2.696119E-01  0.000000E+00
  8.000947E-01  5.420864E-02  1.000000E-01  8.164186E-01  4.543406E-02 -2.832248E-17  1.995840E-02 -4.046157E-03 -2.143434E-04 -3.094352E-01  0.000000E+00
  7.780326E-01  5.859887E-02  1.000000E-01  7.939059E-01  4.991396E-02 -2.832248E-17  2.162005E-02 -4.186738E-03 -2.435640E-04 -3.501891E-01  0.000000E+00
  7.547032E-01  6.302298E-02  1.000000E-01  7.701000E-01  5.442844E-02  4.389985E-16  2.323334E-02 -4.270188E-03 -2.744721E-04 -3.911924E-01  0.000000E+00
  7.301402E-01  6.743076E-02  1.000000E-01  7.450353E-01  5.892625E-02  2.832248E-17  2.477163E-02 -4.292120E-03 -3.048781E-04 -4.316288E-01  0.000000E+00
  2.444131E-01 -2.450645E-03  1.000000E-01  2.493872E-01 -1.238248E-02  3.681922E-16  2.791597E-02  1.312248E-03  2.481424E-05  1.654732E-01  0.000000E+00
  2.700250E-01 -1.243913E-03  1.000000E-01  2.755223E-01 -1.115110E-02 -4.248372E-17  2.815924E-02  1.308864E-03  2.356072E-05  1.635794E-01  0.000000E+00
  2.967058E-01 -1.531931E-05  1.000000E-01  3.027480E-01 -9.897414E-03 -2.832248E-17  2.851466E-02  1.352497E-03  2.319075E-05  1.556417E-01  0.000000E+00
  3.243554E-01  1.341950E-03  1.000000E-01  3.309623E-01 -8.512423E-03  4.248372E-16  2.862163E-02  1.519655E-03  2.482521E-05  1.429922E-01  0.000000E+00
  3.528511E-01  2.982082E-03  1.000000E-01  3.600401E-01 -6.838791E-03 -4.248372E-17  2.808101E-02  1.826300E-03  2.982546E-05  1.320552E-01  0.000000E+00
  3.820469E-01  5.124408E-03  1.000000E-01  3.898322E-01 -4.652708E-03  5.664496E-17  2.664118E-02  2.215421E-03  3.927634E-05  1.307744E-01  0.000000E+00
  4.117740E-01  7.932565E-03  1.000000E-01  4.201665E-01 -1.787195E-03 -5.664496E-17  2.439067E-02  2.562950E-03  5.332131E-05  1.462464E-01  0.000000E+00
  4.418498E-01  1.147070E-02  1.000000E-01  4.508565E-01  1.823206E-03 -2.832248E-17  2.178081E-02  2.733969E-03  7.095865E-05  1.784424E-01  0.000000E+00
  4.721105E-01  1.557183E-02  1.000000E-01  4.817354E-01  6.008099E-03 -5.664496E-17  1.958840E-02  2.543252E-03  9.037217E-05  2.324021E-01  0.000000E+00
  5.024968E-01  1.935437E-02  1.000000E-01  5.127423E-01  9.867898E-03  1.416124E-17  1.827650E-02  2.081168E-03  1.106423E-04  2.889439E-01  0.000000E+00
  5.328693E-01  2.247431E-02  1.000000E-01  5.437351E-01  1.305157E-02 -4.248372E-17  1.764818E-02  1.658924E-03  1.317641E-04  3.170780E-01  0.000000E+00
  5.630297E-01  2.504438E-02  1.000000E-01  5.745116E-01  1.567413E-02  1.416124E-17  1.735046E-02  1.363333E-03  1.526783E-04  3.252006E-01  0.000000E+00
  5.927917E-01  2.718629E-02  1.000000E-01  6.048814E-01  1.785979E-02  5.664496E-17  1.711366E-02  1.157370E-03  1.710528E-04  3.311759E-01  0.000000E+00
  6.219828E-01  2.902047E-02  1.000000E-01  6.346688E-01  1.973143E-02 -4.248372E-17  1.679177E-02  9.951059E-04  1.843271E-04  3.401127E-01  0.000000E+00
  6.504533E-01  3.057966E-02  1.000000E-01  6.637208E-01  2.132247E-02  5.664496E-17  1.638361E-02  8.231941E-04  1.909482E-04  3.523575E-01  0.000000E+00
  6.780742E-01  3.180475E-02  1.000000E-01  6.919058E-01  2.257258E-02  4.531597E-16  1.597182E-02  6.157845E-04  1.910014E-04  3.659407E-01  0.000000E+00
  7.047326E-01  3.263292E-02  1.000000E-01  7.191087E-01  2.341766E-02  0.000000E+00  1.565225E-02  3.774821E-04  1.860648E-04  3.778704E-01  0.000000E+00
  1.215943E-04  9.346236E-03  1.000000E-01  1.060954E-04 -3.446499E-04 -5.664496E-17 -4.521270E-02  8.064807E-02  6.382576E-05  7.529081E-01  0.000000E+00
  4.902502E-03  3.679207E-03  1.000000E-01  4.984652E-03 -6.127428E-03 -8.496744E-17 -1.667902E-02  1.945774E-02  5.065683E-05  9.378069E-01  0.000000E+00
  1.254908E-02  4.029010E-05  1.000000E-01  1.278741E-02 -9.840669E-03 -2.832248E-17  7.940563E-03 -2.078205E-03  3.771266E-05  5.422796E-01  0.000000E+00
  2.163699E-02 -2.345628E-03  1.000000E-01  2.206095E-02 -1.227532E-02  1.416124E-17  2.168083E-02 -4.465032E-03  3.180502E-05  3.408415E-01  0.000000E+00
  3.184423E-02 -4.019233E-03  1.000000E-01  3.247666E-02 -1.398311E-02 -2.832248E-17  2.742149E-02 -3.593338E-03  3.067603E-05  3.068933E-01  0.000000E+00
  4.311596E-02 -5.190644E-03  1.000000E-01  4.397862E-02 -1.517844E-02 -8.496744E-17  2.961546E-02 -2.375964E-03  3.073524E-05  2.716140E-01  0.000000E+00
  5.546913E-02 -5.902967E-03  1.000000E-01  5.658410E-02 -1.590532E-02  1.416124E-17  3.028309E-02 -1.401255E-03  3.094323E-05  2.390136E-01  0.000000E+00
  6.891473E-02 -6.369789E-03  1.000000E-01  7.030432E-02 -1.638167E-02 -8.496744E-17  3.052332E-02 -8.682684E-04  3.113268E-05  2.269555E-01  0.000000E+00
  8.348882E-02 -6.697592E-03  1.000000E-01  8.517609E-02 -1.671617E-02  5.664496E-17  3.065180E-02 -5.176413E-04  3.115511E-05  2.148156E-01  0.000000E+00
  9.923792E-02 -6.880063E-03  1.000000E-01  1.012469E-01 -1.690237E-02 -9.912868E-17  3.062571E-02 -1.578401E-04  3.098895E-05  1.958025E-01  0.000000E+00
  1.162051E-01 -6.859167E-03  1.000000E-01  1.185606E-01 -1.688105E-02 -8.496744E-17  3.040843E-02  2.115832E-04  3.067348E-05  1.788376E-01  0.000000E+00
  1.344203E-01 -6.626974E-03  1.000000E-01  1.371478E-01 -1.664411E-02 -8.496744E-17  3.002368E-02  5.356636E-04  3.020593E-05  1.694029E-01  0.000000E+00
  1.539027E-01 -6.180095E-03  1.000000E-01  1.570282E-01 -1.618810E-02  4.389985E-16  2.949128E-02  8.156190E-04  2.954449E-05  1.642252E-01  0.000000E+00
  1.746592E-01 -5.506952E-03  1.000000E-01  1.782086E-01 -1.550121E-02  3.257085E-16  2.888614E-02  1.038504E-03  2.866878E-05  1.621347E-01  0.000000E+00
  1.966815E-01 -4.635378E-03  1.000000E-01  2.006807E-01 -1.461184E-02 -2.832248E-17  2.833911E-02  1.188745E-03  2.757010E-05  1.631511E-01  0.000000E+00
  2.199461E-01 -3.602491E-03  1.000000E-01  2.244205E-01 -1.355785E-02 -4.248372E-17  2.798004E-02  1.278286E-03  2.625393E-05  1.648465E-01  0.000000E+00
  2.444131E-01 -2.450645E-03  1.000000E-01  2.493872E-01 -1.238248E-02  3.823535E-16  2.791597E-02  1.312248E-03  2.481424E-05  1.654732E-01  0.000000E+00
  7.047326E-01  3.263292E-02  1.000000E-01  7.191087E-01  2.341766E-02 -2.832248E-17  1.565225E-02  3.774821E-04  1.860648E-04  3.778704E-01  0.000000E+00
  7.303325E-01  3.302716E-02  1.000000E-01  7.452315E-01  2.381995E-02 -2.832248E-17  1.550957E-02  1.166850E-04  1.783339E-04  3.865104E-01  0.000000E+00
  7.547951E-01  3.297851E-02  1.000000E-01  7.701938E-01  2.377031E-02  4.389985E-16  1.562118E-02 -1.728623E-04  1.697343E-04  3.918035E-01  0.000000E+00
  7.780600E-01  3.247758E-02  1.000000E-01  7.939338E-01  2.325915E-02  1.416124E-17  1.604840E-02 -5.069536E-04  1.615750E-04  3.933804E-01  0.000000E+00
  8.000833E-01  3.153725E-02  1.000000E-01  8.164069E-01  2.229961E-02 -4.248372E-17  1.680995E-02 -8.994247E-04  1.545387E-04  3.904300E-01  0.000000E+00
  8.208376E-01  3.018778E-02  1.000000E-01  8.375852E-01  2.092258E-02 -2.832248E-17  1.784438E-02 -1.332809E-03  1.486898E-04  3.818138E-01  0.000000E+00
  8.403144E-01  2.853324E-02  1.000000E-01  8.574598E-01  1.923424E-02  4.389985E-16  1.899436E-02 -1.740036E-03  1.435941E-04  3.666450E-01  0.000000E+00
  8.585258E-01  2.673222E-02  1.000000E-01  8.760431E-01  1.739644E-02  3.965147E-16  2.006494E-02 -2.053722E-03  1.387179E-04  3.474212E-01  0.000000E+00
  8.754993E-01  2.492440E-02  1.000000E-01  8.933633E-01  1.555170E-02 -2.832248E-17  2.091275E-02 -2.256974E-03  1.337184E-04  3.284094E-01  0.000000E+00
  8.912718E-01  2.318943E-02  1.000000E-01  9.094580E-01  1.378129E-02 -2.832248E-17  2.152379E-02 -2.409869E-03  1.286215E-04  3.133338E-01  0.000000E+00
  9.058836E-01  2.151710E-02  1.000000E-01  9.243682E-01  1.207480E-02 -4.248372E-17  2.202524E-02 -2.600125E-03  1.237868E-04  3.027863E-01  0.000000E+00
  9.193796E-01  1.986860E-02  1.000000E-01  9.381399E-01  1.039263E-02 -5.664496E-17  2.261154E-02 -2.856073E-03  1.197917E-04  2.920202E-01  0.000000E+00
  9.318118E-01  1.824198E-02  1.000000E-01  9.508260E-01  8.732784E-03  4.248372E-17  2.348708E-02 -3.193544E-03  1.177253E-04  2.783051E-01  0.000000E+00
  9.432349E-01  1.662967E-02  1.000000E-01  9.624824E-01  7.087546E-03 -2.832248E-17  2.469242E-02 -3.628608E-03  1.184479E-04  2.621814E-01  0.000000E+00
  9.537058E-01  1.502966E-02  1.000000E-01  9.731672E-01  5.454860E-03  0.000000E+00  2.559063E-02 -4.061754E-03  1.198913E-04  2.381229E-01  0.000000E+00
  9.632829E-01  1.344490E-02  1.000000E-01  9.829399E-01  3.837734E-03 -2.832248E-17  2.458773E-02 -4.243915E-03  1.152342E-04  2.040290E-01  0.000000E+00
  9.720275E-01  1.190714E-02  1.000000E-01  9.918631E-01  2.268561E-03  0.000000E+00  2.088968E-02 -3.694570E-03  9.809469E-05  2.021576E-01  0.000000E+00
  9.800000E-01  1.043777E-02  1.000000E-01  9.999984E-01  7.691804E-04  1.416124E-17  1.383977E-02  4.326948E-03  4.332411E-05 -1.019955E-02  0.000000E+00
  1.215943E-04  1.002691E-02  1.000000E-01  1.060954E-04  3.499241E-04 -9.912868E-17  2.284676E-02  5.299416E-02  3.212658E-05  4.605203E-01  0.000000E+00
  7.278129E-05  9.912244E-03  1.000000E-01  5.628538E-05  2.329189E-04  1.416124E-17  1.553281E-02  7.596190E-02  4.313155E-05  3.010357E-01  0.000000E+00
  1.762252E-05  9.683988E-03  1.000000E-01  0.000000E+00  0.000000E+00  0.000000E+00 -1.206940E-02  1.216317E-01  6.132561E-05  3.411214E-01  0.000000E+00
  8.694958E-05  9.458826E-03  1.000000E-01  7.074306E-05 -2.297604E-04  0.000000E+00 -5.065071E-02  1.315247E-01  6.973753E-05  3.901597E-01  0.000000E+00
  1.215943E-04  9.346236E-03  1.000000E-01  1.060954E-04 -3.446499E-04 -4.248372E-17 -4.521270E-02  8.064807E-02  6.382576E-05  7.529081E-01  0.000000E+00
  9.800000E-01  1.043777E-02  1.000000E-01  9.999984E-01  7.691804E-04  0.000000E+00  1.383977E-02  4.326948E-03  4.332411E-05 -1.019955E-02  0.000000E+00
  9.800000E-01  1.060161E-02  1.000000E-01  9.999984E-01  9.363684E-04  0.000000E+00  4.446001E-03 -1.624648E-03 -7.682244E-06 -2.100965E-01  0.000000E+00
  9.800000E-01  1.092930E-02  1.000000E-01  9.999984E-01  1.270744E-03 -2.832248E-17 -4.461411E-04 -1.598555E-02 -4.440606E-05 -1.744011E-01  0.000000E+00
  9.800000E-01  1.125698E-02  1.000000E-01  9.999984E-01  1.605120E-03 -5.664496E-17  3.401283E-03 -1.964321E-02 -8.006889E-05 -1.927978E-01  0.000000E+00
  9.800000E-01  1.142082E-02  1.000000E-01  9.999984E-01  1.772308E-03  0.000000E+00  1.057874E-02 -1.314167E-02 -1.129328E-04 -5.527866E-02  0.000000E+00
  2.628044E-01  9.895386E-02  1.000000E-01  2.681542E-01  9.109320E-02 -2.832248E-17  5.517594E-02  4.387287E-03  1.649993E-05 -1.199922E+00  0.000000E+00
  2.368706E-01  9.658318E-02  1.000000E-01  2.416907E-01  8.867410E-02  3.681922E-16  5.739809E-02  5.981557E-03  1.247299E-05 -1.240298E+00  0.000000E+00
  2.121362E-01  9.367679E-02  1.000000E-01  2.164511E-01  8.570835E-02  1.416124E-17  5.970939E-02  7.854024E-03  8.596713E-06 -1.271467E+00  0.000000E+00
  1.886687E-01  9.024981E-02  1.000000E-01  1.925043E-01  8.221137E-02 -4.248372E-17  6.192354E-02  9.981961E-03  5.384712E-06 -1.288456E+00  0.000000E+00
  1.665185E-01  8.633251E-02  1.000000E-01  1.699016E-01  7.821406E-02  4.814822E-16  6.380967E-02  1.229819E-02  2.978149E-06 -1.288731E+00  0.000000E+00
  1.457161E-01  8.198039E-02  1.000000E-01  1.486744E-01  7.377305E-02  4.531597E-16  6.521365E-02  1.472865E-02  1.357680E-06 -1.273821E+00  0.000000E+00
  1.262764E-01  7.725213E-02  1.000000E-01  1.288376E-01  6.894822E-02  0.000000E+00  6.611764E-02  1.723652E-02  4.578224E-07 -1.248907E+00  0.000000E+00
  1.081990E-01  7.220667E-02  1.000000E-01  1.103910E-01  6.379971E-02  0.000000E+00  6.655789E-02  1.979787E-02  2.067574E-07 -1.221089E+00  0.000000E+00
  9.146971E-02  6.690582E-02  1.000000E-01  9.331999E-02  5.839058E-02  0.000000E+00  6.664331E-02  2.256696E-02  5.341941E-07 -1.185587E+00  0.000000E+00
  7.608258E-02  6.134479E-02  1.000000E-01  7.761857E-02  5.271597E-02  0.000000E+00  6.633183E-02  2.571473E-02  1.361656E-06 -1.124074E+00  0.000000E+00
  6.202881E-02  5.551264E-02  1.000000E-01  6.327776E-02  4.676469E-02 -5.664496E-17  6.528653E-02  2.910199E-02  2.596532E-06 -1.019365E+00  0.000000E+00
  4.929579E-02  4.942598E-02  1.000000E-01  5.028467E-02  4.055372E-02 -8.496744E-17  6.315053E-02  3.218049E-02  4.153981E-06 -8.764743E-01  0.000000E+00
  3.782553E-02  4.319537E-02  1.000000E-01  3.858013E-02  3.419585E-02  4.248372E-17  6.005876E-02  3.473193E-02  5.990754E-06 -7.221729E-01  0.000000E+00
  2.757469E-02  3.687448E-02  1.000000E-01  2.811992E-02  2.774586E-02 -2.832248E-17  5.651278E-02  3.699489E-02  8.234425E-06 -6.041213E-01  0.000000E+00
  1.848362E-02  3.053992E-02  1.000000E-01  1.884317E-02  2.128191E-02  5.664496E-17  5.318761E-02  4.041894E-02  1.150256E-05 -5.065655E-01  0.000000E+00
  1.064273E-02  2.406571E-02  1.000000E-01  1.084213E-02  1.467546E-02  1.416124E-17  4.943457E-02  4.663253E-02  1.712520E-05 -2.669752E-01  0.000000E+00
  4.262692E-03  1.730184E-02  1.000000E-01  4.331775E-03  7.773450E-03  1.416124E-17  4.008086E-02  5.387209E-02  2.537753E-05  2.443170E-01  0.000000E+00
  1.215943E-04  1.002691E-02  1.000000E-01  1.060954E-04  3.499241E-04 -8.496744E-17  2.284676E-02  5.299416E-02  3.212658E-05  4.605203E-01  0.000000E+00
    1    2
    2    3
    3    4
    4    5
    5    6
    6    7
    7    8
    8    9
    9   10
   10   11
   11   12
   12   13
   13   14
   14   15
   15   16
   16   17
   18   19
   19   20
   20   21
   21   22
   22   23
   23   24
   24   25
   25   26
   26   27
   27   28
   28   29
   29   30
   30   31
   31   32
   32   33
   33   34
   35   36
   36   37
   37   38
   38   39
   39   40
   40   41
   41   42
   42   43
   43   44
   44   45
   45   46
   46   47
   47   48
   48   49
   49   50
   50   51
   52   53
   53   54
   54   55
   55   56
   56   57
   57   58
   58   59
   59   60
   60   61
   61   62
   62   63
   63   64
   64   65
   65   66
   66   67
   67   68
   69   70
   70   71
   71   72
   72   73
   73   74
   74   75
   75   76
   76   77
   77   78
   78   79
   79   80
   80   81
   81   82
   82   83
   83   84
   84   85
   85   86
   87   88
   88   89
   89   90
   90   91
   92   93
   93   94
   94   95
   95   96
   97   98
   98   99
   99  100
  100  101
  101  102
  102  103
  103  104
  104  105
  105  106
  106  107
  107  108
  108  109
  109  110
  110  111
  111  112
  112  113
  113  114
Zone T= "Slice_0002 None Relative Regular z = 0.36666667"
 Nodes =          114  Elements=          106  ZONETYPE=FELINESEG
 DATAPACKING=POINT
  7.301402E-01  6.662539E-02  3.666667E-01  7.450344E-01  5.811712E-02 -5.664490E-17  2.580282E-02 -4.199389E-03 -8.311395E-04 -4.278237E-01  0.000000E+00
  7.043967E-01  7.066843E-02  3.666667E-01  7.187651E-01  6.224274E-02 -1.132898E-16  2.708162E-02 -4.108740E-03 -8.818690E-04 -4.603849E-01  0.000000E+00
  6.775455E-01  7.459458E-02  3.666667E-01  6.913655E-01  6.624908E-02  3.058824E-14  2.816701E-02 -3.983107E-03 -9.142119E-04 -4.910262E-01  0.000000E+00
  6.496792E-01  7.839624E-02  3.666667E-01  6.629301E-01  7.012837E-02 -1.699347E-16  2.909894E-02 -3.854031E-03 -9.203021E-04 -5.232041E-01  0.000000E+00
  6.209097E-01  8.208915E-02  3.666667E-01  6.335730E-01  7.389671E-02  0.000000E+00  2.998919E-02 -3.730845E-03 -8.959089E-04 -5.592816E-01  0.000000E+00
  5.913667E-01  8.565003E-02  3.666667E-01  6.034266E-01  7.753032E-02  1.132898E-16  3.097287E-02 -3.600908E-03 -8.418164E-04 -5.996248E-01  0.000000E+00
  5.611982E-01  8.903644E-02  3.666667E-01  5.726420E-01  8.098589E-02  2.265796E-16  3.215115E-02 -3.454663E-03 -7.624278E-04 -6.451176E-01  0.000000E+00
  5.305654E-01  9.219354E-02  3.666667E-01  5.413835E-01  8.420747E-02  1.132898E-16  3.359874E-02 -3.281783E-03 -6.644153E-04 -6.974750E-01  0.000000E+00
  4.996398E-01  9.506394E-02  3.666667E-01  5.098263E-01  8.713649E-02 -1.699347E-16  3.538600E-02 -3.056315E-03 -5.557044E-04 -7.577002E-01  0.000000E+00
  4.685986E-01  9.756518E-02  3.666667E-01  4.781511E-01  8.968882E-02  1.132898E-16  3.756850E-02 -2.730048E-03 -4.446924E-04 -8.240860E-01  0.000000E+00
  4.376215E-01  9.959499E-02  3.666667E-01  4.465414E-01  9.176009E-02 -5.664490E-17  4.012931E-02 -2.251259E-03 -3.394725E-04 -8.926729E-01  0.000000E+00
  4.068895E-01  1.010550E-01  3.666667E-01  4.151817E-01  9.324996E-02 -5.664490E-17  4.294679E-02 -1.580146E-03 -2.471249E-04 -9.585716E-01  0.000000E+00
  3.765814E-01  1.018689E-01  3.666667E-01  3.842546E-01  9.408047E-02  5.664490E-17  4.581261E-02 -7.174545E-04 -1.726376E-04 -1.018930E+00  0.000000E+00
  3.468696E-01  1.020189E-01  3.666667E-01  3.539360E-01  9.423353E-02 -5.664490E-17  4.854953E-02  3.155565E-04 -1.177720E-04 -1.072426E+00  0.000000E+00
  3.179133E-01  1.015071E-01  3.666667E-01  3.243883E-01  9.371125E-02  0.000000E+00  5.108890E-02  1.504597E-03 -8.081760E-05 -1.118743E+00  0.000000E+00
  2.898519E-01  1.003542E-01  3.666667E-01  2.957538E-01  9.253485E-02  5.664490E-17  5.343697E-02  2.823916E-03 -5.773157E-05 -1.161139E+00  0.000000E+00
  2.628044E-01  9.860433E-02  3.666667E-01  2.681539E-01  9.074920E-02  5.664490E-17  5.566861E-02  4.259773E-03 -4.393010E-05 -1.203776E+00  0.000000E+00
  9.800000E-01  1.195739E-02  3.666667E-01  9.999973E-01  2.332600E-03  5.664490E-17  1.054134E-02 -1.307992E-02 -4.525164E-04 -5.785617E-02  0.000000E+00
  9.720124E-01  1.408261E-02  3.666667E-01  9.918465E-01  4.501228E-03  0.000000E+00  1.211029E-02 -3.294100E-03 -4.517578E-04  6.817682E-02  0.000000E+00
  9.632634E-01  1.642225E-02  3.666667E-01  9.829189E-01  6.888653E-03  1.132898E-16  9.163816E-03 -2.388405E-03 -3.819489E-04  2.111769E-02  0.000000E+00
  9.536907E-01  1.896408E-02  3.666667E-01  9.731507E-01  9.482391E-03 -5.664490E-17  7.340645E-03 -1.938726E-03 -3.329306E-04  2.953010E-03  0.000000E+00
  9.432303E-01  2.169159E-02  3.666667E-01  9.624766E-01  1.226561E-02 -1.699347E-16  6.965467E-03 -1.800386E-03 -3.159127E-04 -1.715136E-02  0.000000E+00
  9.318220E-01  2.460747E-02  3.666667E-01  9.508353E-01  1.524104E-02 -5.664490E-17  7.718512E-03 -1.951232E-03 -3.228358E-04 -4.317445E-02  0.000000E+00
  9.194070E-01  2.771407E-02  3.666667E-01  9.381667E-01  1.841109E-02  0.000000E+00  9.108993E-03 -2.252526E-03 -3.434255E-04 -7.107281E-02  0.000000E+00
  9.059278E-01  3.100871E-02  3.666667E-01  9.244122E-01  2.177301E-02 -1.132898E-16  1.073139E-02 -2.589291E-03 -3.709481E-04 -1.006933E-01  0.000000E+00
  8.913299E-01  3.448468E-02  3.666667E-01  9.095162E-01  2.531998E-02  0.000000E+00  1.238942E-02 -2.910476E-03 -4.027047E-04 -1.325342E-01  0.000000E+00
  8.755643E-01  3.813591E-02  3.666667E-01  8.934286E-01  2.904579E-02 -1.132898E-16  1.405555E-02 -3.208167E-03 -4.388398E-04 -1.666688E-01  0.000000E+00
  8.585885E-01  4.195101E-02  3.666667E-01  8.761061E-01  3.293880E-02  3.098476E-14  1.576517E-02 -3.484119E-03 -4.806077E-04 -2.026367E-01  0.000000E+00
  8.403666E-01  4.590719E-02  3.666667E-01  8.575120E-01  3.697578E-02  3.098476E-14  1.752424E-02 -3.731945E-03 -5.286544E-04 -2.397939E-01  0.000000E+00
  8.208730E-01  4.997467E-02  3.666667E-01  8.376203E-01  4.112634E-02 -5.664490E-17  1.929824E-02 -3.940428E-03 -5.827350E-04 -2.777817E-01  0.000000E+00
  8.000947E-01  5.412109E-02  3.666667E-01  8.164177E-01  4.535744E-02 -5.664490E-17  2.104854E-02 -4.099229E-03 -6.421802E-04 -3.162998E-01  0.000000E+00
  7.780326E-01  5.830801E-02  3.666667E-01  7.939050E-01  4.962987E-02 -1.132898E-16  2.274228E-02 -4.199294E-03 -7.055869E-04 -3.548268E-01  0.000000E+00
  7.547032E-01  6.249195E-02  3.666667E-01  7.700991E-01  5.389927E-02  3.075818E-14  2.434241E-02 -4.233039E-03 -7.701450E-04 -3.923996E-01  0.000000E+00
  7.301402E-01  6.662539E-02  3.666667E-01  7.450344E-01  5.811712E-02 -5.664490E-17  2.580282E-02 -4.199389E-03 -8.311395E-04 -4.278237E-01  0.000000E+00
  2.444131E-01 -2.742441E-03  3.666667E-01  2.493869E-01 -1.266746E-02  3.092811E-14  2.810813E-02  1.248635E-03  1.117866E-04  1.667671E-01  0.000000E+00
  2.700250E-01 -1.612947E-03  3.666667E-01  2.755219E-01 -1.151490E-02  5.664490E-17  2.837321E-02  1.229431E-03  1.154840E-04  1.650089E-01  0.000000E+00
  2.967058E-01 -4.830480E-04  3.666667E-01  3.027477E-01 -1.036192E-02 -5.664490E-17  2.876891E-02  1.253990E-03  1.225762E-04  1.570192E-01  0.000000E+00
  3.243554E-01  7.486874E-04  3.666667E-01  3.309619E-01 -9.105028E-03  3.070153E-14  2.893725E-02  1.401132E-03  1.351431E-04  1.439668E-01  0.000000E+00
  3.528511E-01  2.230744E-03  3.666667E-01  3.600397E-01 -7.592702E-03 -5.664490E-17  2.847669E-02  1.692023E-03  1.551847E-04  1.320923E-01  0.000000E+00
  3.820469E-01  4.178410E-03  3.666667E-01  3.898317E-01 -5.605257E-03 -1.132898E-16  2.712629E-02  2.079390E-03  1.836271E-04  1.290755E-01  0.000000E+00
  4.117740E-01  6.762279E-03  3.666667E-01  4.201660E-01 -2.968616E-03  1.132898E-16  2.495897E-02  2.446624E-03  2.195081E-04  1.419437E-01  0.000000E+00
  4.418498E-01  1.006302E-02  3.666667E-01  4.508560E-01  3.995365E-04 -1.699347E-16  2.241158E-02  2.654351E-03  2.602971E-04  1.710934E-01  0.000000E+00
  4.721105E-01  1.393502E-02  3.666667E-01  4.817348E-01  4.350623E-03 -1.132898E-16  2.025963E-02  2.498764E-03  3.039537E-04  2.222733E-01  0.000000E+00
  5.024968E-01  1.752033E-02  3.666667E-01  5.127417E-01  8.009154E-03  5.664490E-17  1.896674E-02  2.061747E-03  3.492830E-04  2.765527E-01  0.000000E+00
  5.328693E-01  2.049903E-02  3.666667E-01  5.437345E-01  1.104869E-02 -2.265796E-16  1.832558E-02  1.664723E-03  3.952027E-04  3.026868E-01  0.000000E+00
  5.630297E-01  2.300432E-02  3.666667E-01  5.745109E-01  1.360514E-02  1.132898E-16  1.797206E-02  1.400697E-03  4.398457E-04  3.091860E-01  0.000000E+00
  5.927917E-01  2.517126E-02  3.666667E-01  6.048807E-01  1.581635E-02  0.000000E+00  1.763145E-02  1.231432E-03  4.786729E-04  3.143904E-01  0.000000E+00
  6.219828E-01  2.712535E-02  3.666667E-01  6.346681E-01  1.781035E-02  5.664490E-17  1.716275E-02  1.106778E-03  5.061508E-04  3.236931E-01  0.000000E+00
  6.504533E-01  2.889643E-02  3.666667E-01  6.637200E-01  1.961760E-02 -1.132898E-16  1.658497E-02  9.655200E-04  5.193601E-04  3.375951E-01  0.000000E+00
  6.780742E-01  3.040047E-02  3.666667E-01  6.919050E-01  2.115236E-02  3.092811E-14  1.601151E-02  7.742455E-04  5.190554E-04  3.541121E-01  0.000000E+00
  7.047326E-01  3.153208E-02  3.666667E-01  7.191079E-01  2.230707E-02 -5.664490E-17  1.556206E-02  5.389617E-04  5.087838E-04  3.694265E-01  0.000000E+00
  1.215943E-04  9.333699E-03  3.666667E-01  1.060953E-04 -3.446783E-04 -2.265796E-16 -4.435197E-02  7.915168E-02  2.008749E-04  7.566590E-01  0.000000E+00
  4.902502E-03  3.665334E-03  3.666667E-01  4.984646E-03 -6.128813E-03  5.664490E-17 -1.606169E-02  1.889465E-02  1.612267E-04  9.358362E-01  0.000000E+00
  1.254908E-02  2.410287E-05  3.666667E-01  1.278740E-02 -9.844411E-03  2.265796E-16  8.302569E-03 -2.226478E-03  1.207639E-04  5.386011E-01  0.000000E+00
  2.163699E-02 -2.364865E-03  3.666667E-01  2.206092E-02 -1.228217E-02  5.664490E-17  2.190849E-02 -4.522411E-03  1.024217E-04  3.376949E-01  0.000000E+00
  3.184423E-02 -4.042308E-03  3.666667E-01  3.247662E-02 -1.399387E-02  0.000000E+00  2.762878E-02 -3.631789E-03  9.955220E-05  3.045410E-01  0.000000E+00
  4.311596E-02 -5.218506E-03  3.666667E-01  4.397857E-02 -1.519409E-02 -1.132898E-16  2.983184E-02 -2.406734E-03  1.005086E-04  2.697575E-01  0.000000E+00
  5.546913E-02 -5.936790E-03  3.666667E-01  5.658403E-02 -1.592705E-02 -5.664490E-17  3.050425E-02 -1.427077E-03  1.019694E-04  2.374636E-01  0.000000E+00
  6.891473E-02 -6.411030E-03  3.666667E-01  7.030424E-02 -1.641097E-02  1.699347E-16  3.074471E-02 -8.925164E-04  1.035261E-04  2.257072E-01  0.000000E+00
  8.348882E-02 -6.748080E-03  3.666667E-01  8.517599E-02 -1.675491E-02  2.832245E-16  3.087229E-02 -5.420503E-04  1.047567E-04  2.138817E-01  0.000000E+00
  9.923792E-02 -6.942111E-03  3.666667E-01  1.012467E-01 -1.695290E-02 -1.132898E-16  3.084405E-02 -1.828388E-04  1.056500E-04  1.951658E-01  0.000000E+00
  1.162051E-01 -6.935719E-03  3.666667E-01  1.185604E-01 -1.694638E-02  5.664490E-17  3.062235E-02  1.854971E-04  1.064192E-04  1.784806E-01  0.000000E+00
  1.344203E-01 -6.721778E-03  3.666667E-01  1.371477E-01 -1.672807E-02  0.000000E+00  3.023075E-02  5.074700E-04  1.071353E-04  1.693274E-01  0.000000E+00
  1.539027E-01 -6.297943E-03  3.666667E-01  1.570280E-01 -1.629558E-02  3.064489E-14  2.968973E-02  7.841774E-04  1.077329E-04  1.644414E-01  0.000000E+00
  1.746592E-01 -5.653991E-03  3.666667E-01  1.782084E-01 -1.563847E-02  3.109805E-14  2.907604E-02  1.002374E-03  1.082765E-04  1.626452E-01  0.000000E+00
  1.966815E-01 -4.819509E-03  3.666667E-01  2.006805E-01 -1.478695E-02 -1.132898E-16  2.852319E-02  1.146042E-03  1.089298E-04  1.639492E-01  0.000000E+00
  2.199461E-01 -3.833896E-03  3.666667E-01  2.244203E-01 -1.378120E-02 -1.699347E-16  2.816378E-02  1.226676E-03  1.099287E-04  1.659142E-01  0.000000E+00
  2.444131E-01 -2.742441E-03  3.666667E-01  2.493869E-01 -1.266746E-02  3.092811E-14  2.810813E-02  1.248635E-03  1.117866E-04  1.667671E-01  0.000000E+00
  7.047326E-01  3.153208E-02  3.666667E-01  7.191079E-01  2.230707E-02 -5.664490E-17  1.556206E-02  5.389617E-04  5.087838E-04  3.694265E-01  0.000000E+00