 Title = "ADflow Slice Data"
Variables =  "CoordinateX"  "CoordinateY"  "CoordinateZ"  "XoC"  "YoC"  "ZoC" "VelocityX" "VelocityY" "VelocityZ" "CoefPressure" "Mach" 
Zone T= "Slice_0001 None Relative Regular z = 0.10000000"
 Nodes =          114  Elements=          106  ZONETYPE=FELINESEG
 DATAPACKING=POINT
  7.301402E-01  6.756022E-02  1.000000E-01  7.450339E-01  5.906907E-02  1.416121E-17  2.580790E-02 -4.242763E-03 -1.793107E-04 -4.384520E-01  0.000000E+00
  7.043967E-01  7.164381E-02  1.000000E-01  7.187646E-01  6.323606E-02 -4.248364E-17  2.712263E-02 -4.144542E-03 -1.776463E-04 -4.724527E-01  0.000000E+00
  6.775455E-01  7.559457E-02  1.000000E-01  6.913650E-01  6.726750E-02  3.965140E-16  2.823327E-02 -4.004600E-03 -1.750853E-04 -5.040845E-01  0.000000E+00
  6.496792E-01  7.940037E-02  1.000000E-01  6.629296E-01  7.115103E-02  4.248364E-17  2.917748E-02 -3.856028E-03 -1.717859E-04 -5.366969E-01  0.000000E+00
  6.209097E-01  8.307409E-02  1.000000E-01  6.335725E-01  7.489978E-02 -2.832243E-17  3.006750E-02 -3.710389E-03 -1.679005E-04 -5.726469E-01  0.000000E+00
  5.913667E-01  8.659181E-02  1.000000E-01  6.034262E-01  7.848934E-02 -2.832243E-17  3.104084E-02 -3.556799E-03 -1.634741E-04 -6.123041E-01  0.000000E+00
  5.611982E-01  8.991237E-02  1.000000E-01  5.726416E-01  8.187772E-02  0.000000E+00  3.219978E-02 -3.387076E-03 -1.583352E-04 -6.565791E-01  0.000000E+00
  5.305654E-01  9.298431E-02  1.000000E-01  5.413831E-01  8.501239E-02 -5.664485E-17  3.361704E-02 -3.192314E-03 -1.521686E-04 -7.072675E-01  0.000000E+00
  4.996398E-01  9.575563E-02  1.000000E-01  5.098259E-01  8.784032E-02  0.000000E+00  3.535906E-02 -2.948060E-03 -1.446405E-04 -7.654938E-01  0.000000E+00
  4.685986E-01  9.815079E-02  1.000000E-01  4.781508E-01  9.028439E-02  1.416121E-17  3.747857E-02 -2.607943E-03 -1.354866E-04 -8.297047E-01  0.000000E+00
  4.376215E-01  1.000749E-01  1.000000E-01  4.465411E-01  9.224776E-02 -8.496728E-17  3.996065E-02 -2.122623E-03 -1.245279E-04 -8.961431E-01  0.000000E+00
  4.068895E-01  1.014363E-01  1.000000E-01  4.151814E-01  9.363699E-02  0.000000E+00  4.269140E-02 -1.454683E-03 -1.117502E-04 -9.601881E-01  0.000000E+00
  3.765814E-01  1.021639E-01  1.000000E-01  3.842543E-01  9.437950E-02 -5.664485E-17  4.547290E-02 -6.059326E-04 -9.746999E-05 -1.019277E+00  0.000000E+00
  3.468696E-01  1.022434E-01  1.000000E-01  3.539357E-01  9.446063E-02 -5.664485E-17  4.813830E-02  4.044226E-04 -8.250116E-05 -1.072210E+00  0.000000E+00
  3.179133E-01  1.016769E-01  1.000000E-01  3.243881E-01  9.388249E-02 -2.832243E-17  5.062643E-02  1.566913E-03 -6.799617E-05 -1.118540E+00  0.000000E+00
  2.898519E-01  1.004823E-01  1.000000E-01  2.957535E-01  9.266352E-02 -4.248364E-17  5.294412E-02  2.859810E-03 -5.494448E-05 -1.161326E+00  0.000000E+00
  2.628044E-01  9.870093E-02  1.000000E-01  2.681537E-01  9.084577E-02  0.000000E+00  5.516145E-02  4.271122E-03 -4.384310E-05 -1.204580E+00  0.000000E+00
  9.800000E-01  1.224834E-02  1.000000E-01  9.999965E-01  2.627555E-03 -2.832243E-17  1.058789E-02 -1.317416E-02 -1.965118E-04 -5.675343E-02  0.000000E+00
  9.720124E-01  1.438706E-02  1.000000E-01  9.918458E-01  4.809957E-03 -2.832243E-17  1.210534E-02 -3.311835E-03 -1.850431E-04  6.828293E-02  0.000000E+00
  9.632634E-01  1.674262E-02  1.000000E-01  9.829182E-01  7.213622E-03 -2.832243E-17  9.062567E-03 -2.376845E-03 -1.570116E-04  2.127368E-02  0.000000E+00
  9.536907E-01  1.930332E-02  1.000000E-01  9.731500E-01  9.826620E-03 -2.832243E-17  7.167425E-03 -1.906455E-03 -1.374495E-04  3.214890E-03  0.000000E+00
  9.432303E-01  2.205322E-02  1.000000E-01  9.624759E-01  1.263268E-02  1.416121E-17  6.750982E-03 -1.758633E-03 -1.304387E-04 -1.683706E-02  0.000000E+00
  9.318220E-01  2.499543E-02  1.000000E-01  9.508346E-01  1.563498E-02  1.416121E-17  7.484263E-03 -1.908313E-03 -1.324132E-04 -4.291065E-02  0.000000E+00
  9.194070E-01  2.813270E-02  1.000000E-01  9.381661E-01  1.883632E-02 -8.496728E-17  8.869583E-03 -2.214052E-03 -1.387788E-04 -7.097300E-02  0.000000E+00
  9.059278E-01  3.146271E-02  1.000000E-01  9.244116E-01  2.223434E-02 -5.664485E-17  1.049512E-02 -2.558339E-03 -1.463483E-04 -1.008807E-01  0.000000E+00
  8.913299E-01  3.497902E-02  1.000000E-01  9.095155E-01  2.582247E-02  0.000000E+00  1.215729E-02 -2.887661E-03 -1.535562E-04 -1.331561E-01  0.000000E+00
  8.755643E-01  3.867566E-02  1.000000E-01  8.934280E-01  2.959460E-02 -2.832243E-17  1.382513E-02 -3.193008E-03 -1.599798E-04 -1.679002E-01  0.000000E+00
  8.585885E-01  4.254110E-02  1.000000E-01  8.761054E-01  3.353899E-02  4.106752E-16  1.554075E-02 -3.477568E-03 -1.657151E-04 -2.046686E-01  0.000000E+00
  8.403666E-01  4.655215E-02  1.000000E-01  8.575114E-01  3.763195E-02  3.965140E-16  1.731963E-02 -3.736582E-03 -1.707336E-04 -2.428303E-01  0.000000E+00
  8.208730E-01  5.067816E-02  1.000000E-01  8.376197E-01  4.184223E-02 -8.496728E-17  1.912738E-02 -3.957887E-03 -1.747797E-04 -2.820314E-01  0.000000E+00
  8.000947E-01  5.488534E-02  1.000000E-01  8.164171E-01  4.613533E-02 -2.832243E-17  2.091953E-02 -4.128819E-03 -1.776751E-04 -3.219641E-01  0.000000E+00
  7.780326E-01  5.913315E-02  1.000000E-01  7.939044E-01  5.046989E-02 -2.832243E-17  2.265866E-02 -4.238318E-03 -1.793840E-04 -3.620811E-01  0.000000E+00
  7.547032E-01  6.337521E-02  1.000000E-01  7.700985E-01  5.479859E-02  4.389976E-16  2.430461E-02 -4.277154E-03 -1.799192E-04 -4.013536E-01  0.000000E+00
  7.301402E-01  6.756022E-02  1.000000E-01  7.450339E-01  5.906907E-02  2.832243E-17  2.580790E-02 -4.242763E-03 -1.793107E-04 -4.384520E-01  0.000000E+00
  2.444131E-01 -2.661579E-03  1.000000E-01  2.493867E-01 -1.258687E-02  3.681916E-16  2.792817E-02  1.262964E-03  4.476425E-05  1.669754E-01  0.000000E+00
  2.700250E-01 -1.506035E-03  1.000000E-01  2.755217E-01 -1.140772E-02 -4.248364E-17  2.819172E-02  1.250602E-03  4.806734E-05  1.649628E-01  0.000000E+00
  2.967058E-01 -3.415078E-04  1.000000E-01  3.027475E-01 -1.021941E-02 -2.832243E-17  2.858033E-02  1.283654E-03  5.241125E-05  1.567712E-01  0.000000E+00
  3.243554E-01  9.359613E-04  1.000000E-01  3.309617E-01 -8.915855E-03  4.248364E-16  2.873734E-02  1.440197E-03  5.781162E-05  1.436341E-01  0.000000E+00
  3.528511E-01  2.477673E-03  1.000000E-01  3.600394E-01 -7.342658E-03 -4.248364E-17  2.826317E-02  1.739781E-03  6.395594E-05  1.318729E-01  0.000000E+00
  3.820469E-01  4.501265E-03  1.000000E-01  3.898314E-01 -5.277738E-03  5.664485E-17  2.689838E-02  2.131753E-03  7.017565E-05  1.292836E-01  0.000000E+00
  4.117740E-01  7.176060E-03  1.000000E-01  4.201657E-01 -2.548315E-03 -5.664485E-17  2.471787E-02  2.496640E-03  7.568985E-05  1.429533E-01  0.000000E+00
  4.418498E-01  1.057830E-02  1.000000E-01  4.508557E-01  9.234122E-04 -2.832243E-17  2.216037E-02  2.696162E-03  8.002157E-05  1.731610E-01  0.000000E+00
  4.721105E-01  1.455638E-02  1.000000E-01  4.817345E-01  4.982730E-03 -5.664485E-17  1.999866E-02  2.532964E-03  8.331664E-05  2.254152E-01  0.000000E+00
  5.024968E-01  1.824584E-02  1.000000E-01  5.127413E-01  8.747544E-03  1.416121E-17  1.869261E-02  2.091876E-03  8.612700E-05  2.806630E-01  0.000000E+00
  5.328693E-01  2.131969E-02  1.000000E-01  5.437341E-01  1.188417E-02 -4.248364E-17  1.803635E-02  1.690441E-03  8.894051E-05  3.077345E-01  0.000000E+00
  5.630297E-01  2.390441E-02  1.000000E-01  5.745105E-01  1.452168E-02  1.416121E-17  1.766964E-02  1.419311E-03  9.195983E-05  3.151492E-01  0.000000E+00
  5.927917E-01  2.613007E-02  1.000000E-01  6.048803E-01  1.679279E-02  5.664485E-17  1.732099E-02  1.240328E-03  9.497975E-05  3.211155E-01  0.000000E+00
  6.219828E-01  2.811935E-02  1.000000E-01  6.346676E-01  1.882270E-02 -4.248364E-17  1.685110E-02  1.104612E-03  9.763624E-05  3.309033E-01  0.000000E+00
  6.504533E-01  2.990153E-02  1.000000E-01  6.637195E-01  2.064128E-02  5.664485E-17  1.627843E-02  9.533319E-04  9.982207E-05  3.449634E-01  0.000000E+00
  6.780742E-01  3.139515E-02  1.000000E-01  6.919045E-01  2.216540E-02  4.531588E-16  1.571435E-02  7.549729E-04  1.017069E-04  3.613266E-01  0.000000E+00
  7.047326E-01  3.249974E-02  1.000000E-01  7.191074E-01  2.329255E-02  0.000000E+00  1.527662E-02  5.156364E-04  1.035508E-04  3.762823E-01  0.000000E+00
  1.215943E-04  9.335598E-03  1.000000E-01  1.060952E-04 -3.446730E-04 -5.664485E-17 -4.554246E-02  8.124778E-02  7.024269E-05  7.507823E-01  0.000000E+00
  4.902502E-03  3.667469E-03  1.000000E-01  4.984643E-03 -6.128562E-03 -8.496728E-17 -1.692480E-02  1.968556E-02  5.308162E-05  9.387217E-01  0.000000E+00
  1.254908E-02  2.666015E-05  1.000000E-01  1.278739E-02 -9.843727E-03 -2.832243E-17  7.804200E-03 -2.023897E-03  3.881788E-05  5.440904E-01  0.000000E+00
  2.163699E-02 -2.361733E-03  1.000000E-01  2.206090E-02 -1.228090E-02  1.416121E-17  2.162591E-02 -4.458949E-03  3.298044E-05  3.425257E-01  0.000000E+00
  3.184423E-02 -4.038428E-03  1.000000E-01  3.247660E-02 -1.399184E-02 -2.832243E-17  2.739880E-02 -3.599478E-03  3.218484E-05  3.084317E-01  0.000000E+00
  4.311596E-02 -5.213655E-03  1.000000E-01  4.397853E-02 -1.519107E-02 -8.496728E-17  2.960129E-02 -2.386043E-03  3.265343E-05  2.730993E-01  0.000000E+00
  5.546913E-02 -5.930683E-03  1.000000E-01  5.658399E-02 -1.592274E-02  1.416121E-17  3.026958E-02 -1.413527E-03  3.334122E-05  2.404826E-01  0.000000E+00
  6.891473E-02 -6.403294E-03  1.000000E-01  7.030419E-02 -1.640500E-02 -8.496728E-17  3.050796E-02 -8.824912E-04  3.409359E-05  2.284026E-01  0.000000E+00
  8.348882E-02 -6.738225E-03  1.000000E-01  8.517593E-02 -1.674677E-02  5.664485E-17  3.063419E-02 -5.340138E-04  3.480368E-05  2.162536E-01  0.000000E+00
  9.923792E-02 -6.929493E-03  1.000000E-01  1.012467E-01 -1.694195E-02 -9.912850E-17  3.060650E-02 -1.766861E-04  3.549748E-05  1.972554E-01  0.000000E+00
  1.162051E-01 -6.919479E-03  1.000000E-01  1.185603E-01 -1.693173E-02 -8.496728E-17  3.038874E-02  1.899382E-04  3.625050E-05  1.803174E-01  0.000000E+00
  1.344203E-01 -6.700777E-03  1.000000E-01  1.371476E-01 -1.670856E-02 -8.496728E-17  3.000479E-02  5.109096E-04  3.709109E-05  1.709090E-01  0.000000E+00
  1.539027E-01 -6.270659E-03  1.000000E-01  1.570279E-01 -1.626966E-02  4.389976E-16  2.947457E-02  7.874222E-04  3.802899E-05  1.657548E-01  0.000000E+00
  1.746592E-01 -5.618393E-03  1.000000E-01  1.782083E-01 -1.560407E-02  3.257079E-16  2.887306E-02  1.006428E-03  3.912857E-05  1.636837E-01  0.000000E+00
  1.966815E-01 -4.772877E-03  1.000000E-01  2.006803E-01 -1.474128E-02 -2.832243E-17  2.833130E-02  1.152120E-03  4.050600E-05  1.647102E-01  0.000000E+00
  2.199461E-01 -3.772586E-03  1.000000E-01  2.244201E-01 -1.372057E-02 -4.248364E-17  2.798000E-02  1.236080E-03  4.231752E-05  1.663962E-01  0.000000E+00
  2.444131E-01 -2.661579E-03  1.000000E-01  2.493867E-01 -1.258687E-02  3.823528E-16  2.792817E-02  1.262964E-03  4.476425E-05  1.669754E-01  0.000000E+00
  7.047326E-01  3.249974E-02  1.000000E-01  7.191074E-01  2.329255E-02 -2.832243E-17  1.527662E-02  5.156364E-04  1.035508E-04  3.762823E-01  0.000000E+00
  7.303325E-01  3.315226E-02  1.000000E-01  7.452301E-01  2.395840E-02 -2.832243E-17  1.505631E-02  2.496655E-04  1.055963E-04  3.873970E-01  0.000000E+00
  7.547951E-01  3.332938E-02  1.000000E-01  7.701923E-01  2.413914E-02  4.389976E-16  1.512638E-02 -4.546479E-05  1.080517E-04  3.945077E-01  0.000000E+00
  7.780600E-01  3.301581E-02  1.000000E-01  7.939323E-01  2.381916E-02  1.416121E-17  1.553967E-02 -3.842838E-04  1.110638E-04  3.974164E-01  0.000000E+00
  8.000833E-01  3.222411E-02  1.000000E-01  8.164054E-01  2.301129E-02 -4.248364E-17  1.630665E-02 -7.810987E-04  1.146736E-04  3.954492E-01  0.000000E+00
  8.208376E-01  3.098744E-02  1.000000E-01  8.375836E-01  2.174936E-02 -2.832243E-17  1.735971E-02 -1.220393E-03  1.187290E-04  3.875675E-01  0.000000E+00
  8.403144E-01  2.941433E-02  1.000000E-01  8.574582E-01  2.014413E-02  4.389976E-16  1.853787E-02 -1.637755E-03  1.228515E-04  3.729616E-01  0.000000E+00
  8.585258E-01  2.766828E-02  1.000000E-01  8.760414E-01  1.836242E-02  3.965140E-16  1.964435E-02 -1.966920E-03  1.265543E-04  3.541306E-01  0.000000E+00
  8.754993E-01  2.589360E-02  1.000000E-01  8.933616E-01  1.655149E-02 -2.832243E-17  2.053478E-02 -2.189842E-03  1.293581E-04  3.352904E-01  0.000000E+00
  8.912718E-01  2.417410E-02  1.000000E-01  9.094563E-01  1.479688E-02 -2.832243E-17  2.119349E-02 -2.363855E-03  1.309668E-04  3.201247E-01  0.000000E+00
  9.058836E-01  2.250339E-02  1.000000E-01  9.243665E-01  1.309205E-02 -4.248364E-17  2.174515E-02 -2.574328E-03  1.314771E-04  3.092514E-01  0.000000E+00
  9.193796E-01  2.084611E-02  1.000000E-01  9.381381E-01  1.140092E-02 -5.664485E-17  2.238246E-02 -2.849460E-03  1.315680E-04  2.980203E-01  0.000000E+00
  9.318118E-01  1.920313E-02  1.000000E-01  9.508242E-01  9.724385E-03  4.248364E-17  2.330910E-02 -3.205944E-03  1.326349E-04  2.837649E-01  0.000000E+00
  9.432349E-01  1.756928E-02  1.000000E-01  9.624806E-01  8.057167E-03 -2.832243E-17  2.456420E-02 -3.660159E-03  1.356990E-04  2.670165E-01  0.000000E+00
  9.537058E-01  1.594448E-02  1.000000E-01  9.731654E-01  6.399184E-03  0.000000E+00  2.550504E-02 -4.110582E-03  1.383927E-04  2.421760E-01  0.000000E+00
  9.632829E-01  1.433320E-02  1.000000E-01  9.829380E-01  4.755000E-03 -2.832243E-17  2.452668E-02 -4.301769E-03  1.330748E-04  2.072011E-01  0.000000E+00
  9.720275E-01  1.276820E-02  1.000000E-01  9.918613E-01  3.158029E-03  0.000000E+00  2.083854E-02 -3.749557E-03  1.145346E-04  2.045301E-01  0.000000E+00
  9.800000E-01  1.127159E-02  1.000000E-01  9.999965E-01  1.630860E-03  1.416121E-17  1.387535E-02  4.403088E-03  7.249237E-05 -9.724127E-03  0.000000E+00
  1.215943E-04  1.001627E-02  1.000000E-01  1.060952E-04  3.499001E-04 -9.912850E-17  2.285844E-02  5.296979E-02  3.535752E-05  4.572972E-01  0.000000E+00
  7.278129E-05  9.901617E-03  1.000000E-01  5.628528E-05  2.329061E-04  1.416121E-17  1.553274E-02  7.598342E-02  4.806529E-05  2.971002E-01  0.000000E+00
  1.762252E-05  9.673372E-03  1.000000E-01  0.000000E+00  0.000000E+00  0.000000E+00 -1.217901E-02  1.220482E-01  6.966025E-05  3.368816E-01  0.000000E+00
  8.694958E-05  9.448195E-03  1.000000E-01  7.074292E-05 -2.297758E-04  0.000000E+00 -5.094638E-02  1.322872E-01  7.922564E-05  3.860267E-01  0.000000E+00
  1.215943E-04  9.335598E-03  1.000000E-01  1.060952E-04 -3.446730E-04 -4.248364E-17 -4.554246E-02  8.124778E-02  7.024269E-05  7.507823E-01  0.000000E+00
  9.800000E-01  1.127159E-02  1.000000E-01  9.999965E-01  1.630860E-03  0.000000E+00  1.387535E-02  4.403088E-03  7.249237E-05 -9.724127E-03  0.000000E+00
  9.800000E-01  1.143438E-02  1.000000E-01  9.999965E-01  1.796976E-03  0.000000E+00  4.507941E-03 -1.491160E-03 -1.376957E-05 -2.111684E-01  0.000000E+00
  9.800000E-01  1.175997E-02  1.000000E-01  9.999965E-01  2.129207E-03 -2.832243E-17 -4.403915E-04 -1.597048E-02 -1.106975E-04 -1.755623E-01  0.000000E+00
  9.800000E-01  1.208555E-02  1.000000E-01  9.999965E-01  2.461439E-03 -5.664485E-17  3.422554E-03 -1.967639E-02 -1.719672E-04 -1.938383E-01  0.000000E+00
  9.800000E-01  1.224834E-02  1.000000E-01  9.999965E-01  2.627555E-03  0.000000E+00  1.058789E-02 -1.317416E-02 -1.965118E-04 -5.675343E-02  0.000000E+00
  2.628044E-01  9.870093E-02  1.000000E-01  2.681537E-01  9.084577E-02 -2.832243E-17  5.516145E-02  4.271122E-03 -4.384310E-05 -1.204580E+00  0.000000E+00
  2.368706E-01  9.638124E-02  1.000000E-01  2.416902E-01  8.847870E-02  3.681916E-16  5.742860E-02  5.884425E-03 -3.471383E-05 -1.245265E+00  0.000000E+00
  2.121362E-01  9.351522E-02  1.000000E-01  2.164507E-01  8.555415E-02  1.416121E-17  5.976944E-02  7.774101E-03 -2.729919E-05 -1.276540E+00  0.000000E+00
  1.886687E-01  9.012021E-02  1.000000E-01  1.925039E-01  8.208980E-02 -4.248364E-17  6.200347E-02  9.917784E-03 -2.126626E-05 -1.293484E+00  0.000000E+00
  1.665185E-01  8.622826E-02  1.000000E-01  1.699013E-01  7.811837E-02  4.814813E-16  6.390225E-02  1.224844E-02 -1.632417E-05 -1.293610E+00  0.000000E+00
  1.457161E-01  8.189628E-02  1.000000E-01  1.486741E-01  7.369791E-02  4.531588E-16  6.531280E-02  1.469188E-02 -1.224177E-05 -1.278496E+00  0.000000E+00
  1.262764E-01  7.718404E-02  1.000000E-01  1.288374E-01  6.888943E-02  0.000000E+00  6.621853E-02  1.721114E-02 -8.807694E-06 -1.253365E+00  0.000000E+00
  1.081990E-01  7.215135E-02  1.000000E-01  1.103908E-01  6.375396E-02  0.000000E+00  6.665712E-02  1.978231E-02 -5.814110E-06 -1.225334E+00  0.000000E+00
  9.146971E-02  6.686069E-02  1.000000E-01  9.331981E-02  5.835525E-02  0.000000E+00  6.673911E-02  2.256005E-02 -3.071722E-06 -1.189600E+00  0.000000E+00
  7.608258E-02  6.130781E-02  1.000000E-01  7.761843E-02  5.268897E-02  0.000000E+00  6.642327E-02  2.571583E-02 -4.548749E-07 -1.127797E+00  0.000000E+00
  6.202881E-02  5.548215E-02  1.000000E-01  6.327764E-02  4.674433E-02 -5.664485E-17  6.537236E-02  2.911038E-02  2.076784E-06 -1.022745E+00  0.000000E+00
  4.929579E-02  4.940069E-02  1.000000E-01  5.028457E-02  4.053867E-02 -8.496728E-17  6.322901E-02  3.219478E-02  4.521082E-06 -8.795218E-01  0.000000E+00
  3.782553E-02  4.317422E-02  1.000000E-01  3.858006E-02  3.418504E-02  4.248364E-17  6.012943E-02  3.475094E-02  6.946605E-06 -7.249820E-01  0.000000E+00
  2.757469E-02  3.685664E-02  1.000000E-01  2.811987E-02  2.773843E-02 -2.832243E-17  5.657765E-02  3.701895E-02  9.628962E-06 -6.067905E-01  0.000000E+00
  1.848362E-02  3.052472E-02  1.000000E-01  1.884313E-02  2.127719E-02  5.664485E-17  5.325111E-02  4.045173E-02  1.337796E-05 -5.090706E-01  0.000000E+00
  1.064273E-02  2.405258E-02  1.000000E-01  1.084211E-02  1.467287E-02  1.416121E-17  4.949833E-02  4.667910E-02  1.964366E-05 -2.693013E-01  0.000000E+00
  4.262692E-03  1.729026E-02  1.000000E-01  4.331767E-03  7.772451E-03  1.416121E-17  4.012991E-02  5.392587E-02  2.854428E-05  2.416723E-01  0.000000E+00
  1.215943E-04  1.001627E-02  1.000000E-01  1.060952E-04  3.499001E-04 -8.496728E-17  2.285844E-02  5.296979E-02  3.535752E-05  4.572972E-01  0.000000E+00
    1    2
    2    3
    3    4
    4    5
    5    6
    6    7
    7    8
    8    9
    9   10
   10   11
   11   12
   12   13
   13   14
   14   15
   15   16
   16   17
   18   19
   19   20
   20   21
   21   22
   22   23
   23   24
   24   25
   25   26
   26   27
   27   28
   28   29
   29   30
   30   31
   31   32
   32   33
   33   34
   35   36
   36   37
   37   38
   38   39
   39   40
   40   41
   41   42
   42   43
   43   44
   44   45
   45   46
   46   47
   47   48
   48   49
   49   50
   50   51
   52   53
   53   54
   54   55
   55   56
   56   57
   57   58
   58   59
   59   60
   60   61
   61   62
   62   63
   63   64
   64   65
   65   66
   66   67
   67   68
   69   70
   70   71
   71   72
   72   73
   73   74
   74   75
   75   76
   76   77
   77   78
   78   79
   79   80
   80   81
   81   82
   82   83
   83   84
   84   85
   85   86
   87   88
   88   89
   89   90
   90   91
   92   93
   93   94
   94   95
   95   96
   97   98
   98   99
   99  100
  100  101
  101  102
  102  103
  103  104
  104  105
  105  106
  106  107
  107  108
  108  109
  109  110
  110  111
  111  112
  112  113
  113  114
Zone T= "Slice_0002 None Relative Regular z = 0.36666667"
 Nodes =          114  Elements=          106  ZONETYPE=FELINESEG
 DATAPACKING=POINT
  7.301402E-01  6.691279E-02  3.666667E-01  7.450343E-01  5.844080E-02 -5.664489E-17  2.595050E-02 -4.242600E-03 -5.737965E-04 -4.325018E-01  0.000000E+00
  7.043967E-01  7.097324E-02  3.666667E-01  7.187650E-01  6.258419E-02 -1.132898E-16  2.726751E-02 -4.145355E-03 -5.641923E-04 -4.660871E-01  0.000000E+00
  6.775455E-01  7.490305E-02  3.666667E-01  6.913654E-01  6.659426E-02  3.058824E-14  2.838348E-02 -4.007184E-03 -5.514917E-04 -4.973605E-01  0.000000E+00
  6.496792E-01  7.869034E-02  3.666667E-01  6.629300E-01  7.045889E-02 -1.699347E-16  2.933437E-02 -3.860661E-03 -5.366779E-04 -5.295954E-01  0.000000E+00
  6.209097E-01  8.234802E-02  3.666667E-01  6.335729E-01  7.419127E-02  0.000000E+00  3.022949E-02 -3.717165E-03 -5.206870E-04 -5.650860E-01  0.000000E+00
  5.913667E-01  8.585307E-02  3.666667E-01  6.034265E-01  7.776791E-02  1.132898E-16  3.120337E-02 -3.566218E-03 -5.039913E-04 -6.042123E-01  0.000000E+00
  5.611982E-01  8.916606E-02  3.666667E-01  5.726419E-01  8.114856E-02  2.265796E-16  3.235752E-02 -3.400211E-03 -4.862582E-04 -6.479164E-01  0.000000E+00
  5.305654E-01  9.223732E-02  3.666667E-01  5.413834E-01  8.428255E-02  1.132898E-16  3.376672E-02 -3.210825E-03 -4.666474E-04 -6.980253E-01  0.000000E+00
  4.996398E-01  9.501653E-02  3.666667E-01  5.098262E-01  8.711852E-02 -1.699347E-16  3.550108E-02 -2.974145E-03 -4.442545E-04 -7.557024E-01  0.000000E+00
  4.685986E-01  9.742934E-02  3.666667E-01  4.781510E-01  8.958061E-02  1.132898E-16  3.761618E-02 -2.643958E-03 -4.183961E-04 -8.194479E-01  0.000000E+00
  4.376215E-01  9.938142E-02  3.666667E-01  4.465413E-01  9.157256E-02 -5.664489E-17  4.009744E-02 -2.170637E-03 -3.885647E-04 -8.855952E-01  0.000000E+00
  4.068895E-01  1.007810E-01  3.666667E-01  4.151817E-01  9.300075E-02 -5.664489E-17  4.283057E-02 -1.516160E-03 -3.545954E-04 -9.496704E-01  0.000000E+00
  3.765814E-01  1.015562E-01  3.666667E-01  3.842545E-01  9.379172E-02  5.664489E-17  4.562007E-02 -6.814333E-04 -3.169803E-04 -1.009277E+00  0.000000E+00
  3.468696E-01  1.016911E-01  3.666667E-01  3.539360E-01  9.392937E-02 -5.664489E-17  4.830534E-02  3.169231E-04 -2.773758E-04 -1.063213E+00  0.000000E+00
  3.179133E-01  1.011844E-01  3.666667E-01  3.243883E-01  9.341234E-02  0.000000E+00  5.082998E-02  1.473510E-03 -2.383528E-04 -1.110784E+00  0.000000E+00
  2.898519E-01  1.000497E-01  3.666667E-01  2.957537E-01  9.225446E-02  5.664489E-17  5.319809E-02  2.768478E-03 -2.021233E-04 -1.154793E+00  0.000000E+00
  2.628044E-01  9.832508E-02  3.666667E-01  2.681538E-01  9.049465E-02  5.664489E-17  5.547115E-02  4.188836E-03 -1.698079E-04 -1.199129E+00  0.000000E+00
  9.800000E-01  1.198725E-02  3.666667E-01  9.999971E-01  2.393483E-03  5.664489E-17  1.058163E-02 -1.307540E-02 -6.359742E-04 -5.739227E-02  0.000000E+00
  9.720124E-01  1.410900E-02  3.666667E-01  9.918464E-01  4.558571E-03  0.000000E+00  1.212897E-02 -3.292354E-03 -6.004005E-04  6.881589E-02  0.000000E+00
  9.632634E-01  1.644631E-02  3.666667E-01  9.829187E-01  6.943616E-03  1.132898E-16  9.168171E-03 -2.385851E-03 -5.105516E-04  2.195849E-02  0.000000E+00
  9.536907E-01  1.898747E-02  3.666667E-01  9.731505E-01  9.536676E-03 -5.664489E-17  7.330866E-03 -1.934492E-03 -4.483280E-04  3.966801E-03  0.000000E+00
  9.432303E-01  2.171654E-02  3.666667E-01  9.624764E-01  1.232149E-02 -1.699347E-16  6.942205E-03 -1.794313E-03 -4.263061E-04 -1.596636E-02  0.000000E+00
  9.318220E-01  2.463666E-02  3.666667E-01  9.508351E-01  1.530124E-02 -5.664489E-17  7.683569E-03 -1.944096E-03 -4.329314E-04 -4.184400E-02  0.000000E+00
  9.194070E-01  2.775060E-02  3.666667E-01  9.381666E-01  1.847878E-02  0.000000E+00  9.065075E-03 -2.245745E-03 -4.534799E-04 -6.964655E-02  0.000000E+00
  9.059278E-01  3.105613E-02  3.666667E-01  9.244121E-01  2.185182E-02 -1.132898E-16  1.068148E-02 -2.584378E-03 -4.778601E-04 -9.924459E-02  0.000000E+00
  8.913299E-01  3.454691E-02  3.666667E-01  9.095160E-01  2.541389E-02  0.000000E+00  1.233654E-02 -2.908761E-03 -5.012142E-04 -1.311603E-01  0.000000E+00
  8.755643E-01  3.821711E-02  3.666667E-01  8.934285E-01  2.915905E-02 -1.132898E-16  1.400383E-02 -3.211014E-03 -5.222193E-04 -1.654923E-01  0.000000E+00
  8.585885E-01  4.205539E-02  3.666667E-01  8.761059E-01  3.307572E-02  3.098475E-14  1.572157E-02 -3.493267E-03 -5.409410E-04 -2.018054E-01  0.000000E+00
  8.403666E-01  4.603879E-02  3.666667E-01  8.575119E-01  3.714048E-02  3.098475E-14  1.749738E-02 -3.749018E-03 -5.569352E-04 -2.394771E-01  0.000000E+00
  8.208730E-01  5.013694E-02  3.666667E-01  8.376202E-01  4.132233E-02 -5.664489E-17  1.929593E-02 -3.966144E-03 -5.692123E-04 -2.781619E-01  0.000000E+00
  8.000947E-01  5.431639E-02  3.666667E-01  8.164176E-01  4.558714E-02 -5.664489E-17  2.107741E-02 -4.133175E-03 -5.771539E-04 -3.175618E-01  0.000000E+00
  7.780326E-01  5.853697E-02  3.666667E-01  7.939048E-01  4.989392E-02 -1.132898E-16  2.280790E-02 -4.239847E-03 -5.805662E-04 -3.571406E-01  0.000000E+00
  7.547032E-01  6.275272E-02  3.666667E-01  7.700990E-01  5.419577E-02  3.075817E-14  2.444865E-02 -4.277179E-03 -5.794108E-04 -3.958877E-01  0.000000E+00
  7.301402E-01  6.691279E-02  3.666667E-01  7.450343E-01  5.844080E-02 -5.664489E-17  2.595050E-02 -4.242600E-03 -5.737965E-04 -4.325018E-01  0.000000E+00
  2.444131E-01 -3.000787E-03  3.666667E-01  2.493869E-01 -1.290066E-02  3.092811E-14  2.820051E-02  1.223034E-03  1.542633E-04  1.649958E-01  0.000000E+00
  2.700250E-01 -1.897107E-03  3.666667E-01  2.755219E-01 -1.177444E-02  5.664489E-17  2.848697E-02  1.208372E-03  1.647173E-04  1.626264E-01  0.000000E+00
  2.967058E-01 -7.886360E-04  3.666667E-01  3.027476E-01 -1.064333E-02 -5.664489E-17  2.890137E-02  1.240756E-03  1.778445E-04  1.539680E-01  0.000000E+00
  3.243554E-01  4.304632E-04  3.666667E-01  3.309619E-01 -9.399333E-03  3.070153E-14  2.907857E-02  1.400688E-03  1.935471E-04  1.402617E-01  0.000000E+00
  3.528511E-01  1.914685E-03  3.666667E-01  3.600397E-01 -7.884798E-03 -5.664489E-17  2.860997E-02  1.709484E-03  2.108740E-04  1.278732E-01  0.000000E+00
  3.820469E-01  3.886004E-03  3.666667E-01  3.898316E-01 -5.873217E-03 -1.132898E-16  2.723386E-02  2.115496E-03  2.280029E-04  1.247390E-01  0.000000E+00
  4.117740E-01  6.516361E-03  3.666667E-01  4.201659E-01 -3.189139E-03  1.132898E-16  2.502939E-02  2.495550E-03  2.429031E-04  1.380840E-01  0.000000E+00
  4.418498E-01  9.883138E-03  3.666667E-01  4.508559E-01  2.463995E-04 -1.699347E-16  2.244117E-02  2.707568E-03  2.544078E-04  1.681902E-01  0.000000E+00
  4.721105E-01  1.383533E-02  3.666667E-01  4.817347E-01  4.279309E-03 -1.132898E-16  2.025116E-02  2.550279E-03  2.637668E-04  2.205436E-01  0.000000E+00
  5.024968E-01  1.750849E-02  3.666667E-01  5.127416E-01  8.027487E-03  5.664489E-17  1.892573E-02  2.109524E-03  2.726652E-04  2.760027E-01  0.000000E+00
  5.328693E-01  2.057508E-02  3.666667E-01  5.437344E-01  1.115671E-02 -2.265796E-16  1.825776E-02  1.707679E-03  2.817559E-04  3.032435E-01  0.000000E+00
  5.630297E-01  2.316048E-02  3.666667E-01  5.745109E-01  1.379492E-02  1.132898E-16  1.788384E-02  1.436901E-03  2.916795E-04  3.107500E-01  0.000000E+00
  5.927917E-01  2.539326E-02  3.666667E-01  6.048806E-01  1.607330E-02  0.000000E+00  1.753028E-02  1.258657E-03  3.020165E-04  3.167948E-01  0.000000E+00
  6.219828E-01  2.739445E-02  3.666667E-01  6.346680E-01  1.811535E-02  5.664489E-17  1.705660E-02  1.123508E-03  3.116300E-04  3.266922E-01  0.000000E+00
  6.504533E-01  2.919177E-02  3.666667E-01  6.637199E-01  1.994938E-02 -1.132898E-16  1.648072E-02  9.721264E-04  3.201321E-04  3.408722E-01  0.000000E+00
  6.780742E-01  3.070317E-02  3.666667E-01  6.919049E-01  2.149165E-02  3.092811E-14  1.591348E-02  7.730278E-04  3.279133E-04  3.573327E-01  0.000000E+00
  7.047326E-01  3.182840E-02  3.666667E-01  7.191078E-01  2.263986E-02 -5.664489E-17  1.547243E-02  5.325179E-04  3.355659E-04  3.723761E-01  0.000000E+00
  1.215943E-04  9.303838E-03  3.666667E-01  1.060953E-04 -3.447314E-04 -2.265796E-16 -4.465952E-02  7.972618E-02  2.155157E-04  7.545941E-01  0.000000E+00
  4.902502E-03  3.633008E-03  3.666667E-01  4.984646E-03 -6.131381E-03  5.664489E-17 -1.628981E-02  1.911062E-02  1.688051E-04  9.367379E-01  0.000000E+00
  1.254908E-02 -1.238261E-05  3.666667E-01  1.278739E-02 -9.851223E-03  2.265796E-16  8.177739E-03 -2.179079E-03  1.253413E-04  5.404103E-01  0.000000E+00
  2.163699E-02 -2.406625E-03  3.666667E-01  2.206092E-02 -1.229436E-02  5.664489E-17  2.186376E-02 -4.524935E-03  1.068423E-04  3.393326E-01  0.000000E+00
  3.184423E-02 -4.090415E-03  3.666667E-01  3.247662E-02 -1.401254E-02  0.000000E+00  2.761848E-02 -3.647905E-03  1.047890E-04  3.059382E-01  0.000000E+00
  4.311596E-02 -5.274136E-03  3.666667E-01  4.397856E-02 -1.522044E-02 -1.132898E-16  2.983344E-02 -2.427258E-03  1.068599E-04  2.709944E-01  0.000000E+00
  5.546913E-02 -6.001278E-03  3.666667E-01  5.658402E-02 -1.596243E-02 -5.664489E-17  3.051031E-02 -1.449752E-03  1.096277E-04  2.385694E-01  0.000000E+00
  6.891473E-02 -6.485877E-03  3.666667E-01  7.030423E-02 -1.645693E-02  1.699347E-16  3.075312E-02 -9.169690E-04  1.127094E-04  2.266651E-01  0.000000E+00
  8.348882E-02 -6.834983E-03  3.666667E-01  8.517598E-02 -1.681317E-02  2.832244E-16  3.088305E-02 -5.682667E-04  1.157377E-04  2.146808E-01  0.000000E+00
  9.923792E-02 -7.042980E-03  3.666667E-01  1.012467E-01 -1.702541E-02 -1.132898E-16  3.085820E-02 -2.106962E-04  1.187769E-04  1.957960E-01  0.000000E+00
  1.162051E-01 -7.052663E-03  3.666667E-01  1.185604E-01 -1.703529E-02  5.664489E-17  3.064133E-02  1.562547E-04  1.221000E-04  1.789181E-01  0.000000E+00
  1.344203E-01 -6.857080E-03  3.666667E-01  1.371476E-01 -1.683571E-02  0.000000E+00  3.025614E-02  4.771979E-04  1.258010E-04  1.695348E-01  0.000000E+00
  1.539027E-01 -6.453983E-03  3.666667E-01  1.570280E-01 -1.642438E-02  3.064488E-14  2.972325E-02  7.533846E-04  1.298380E-04  1.643735E-01  0.000000E+00
  1.746592E-01 -5.833126E-03  3.666667E-01  1.782084E-01 -1.579085E-02  3.109804E-14  2.911975E-02  9.716693E-04  1.343562E-04  1.622501E-01  0.000000E+00
  1.966815E-01 -5.023861E-03  3.666667E-01  2.006804E-01 -1.496505E-02 -1.132898E-16  2.857977E-02  1.116099E-03  1.396552E-04  1.631674E-01  0.000000E+00
  2.199461E-01 -4.065016E-03  3.666667E-01  2.244202E-01 -1.398663E-02 -1.699347E-16  2.823657E-02  1.198335E-03  1.461114E-04  1.646761E-01  0.000000E+00
  2.444131E-01 -3.000787E-03  3.666667E-01  2.493869E-01 -1.290066E-02  3.092811E-14  2.820051E-02  1.223034E-03  1.542633E-04  1.649958E-01  0.000000E+00
  7.047326E-01  3.182840E-02  3.666667E-01  7.191078E-01  2.263986E-02 -5.664489E-17  1.547243E-02  5.325179E-04  3.355659E-04  3.723761E-01  0.000000E+00