 Title= "ADflow Lift Distribution Data"
Variables = "eta" "CoordinateX" "CoordinateY" "CoordinateZ" "Lift" "Drag" "Moment" "Normalized Lift" "Normalized Drag" "Normalized Moment" "CL" "CD" "CM" "CLp" "CDp" "CMp" "CLv" "CDv" "CMv" "Elliptical" "thickness" "twist" "chord" "fx" "fy" "fz" 
Zone T= "LiftDist_01 allWalls: : z normal"
 I=          150
 DATAPACKING=BLOCK
  0.000000E+00
  6.711405E-03
  1.342281E-02
  2.013422E-02
  2.684563E-02
  3.355704E-02
  4.026845E-02
  4.697986E-02
  5.369127E-02
  6.040268E-02
  6.711409E-02
  7.382550E-02
  8.053691E-02
  8.724832E-02
  9.395973E-02
  1.006711E-01
  1.073825E-01
  1.140940E-01
  1.208054E-01
  1.275168E-01
  1.342282E-01
  1.409396E-01
  1.476510E-01
  1.543624E-01
  1.610738E-01
  1.677852E-01
  1.744966E-01
  1.812081E-01
  1.879195E-01
  1.946309E-01
  2.013423E-01
  2.080537E-01
  2.147651E-01
  2.214765E-01
  2.281879E-01
  2.348993E-01
  2.416107E-01
  2.483221E-01
  2.550336E-01
  2.617450E-01
  2.684564E-01
  2.751678E-01
  2.818792E-01
  2.885906E-01
  2.953020E-01
  3.020134E-01
  3.087248E-01
  3.154362E-01
  3.221476E-01
  3.288591E-01
  3.355705E-01
  3.422819E-01
  3.489933E-01
  3.557047E-01
  3.624161E-01
  3.691275E-01
  3.758389E-01
  3.825503E-01
  3.892617E-01
  3.959732E-01
  4.026846E-01
  4.093960E-01
  4.161074E-01
  4.228188E-01
  4.295302E-01
  4.362416E-01
  4.429530E-01
  4.496644E-01
  4.563758E-01
  4.630872E-01
  4.697987E-01
  4.765101E-01
  4.832215E-01
  4.899329E-01
  4.966443E-01
  5.033557E-01
  5.100671E-01
  5.167785E-01
  5.234899E-01
  5.302013E-01
  5.369128E-01
  5.436242E-01
  5.503356E-01
  5.570470E-01
  5.637584E-01
  5.704698E-01
  5.771812E-01
  5.838926E-01
  5.906040E-01
  5.973154E-01
  6.040268E-01
  6.107383E-01
  6.174497E-01
  6.241611E-01
  6.308725E-01
  6.375839E-01
  6.442953E-01
  6.510067E-01
  6.577181E-01
  6.644295E-01
  6.711409E-01
  6.778524E-01
  6.845638E-01
  6.912752E-01
  6.979866E-01
  7.046980E-01
  7.114094E-01
  7.181208E-01
  7.248322E-01
  7.315436E-01
  7.382550E-01
  7.449664E-01
  7.516779E-01
  7.583893E-01
  7.651007E-01
  7.718121E-01
  7.785235E-01
  7.852349E-01
  7.919463E-01
  7.986577E-01
  8.053691E-01
  8.120805E-01
  8.187919E-01
  8.255034E-01
  8.322148E-01
  8.389262E-01
  8.456376E-01
  8.523490E-01
  8.590604E-01
  8.657718E-01
  8.724832E-01
  8.791946E-01
  8.859060E-01
  8.926175E-01
  8.993289E-01
  9.060403E-01
  9.127517E-01
  9.194631E-01
  9.261745E-01
  9.328859E-01
  9.395973E-01
  9.463087E-01
  9.530201E-01
  9.597315E-01
  9.664430E-01
  9.731544E-01
  9.798658E-01
  9.865772E-01
  9.932886E-01
  1.000000E+00
  0.000000E+00
  0.000000E+00
  0.000000E+00
  0.000000E+00
  0.000000E+00
  0.000000E+00
  0.000000E+00
  0.000000E+00
  0.000000E+00
  0.000000E+00
  0.000000E+00
  0.000000E+00
  0.000000E+00
  0.000000E+00
  0.000000E+00
  0.000000E+00
  0.000000E+00
  0.000000E+00
  0.000000E+00
  0.000000E+00
  0.000000E+00
  0.000000E+00
  0.000000E+00
  0.000000E+00
  0.000000E+00
  0.000000E+00
  0.000000E+00
  0.000000E+00
  0.000000E+00
  0.000000E+00
  0.000000E+00
  0.000000E+00
  0.000000E+00
  0.000000E+00
  0.000000E+00
  0.000000E+00
  0.000000E+00
  0.000000E+00
  0.000000E+00
  0.000000E+00
  0.000000E+00
  0.000000E+00
  0.000000E+00
  0.000000E+00
  0.000000E+00
  0.000000E+00
  0.000000E+00
  0.000000E+00
  0.000000E+00
  0.000000E+00
  0.000000E+00
  0.000000E+00
  0.000000E+00
  0.000000E+00
  0.000000E+00
  0.000000E+00
  0.000000E+00
  0.000000E+00
  0.000000E+00
  0.000000E+00
  0.000000E+00
  0.000000E+00
  0.000000E+00
  0.000000E+00
  0.000000E+00
  0.000000E+00
  0.000000E+00
  0.000000E+00
  0.000000E+00
  0.000000E+00
  0.000000E+00
  0.000000E+00
  0.000000E+00
  0.000000E+00
  0.000000E+00
  0.000000E+00
  0.000000E+00
  0.000000E+00
  0.000000E+00
  0.000000E+00
  0.000000E+00
  0.000000E+00
  0.000000E+00
  0.000000E+00
  0.000000E+00
  0.000000E+00
  0.000000E+00
  0.000000E+00
  0.000000E+00
  0.000000E+00
  0.000000E+00
  0.000000E+00
  0.000000E+00
  0.000000E+00
  0.000000E+00
  0.000000E+00
  0.000000E+00
  0.000000E+00
  0.000000E+00
  0.000000E+00
  0.000000E+00
  0.000000E+00
  0.000000E+00
  0.000000E+00
  0.000000E+00
  0.000000E+00
  0.000000E+00
  0.000000E+00
  0.000000E+00
  0.000000E+00
  0.000000E+00
  0.000000E+00
  0.000000E+00
  0.000000E+00
  0.000000E+00
  0.000000E+00
  0.000000E+00
  0.000000E+00
  0.000000E+00
  0.000000E+00
  0.000000E+00
  0.000000E+00
  0.000000E+00
  0.000000E+00
  0.000000E+00
  0.000000E+00
  0.000000E+00
  0.000000E+00
  0.000000E+00
  0.000000E+00
  0.000000E+00
  0.000000E+00
  0.000000E+00
  0.000000E+00
  0.000000E+00
  0.000000E+00
  0.000000E+00
  0.000000E+00
  0.000000E+00
  0.000000E+00
  0.000000E+00
  0.000000E+00
  0.000000E+00
  0.000000E+00
  0.000000E+00
  0.000000E+00
  0.000000E+00
  0.000000E+00
  0.000000E+00
  0.000000E+00
  0.000000E+00
  0.000000E+00
  0.000000E+00
  0.000000E+00
  0.000000E+00
  0.000000E+00
  0.000000E+00
  0.000000E+00
  0.000000E+00
  0.000000E+00
  0.000000E+00
  0.000000E+00
  0.000000E+00
  0.000000E+00
  0.000000E+00
  0.000000E+00
  0.000000E+00
  0.000000E+00
  0.000000E+00
  0.000000E+00
  0.000000E+00
  0.000000E+00
  0.000000E+00
  0.000000E+00
  0.000000E+00
  0.000000E+00
  0.000000E+00
  0.000000E+00
  0.000000E+00
  0.000000E+00
  0.000000E+00
  0.000000E+00
  0.000000E+00
  0.000000E+00
  0.000000E+00
  0.000000E+00
  0.000000E+00
  0.000000E+00
  0.000000E+00
  0.000000E+00
  0.000000E+00
  0.000000E+00
  0.000000E+00
  0.000000E+00
  0.000000E+00
  0.000000E+00
  0.000000E+00
  0.000000E+00
  0.000000E+00
  0.000000E+00
  0.000000E+00
  0.000000E+00
  0.000000E+00
  0.000000E+00
  0.000000E+00
  0.000000E+00
  0.000000E+00
  0.000000E+00
  0.000000E+00
  0.000000E+00
  0.000000E+00
  0.000000E+00
  0.000000E+00
  0.000000E+00
  0.000000E+00
  0.000000E+00
  0.000000E+00
  0.000000E+00
  0.000000E+00
  0.000000E+00
  0.000000E+00
  0.000000E+00
  0.000000E+00
  0.000000E+00
  0.000000E+00
  0.000000E+00
  0.000000E+00
  0.000000E+00
  0.000000E+00
  0.000000E+00
  0.000000E+00
  0.000000E+00
  0.000000E+00
  0.000000E+00
  0.000000E+00
  0.000000E+00
  0.000000E+00
  0.000000E+00
  0.000000E+00
  0.000000E+00
  0.000000E+00
  0.000000E+00
  0.000000E+00
  0.000000E+00
  0.000000E+00
  0.000000E+00
  0.000000E+00
  0.000000E+00
  0.000000E+00
  0.000000E+00
  0.000000E+00
  0.000000E+00
  0.000000E+00
  0.000000E+00
  0.000000E+00
  0.000000E+00
  0.000000E+00
  0.000000E+00
  0.000000E+00
  0.000000E+00
  0.000000E+00
  0.000000E+00
  0.000000E+00
  0.000000E+00
  0.000000E+00
  0.000000E+00
  0.000000E+00
  0.000000E+00
  0.000000E+00
  0.000000E+00
  0.000000E+00
  0.000000E+00
  0.000000E+00
  0.000000E+00
  0.000000E+00
  0.000000E+00
  0.000000E+00
  0.000000E+00
  0.000000E+00
  0.000000E+00
  0.000000E+00
  0.000000E+00
  0.000000E+00
  0.000000E+00
  0.000000E+00
  0.000000E+00
  0.000000E+00
  0.000000E+00
  0.000000E+00
  0.000000E+00
  0.000000E+00
  0.000000E+00
  0.000000E+00
  0.000000E+00
  0.000000E+00
  0.000000E+00
  0.000000E+00
  0.000000E+00
  0.000000E+00
  0.000000E+00
  1.000000E-08
  1.695085E-02
  3.390169E-02
  5.085254E-02
  6.780338E-02
  8.475423E-02
  1.017051E-01
  1.186559E-01
  1.356068E-01
  1.525576E-01
  1.695085E-01
  1.864593E-01
  2.034101E-01
  2.203610E-01
  2.373118E-01
  2.542627E-01
  2.712135E-01
  2.881644E-01
  3.051152E-01
  3.220661E-01
  3.390169E-01
  3.559678E-01
  3.729186E-01
  3.898694E-01
  4.068203E-01
  4.237711E-01
  4.407220E-01
  4.576728E-01
  4.746237E-01
  4.915745E-01
  5.085254E-01
  5.254762E-01
  5.424271E-01
  5.593779E-01
  5.763287E-01
  5.932796E-01
  6.102304E-01
  6.271813E-01
  6.441321E-01
  6.610830E-01
  6.780338E-01
  6.949847E-01
  7.119355E-01
  7.288864E-01
  7.458372E-01
  7.627880E-01
  7.797389E-01
  7.966897E-01
  8.136406E-01
  8.305914E-01
  8.475423E-01
  8.644931E-01
  8.814440E-01
  8.983948E-01
  9.153457E-01
  9.322965E-01
  9.492473E-01
  9.661982E-01
  9.831490E-01
  1.000100E+00
  1.017051E+00
  1.034002E+00
  1.050952E+00
  1.067903E+00
  1.084854E+00
  1.101805E+00
  1.118756E+00
  1.135707E+00
  1.152657E+00
  1.169608E+00
  1.186559E+00
  1.203510E+00
  1.220461E+00
  1.237412E+00
  1.254363E+00
  1.271313E+00
  1.288264E+00
  1.305215E+00
  1.322166E+00
  1.339117E+00
  1.356068E+00
  1.373018E+00
  1.389969E+00
  1.406920E+00
  1.423871E+00
  1.440822E+00
  1.457773E+00
  1.474724E+00
  1.491674E+00
  1.508625E+00
  1.525576E+00
  1.542527E+00
  1.559478E+00
  1.576429E+00
  1.593379E+00
  1.610330E+00
  1.627281E+00
  1.644232E+00
  1.661183E+00
  1.678134E+00
  1.695085E+00
  1.712035E+00
  1.728986E+00
  1.745937E+00
  1.762888E+00
  1.779839E+00
  1.796790E+00
  1.813740E+00
  1.830691E+00
  1.847642E+00
  1.864593E+00
  1.881544E+00
  1.898495E+00
  1.915446E+00
  1.932396E+00
  1.949347E+00
  1.966298E+00
  1.983249E+00
  2.000200E+00
  2.017151E+00
  2.034101E+00
  2.051052E+00
  2.068003E+00
  2.084954E+00
  2.101905E+00
  2.118856E+00
  2.135807E+00
  2.152757E+00
  2.169708E+00
  2.186659E+00
  2.203610E+00
  2.220561E+00
  2.237512E+00
  2.254462E+00
  2.271413E+00
  2.288364E+00
  2.305315E+00
  2.322266E+00
  2.339217E+00
  2.356168E+00
  2.373118E+00
  2.390069E+00
  2.407020E+00
  2.423971E+00
  2.440922E+00
  2.457873E+00
  2.474823E+00
  2.491774E+00
  2.508725E+00
  2.525676E+00
  8.389245E+03
  8.388132E+03
  8.387020E+03
  8.385910E+03
  8.384801E+03
  8.383693E+03
  8.382587E+03
  8.381482E+03
  8.380378E+03
  8.376422E+03
  8.372396E+03
  8.368372E+03
  8.364349E+03
  8.360326E+03
  8.356305E+03
  8.352286E+03
  8.347298E+03
  8.340535E+03
  8.333772E+03
  8.327010E+03
  8.320250E+03
  8.313490E+03
  8.306732E+03
  8.299830E+03
  8.291774E+03
  8.283719E+03
  8.275664E+03
  8.267611E+03
  8.259558E+03
  8.251506E+03
  8.243216E+03
  8.234131E+03
  8.225047E+03
  8.215964E+03
  8.206882E+03
  8.197800E+03
  8.188718E+03
  8.178845E+03
  8.168625E+03
  8.158405E+03
  8.148186E+03
  8.137967E+03
  8.127749E+03
  8.117022E+03
  8.105758E+03
  8.094494E+03
  8.083231E+03
  8.071967E+03
  8.060703E+03
  8.048920E+03
  8.036773E+03
  8.024626E+03
  8.012479E+03
  8.000332E+03
  7.988184E+03
  7.975314E+03
  7.962432E+03
  7.949550E+03
  7.936668E+03
  7.923786E+03
  7.910531E+03
  7.897083E+03
  7.883637E+03
  7.870190E+03
  7.856743E+03
  7.843033E+03
  7.829151E+03
  7.815269E+03
  7.801388E+03
  7.787507E+03
  7.773260E+03
  7.758921E+03
  7.744584E+03
  7.730250E+03
  7.715741E+03
  7.700666E+03
  7.685594E+03
  7.670526E+03
  7.655463E+03
  7.639270E+03
  7.622957E+03
  7.606651E+03
  7.590351E+03
  7.572554E+03
  7.554341E+03
  7.536137E+03
  7.517941E+03
  7.497365E+03
  7.476432E+03
  7.455507E+03
  7.434051E+03
  7.409531E+03
  7.385018E+03
  7.360513E+03
  7.333356E+03
  7.304561E+03
  7.275770E+03
  7.245724E+03
  7.212145E+03
  7.178570E+03
  7.144609E+03
  7.105896E+03
  7.067186E+03
  7.028223E+03
  6.984172E+03
  6.940123E+03
  6.895151E+03
  6.845703E+03
  6.796258E+03
  6.744460E+03
  6.689647E+03
  6.634838E+03
  6.575575E+03
  6.515482E+03
  6.453451E+03
  6.388201E+03
  6.322795E+03
  6.252590E+03
  6.182394E+03
  6.108438E+03
  6.033592E+03
  5.955729E+03
  5.876533E+03
  5.794566E+03
  5.711324E+03
  5.625230E+03
  5.538315E+03
  5.448190E+03
  5.357212E+03
  5.263913E+03
  5.168898E+03
  5.072623E+03
  4.973753E+03
  4.873313E+03
  4.771220E+03
  4.666770E+03
  4.559850E+03
  4.450756E+03
  4.339492E+03
  4.226757E+03
  4.115292E+03
  4.011978E+03
  3.929117E+03
  3.898860E+03
  3.966397E+03
  3.942537E+03
  3.637324E+03
  4.269461E+03
  1.077210E+03
 -2.493424E-04
  3.873206E+02
  3.873806E+02
  3.874408E+02
  3.875012E+02
  3.875619E+02
  3.876228E+02
  3.876839E+02
  3.877453E+02
  3.878069E+02
  3.877486E+02
  3.876877E+02
  3.876270E+02
  3.875666E+02
  3.875064E+02
  3.874466E+02
  3.873869E+02
  3.873263E+02
  3.872634E+02
  3.872007E+02
  3.871381E+02
  3.870756E+02
  3.870132E+02
  3.869509E+02
  3.869083E+02
  3.870218E+02
  3.871354E+02
  3.872490E+02
  3.873626E+02
  3.874763E+02
  3.875900E+02
  3.877395E+02
  3.880079E+02
  3.882763E+02
  3.885447E+02
  3.888132E+02
  3.890816E+02
  3.893500E+02
  3.897141E+02
  3.901202E+02
  3.905263E+02
  3.909323E+02
  3.913384E+02
  3.917444E+02
  3.922197E+02
  3.927681E+02
  3.933165E+02
  3.938650E+02
  3.944135E+02
  3.949621E+02
  3.955721E+02
  3.962252E+02
  3.968784E+02
  3.975317E+02
  3.981851E+02
  3.988386E+02
  3.995314E+02
  4.002248E+02
  4.009183E+02
  4.016119E+02
  4.023055E+02
  4.029794E+02
  4.036433E+02
  4.043071E+02
  4.049709E+02
  4.056347E+02
  4.062379E+02
  4.068011E+02
  4.073644E+02
  4.079277E+02
  4.084909E+02
  4.089181E+02
  4.093113E+02
  4.097046E+02
  4.100979E+02
  4.104414E+02
  4.106229E+02
  4.108047E+02
  4.109869E+02
  4.111694E+02
  4.111682E+02
  4.111471E+02
  4.111267E+02
  4.111070E+02
  4.109716E+02
  4.108043E+02
  4.106378E+02
  4.104722E+02
  4.102429E+02
  4.100044E+02
  4.097667E+02
  4.095275E+02
  4.092756E+02
  4.090242E+02
  4.087732E+02
  4.085259E+02
  4.082808E+02
  4.080357E+02
  4.077938E+02
  4.075607E+02
  4.073272E+02
  4.070967E+02
  4.069059E+02
  4.067145E+02
  4.065261E+02
  4.064039E+02
  4.062813E+02
  4.061702E+02
  4.061164E+02
  4.060626E+02
  4.060359E+02
  4.060441E+02
  4.060528E+02
  4.061110E+02
  4.061793E+02
  4.062681E+02
  4.063903E+02
  4.065155E+02
  4.066756E+02
  4.068382E+02
  4.070298E+02
  4.072310E+02
  4.074456E+02
  4.076686E+02
  4.078730E+02
  4.080714E+02
  4.082535E+02
  4.084342E+02
  4.086572E+02
  4.089201E+02
  4.092947E+02
  4.098362E+02
  4.105097E+02
  4.115844E+02
  4.129944E+02
  4.147836E+02
  4.172023E+02
  4.204396E+02
  4.245630E+02
  4.298784E+02
  4.369289E+02
  4.467879E+02
  4.615110E+02
  4.845709E+02
  5.235209E+02
  5.878299E+02
  6.469476E+02
  6.689699E+02
  8.215924E+02
  1.142196E+02
  3.592982E-04
  1.200722E+03
  1.200122E+03
  1.199523E+03
  1.198925E+03
  1.198327E+03
  1.197730E+03
  1.197133E+03
  1.196536E+03
  1.195940E+03
  1.194120E+03
  1.192269E+03
  1.190420E+03
  1.188570E+03
  1.186722E+03
  1.184873E+03
  1.183025E+03
  1.180945E+03
  1.178440E+03
  1.175934E+03
  1.173429E+03
  1.170924E+03
  1.168420E+03
  1.165916E+03
  1.163427E+03
  1.161062E+03
  1.158698E+03
  1.156333E+03
  1.153969E+03
  1.151605E+03
  1.149241E+03
  1.146953E+03
  1.144915E+03
  1.142877E+03
  1.140839E+03
  1.138802E+03
  1.136764E+03
  1.134727E+03
  1.132972E+03
  1.131341E+03
  1.129710E+03
  1.128079E+03
  1.126447E+03
  1.124816E+03
  1.123492E+03
  1.122491E+03
  1.121491E+03
  1.120490E+03
  1.119490E+03
  1.118489E+03
  1.118011E+03
  1.117900E+03
  1.117788E+03
  1.117677E+03
  1.117565E+03
  1.117453E+03
  1.118459E+03
  1.119482E+03
  1.120504E+03
  1.121527E+03
  1.122550E+03
  1.124493E+03
  1.126907E+03
  1.129322E+03
  1.131736E+03
  1.134151E+03
  1.137536E+03
  1.141557E+03
  1.145579E+03
  1.149601E+03
  1.153623E+03
  1.159003E+03
  1.164724E+03
  1.170447E+03
  1.176170E+03
  1.182264E+03
  1.189566E+03
  1.196869E+03
  1.204173E+03
  1.211480E+03
  1.219778E+03
  1.228190E+03
  1.236604E+03
  1.245021E+03
  1.253653E+03
  1.262348E+03
  1.271047E+03
  1.279749E+03
  1.287887E+03
  1.295942E+03
  1.304001E+03
  1.311843E+03
  1.318434E+03
  1.325028E+03
  1.331625E+03
  1.336871E+03
  1.341281E+03
  1.345693E+03
  1.349383E+03
  1.351041E+03
  1.352700E+03
  1.354129E+03
  1.352738E+03
  1.351348E+03
  1.349810E+03
  1.345308E+03
  1.340806E+03
  1.335783E+03
  1.328225E+03
  1.320668E+03
  1.311839E+03
  1.301380E+03
  1.290922E+03
  1.278225E+03
  1.265111E+03
  1.251111E+03
  1.235640E+03
  1.220105E+03
  1.202621E+03
  1.185140E+03
  1.166384E+03
  1.147326E+03
  1.127528E+03
  1.107403E+03
  1.086901E+03
  1.066225E+03
  1.045500E+03
  1.024763E+03
  1.004388E+03
  9.842137E+02
  9.646210E+02
  9.456905E+02
  9.272617E+02
  9.101168E+02
  8.938488E+02
  8.785167E+02
  8.645616E+02
  8.520984E+02
  8.411278E+02
  8.320714E+02
  8.258731E+02
  8.248031E+02
  8.339124E+02
  8.622758E+02
  9.281284E+02
  1.054270E+03
  1.165833E+03
  1.147164E+03
  1.379235E+03
  1.812003E+02
 -2.236519E-10
  1.175660E+00
  1.175504E+00
  1.175348E+00
  1.175192E+00
  1.175037E+00
  1.174882E+00
  1.174727E+00
  1.174572E+00
  1.174417E+00
  1.173863E+00
  1.173299E+00
  1.172735E+00
  1.172171E+00
  1.171607E+00
  1.171044E+00
  1.170480E+00
  1.169781E+00
  1.168834E+00
  1.167886E+00
  1.166938E+00
  1.165991E+00
  1.165044E+00
  1.164096E+00
  1.163129E+00
  1.162000E+00
  1.160871E+00
  1.159743E+00
  1.158614E+00
  1.157486E+00
  1.156357E+00
  1.155195E+00
  1.153922E+00
  1.152649E+00
  1.151376E+00
  1.150104E+00
  1.148831E+00
  1.147558E+00
  1.146175E+00
  1.144742E+00
  1.143310E+00
  1.141878E+00
  1.140446E+00
  1.139014E+00
  1.137511E+00
  1.135932E+00
  1.134354E+00
  1.132775E+00
  1.131197E+00
  1.129618E+00
  1.127967E+00
  1.126265E+00
  1.124562E+00
  1.122860E+00
  1.121158E+00
  1.119456E+00
  1.117652E+00
  1.115847E+00
  1.114041E+00
  1.112236E+00
  1.110431E+00
  1.108573E+00
  1.106689E+00
  1.104804E+00
  1.102920E+00
  1.101036E+00
  1.099114E+00
  1.097169E+00
  1.095223E+00
  1.093278E+00
  1.091333E+00
  1.089336E+00
  1.087327E+00
  1.085318E+00
  1.083309E+00
  1.081276E+00
  1.079163E+00
  1.077051E+00
  1.074939E+00
  1.072828E+00
  1.070559E+00
  1.068273E+00
  1.065988E+00
  1.063704E+00
  1.061210E+00
  1.058657E+00
  1.056106E+00
  1.053556E+00
  1.050673E+00
  1.047739E+00
  1.044807E+00
  1.041800E+00
  1.038364E+00
  1.034928E+00
  1.031494E+00
  1.027689E+00
  1.023653E+00
  1.019619E+00
  1.015408E+00
  1.010702E+00
  1.005997E+00
  1.001238E+00
  9.958127E-01
  9.903878E-01
  9.849276E-01
  9.787543E-01
  9.725813E-01
  9.662791E-01
  9.593495E-01
  9.524202E-01
  9.451613E-01
  9.374799E-01
  9.297991E-01
  9.214940E-01
  9.130726E-01
  9.043797E-01
  8.952356E-01
  8.860697E-01
  8.762312E-01
  8.663940E-01
  8.560299E-01
  8.455411E-01
  8.346294E-01
  8.235310E-01
  8.120443E-01
  8.003788E-01
  7.883136E-01
  7.761335E-01
  7.635035E-01
  7.507539E-01
  7.376791E-01
  7.243638E-01
  7.108720E-01
  6.970163E-01
  6.829408E-01
  6.686336E-01
  6.539961E-01
  6.390124E-01
  6.237242E-01
  6.081317E-01
  5.923332E-01
  5.767126E-01
  5.622343E-01
  5.506222E-01
  5.463820E-01
  5.558465E-01
  5.525029E-01
  5.097306E-01
  5.983177E-01
  1.509590E-01
 -3.494257E-08
  9.499945E-01
  9.501416E-01
  9.502892E-01
  9.504374E-01
  9.505862E-01
  9.507356E-01
  9.508855E-01
  9.510360E-01
  9.511871E-01
  9.510443E-01
  9.508948E-01
  9.507460E-01
  9.505978E-01
  9.504503E-01
  9.503034E-01
  9.501572E-01
  9.500084E-01
  9.498542E-01
  9.497003E-01
  9.495468E-01
  9.493935E-01
  9.492405E-01
  9.490878E-01
  9.489832E-01
  9.492616E-01
  9.495401E-01
  9.498187E-01
  9.500975E-01
  9.503763E-01
  9.506552E-01
  9.510219E-01
  9.516803E-01
  9.523386E-01
  9.529970E-01
  9.536553E-01
  9.543136E-01
  9.549720E-01
  9.558652E-01
  9.568611E-01
  9.578571E-01
  9.588530E-01
  9.598489E-01
  9.608449E-01
  9.620106E-01
  9.633557E-01
  9.647009E-01
  9.660461E-01
  9.673915E-01
  9.687369E-01
  9.702331E-01
  9.718351E-01
  9.734373E-01
  9.750397E-01
  9.766423E-01
  9.782451E-01
  9.799443E-01
  9.816451E-01
  9.833461E-01
  9.850472E-01
  9.867485E-01
  9.884014E-01
  9.900296E-01
  9.916578E-01
  9.932860E-01
  9.949142E-01
  9.963935E-01
  9.977750E-01
  9.991566E-01
  1.000538E+00
  1.001920E+00
  1.002967E+00
  1.003932E+00
  1.004896E+00
  1.005861E+00
  1.006704E+00
  1.007149E+00
  1.007595E+00
  1.008042E+00
  1.008489E+00
  1.008486E+00
  1.008435E+00
  1.008385E+00
  1.008336E+00
  1.008004E+00
  1.007594E+00
  1.007185E+00
  1.006779E+00
  1.006217E+00
  1.005632E+00
  1.005049E+00
  1.004462E+00
  1.003844E+00
  1.003228E+00
  1.002612E+00
  1.002006E+00
  1.001404E+00
  1.000803E+00
  1.000210E+00
  9.996381E-01
  9.990654E-01
  9.984999E-01
  9.980319E-01
  9.975626E-01
  9.971003E-01
  9.968006E-01
  9.964999E-01
  9.962274E-01
  9.960957E-01
  9.959637E-01
  9.958981E-01
  9.959183E-01
  9.959396E-01
  9.960823E-01
  9.962500E-01
  9.964675E-01
  9.967675E-01
  9.970744E-01
  9.974670E-01
  9.978658E-01
  9.983358E-01
  9.988293E-01
  9.993557E-01
  9.999026E-01
  1.000404E+00
  1.000891E+00
  1.001337E+00
  1.001781E+00
  1.002327E+00
  1.002972E+00
  1.003891E+00
  1.005219E+00
  1.006871E+00
  1.009507E+00
  1.012965E+00
  1.017354E+00
  1.023286E+00
  1.031227E+00
  1.041340E+00
  1.054377E+00
  1.071670E+00
  1.095852E+00
  1.131964E+00
  1.188524E+00
  1.284058E+00
  1.441790E+00
  1.586790E+00
  1.640805E+00
  2.015148E+00
  2.801503E-01
  8.812629E-07
  1.043933E+00
  1.043412E+00
  1.042891E+00
  1.042371E+00
  1.041851E+00
  1.041331E+00
  1.040812E+00
  1.040294E+00
  1.039775E+00
  1.038193E+00
  1.036584E+00
  1.034976E+00
  1.033368E+00
  1.031761E+00
  1.030154E+00
  1.028547E+00
  1.026739E+00
  1.024560E+00
  1.022382E+00
  1.020204E+00
  1.018026E+00
  1.015849E+00
  1.013672E+00
  1.011508E+00
  1.009452E+00
  1.007396E+00
  1.005340E+00
  1.003285E+00
  1.001230E+00
  9.991743E-01
  9.971848E-01
  9.954130E-01
  9.936413E-01
  9.918697E-01
  9.900983E-01
  9.883269E-01
  9.865557E-01
  9.850299E-01
  9.836116E-01
  9.821934E-01
  9.807752E-01
  9.793571E-01
  9.779390E-01
  9.767876E-01
  9.759177E-01
  9.750477E-01
  9.741778E-01
  9.733079E-01
  9.724379E-01
  9.720226E-01
  9.719255E-01
  9.718285E-01
  9.717315E-01
  9.716345E-01
  9.715375E-01
  9.724115E-01
  9.733008E-01
  9.741902E-01
  9.750795E-01
  9.759689E-01
  9.776579E-01
  9.797570E-01
  9.818562E-01
  9.839554E-01
  9.860547E-01
  9.889975E-01
  9.924937E-01
  9.959902E-01
  9.994869E-01
  1.002984E+00
  1.007662E+00
  1.012636E+00
  1.017611E+00
  1.022587E+00
  1.027886E+00
  1.034233E+00
  1.040583E+00
  1.046934E+00
  1.053286E+00
  1.060501E+00
  1.067814E+00
  1.075130E+00
  1.082448E+00
  1.089953E+00
  1.097512E+00
  1.105075E+00
  1.112641E+00
  1.119716E+00
  1.126720E+00
  1.133726E+00
  1.140544E+00
  1.146274E+00
  1.152007E+00
  1.157743E+00
  1.162303E+00
  1.166138E+00
  1.169974E+00
  1.173182E+00
  1.174623E+00
  1.176066E+00
  1.177309E+00
  1.176099E+00
  1.174890E+00
  1.173553E+00
  1.169639E+00
  1.165725E+00
  1.161357E+00
  1.154787E+00
  1.148217E+00
  1.140541E+00
  1.131447E+00
  1.122354E+00
  1.111316E+00
  1.099914E+00
  1.087742E+00
  1.074291E+00
  1.060785E+00
  1.045584E+00
  1.030386E+00
  1.014079E+00
  9.975094E-01
  9.802964E-01
  9.627997E-01
  9.449742E-01
  9.269983E-01
  9.089796E-01
  8.909504E-01
  8.732364E-01
  8.556961E-01
  8.386618E-01
  8.222032E-01
  8.061808E-01
  7.912747E-01
  7.771310E-01
  7.638009E-01
  7.516680E-01
  7.408323E-01
  7.312942E-01
  7.234204E-01
  7.180314E-01
  7.171012E-01
  7.250210E-01
  7.496808E-01
  8.069344E-01
  9.166048E-01
  1.013600E+00
  9.973686E-01
  1.199136E+00
  1.575394E-01
 -1.944476E-13
  7.501193E-01
  7.500200E-01
  7.499209E-01
  7.498219E-01
  7.497230E-01
  7.496242E-01
  7.495255E-01
  7.494270E-01
  7.493285E-01
  7.489750E-01
  7.486153E-01
  7.482557E-01
  7.478962E-01
  7.475368E-01
  7.471775E-01
  7.468183E-01
  7.463725E-01
  7.457680E-01
  7.451635E-01
  7.445591E-01
  7.439548E-01
  7.433506E-01
  7.427465E-01
  7.421295E-01
  7.414094E-01
  7.406893E-01
  7.399693E-01
  7.392494E-01
  7.385295E-01
  7.378097E-01
  7.370686E-01
  7.362565E-01
  7.354444E-01
  7.346324E-01
  7.338204E-01
  7.330085E-01
  7.321966E-01
  7.313139E-01
  7.304002E-01
  7.294866E-01
  7.285729E-01
  7.276593E-01
  7.267457E-01
  7.257866E-01
  7.247796E-01
  7.237725E-01
  7.227654E-01
  7.217584E-01
  7.207513E-01
  7.196978E-01
  7.186117E-01
  7.175256E-01
  7.164395E-01
  7.153533E-01
  7.142672E-01
  7.131164E-01
  7.119645E-01
  7.108126E-01
  7.096608E-01
  7.085089E-01
  7.073235E-01
  7.061211E-01
  7.049186E-01
  7.037161E-01
  7.025137E-01
  7.012876E-01
  7.000461E-01
  6.988046E-01
  6.975632E-01
  6.963219E-01
  6.950475E-01
  6.937651E-01
  6.924827E-01
  6.912005E-01
  6.899028E-01
  6.885542E-01
  6.872059E-01
  6.858579E-01
  6.845103E-01
  6.830615E-01
  6.816019E-01
  6.801429E-01
  6.786844E-01
  6.770919E-01
  6.754621E-01
  6.738331E-01
  6.722048E-01
  6.703636E-01
  6.684903E-01
  6.666178E-01
  6.646978E-01
  6.625039E-01
  6.603105E-01
  6.581178E-01
  6.556882E-01
  6.531120E-01
  6.505363E-01
  6.478484E-01
  6.448448E-01
  6.418416E-01
  6.388039E-01
  6.353418E-01
  6.318799E-01
  6.283954E-01
  6.244566E-01
  6.205179E-01
  6.164968E-01
  6.120760E-01
  6.076554E-01
  6.030247E-01
  5.981248E-01
  5.932252E-01
  5.879277E-01
  5.825561E-01
  5.770113E-01
  5.711789E-01
  5.653325E-01
  5.590572E-01
  5.527827E-01
  5.461721E-01
  5.394817E-01
  5.325216E-01
  5.254422E-01
  5.181149E-01
  5.106735E-01
  5.029768E-01
  4.952066E-01
  4.871492E-01
  4.790154E-01
  4.706738E-01
  4.621787E-01
  4.535708E-01
  4.447307E-01
  4.357501E-01
  4.266216E-01
  4.172823E-01
  4.077219E-01
  3.979671E-01
  3.880181E-01
  3.779377E-01
  3.679707E-01
  3.587325E-01
  3.513231E-01
  3.486174E-01
  3.546558E-01
  3.525220E-01
  3.252310E-01
  3.817531E-01
  1.322730E-01
 -5.423485E-03
  3.463204E-02
  3.463742E-02
  3.464281E-02
  3.464823E-02
  3.465366E-02
  3.465912E-02
  3.466460E-02
  3.467009E-02
  3.467561E-02
  3.467042E-02
  3.466498E-02
  3.465956E-02
  3.465417E-02
  3.464881E-02
  3.464346E-02
  3.463814E-02
  3.463273E-02
  3.462712E-02
  3.462152E-02
  3.461593E-02
  3.461035E-02
  3.460478E-02
  3.459922E-02
  3.459542E-02
  3.460558E-02
  3.461574E-02
  3.462590E-02
  3.463607E-02
  3.464625E-02
  3.465642E-02
  3.466980E-02
  3.469381E-02
  3.471781E-02
  3.474182E-02
  3.476583E-02
  3.478983E-02
  3.481384E-02
  3.484641E-02
  3.488272E-02
  3.491904E-02
  3.495535E-02
  3.499166E-02
  3.502797E-02
  3.507048E-02
  3.511952E-02
  3.516856E-02
  3.521760E-02
  3.526665E-02
  3.531570E-02
  3.537025E-02
  3.542865E-02
  3.548706E-02
  3.554548E-02
  3.560391E-02
  3.566234E-02
  3.572428E-02
  3.578629E-02
  3.584829E-02
  3.591031E-02
  3.597233E-02
  3.603258E-02
  3.609193E-02
  3.615128E-02
  3.621063E-02
  3.626999E-02
  3.632390E-02
  3.637426E-02
  3.642461E-02
  3.647496E-02
  3.652531E-02
  3.656350E-02
  3.659863E-02
  3.663377E-02
  3.666892E-02
  3.669960E-02
  3.671580E-02
  3.673203E-02
  3.674828E-02
  3.676456E-02
  3.676440E-02
  3.676246E-02
  3.676058E-02
  3.675876E-02
  3.674659E-02
  3.673156E-02
  3.671660E-02
  3.670172E-02
  3.668113E-02
  3.665973E-02
  3.663840E-02
  3.661692E-02
  3.659431E-02
  3.657174E-02
  3.654921E-02
  3.652702E-02
  3.650502E-02
  3.648302E-02
  3.646131E-02
  3.644039E-02
  3.641945E-02
  3.639876E-02
  3.638166E-02
  3.636451E-02
  3.634761E-02
  3.633667E-02
  3.632570E-02
  3.631575E-02
  3.631097E-02
  3.630618E-02
  3.630382E-02
  3.630462E-02
  3.630544E-02
  3.631073E-02
  3.631692E-02
  3.632495E-02
  3.633599E-02
  3.634728E-02
  3.636172E-02
  3.637638E-02
  3.639364E-02
  3.641175E-02
  3.643107E-02
  3.645113E-02
  3.646953E-02
  3.648738E-02
  3.650376E-02
  3.652001E-02
  3.654003E-02
  3.656361E-02
  3.659716E-02
  3.664564E-02
  3.670590E-02
  3.680203E-02
  3.692813E-02
  3.708814E-02
  3.730442E-02
  3.759388E-02
  3.796256E-02
  3.843782E-02
  3.906822E-02
  3.994974E-02
  4.126618E-02
  4.332805E-02
  4.681073E-02
  5.256087E-02
  5.784683E-02
  5.981590E-02
  7.346255E-02
  1.402528E-02
  7.815151E-03
  1.073618E-01
  1.073082E-01
  1.072547E-01
  1.072013E-01
  1.071478E-01
  1.070945E-01
  1.070411E-01
  1.069878E-01
  1.069346E-01
  1.067718E-01
  1.066064E-01
  1.064411E-01
  1.062757E-01
  1.061105E-01
  1.059452E-01
  1.057800E-01
  1.055941E-01
  1.053701E-01
  1.051461E-01
  1.049221E-01
  1.046982E-01
  1.044743E-01
  1.042504E-01
  1.040279E-01
  1.038165E-01
  1.036050E-01
  1.033936E-01
  1.031823E-01
  1.029709E-01
  1.027596E-01
  1.025550E-01
  1.023728E-01
  1.021906E-01
  1.020084E-01
  1.018263E-01
  1.016441E-01
  1.014620E-01
  1.013051E-01
  1.011592E-01
  1.010134E-01
  1.008675E-01
  1.007217E-01
  1.005759E-01
  1.004575E-01
  1.003680E-01
  1.002786E-01
  1.001891E-01
  1.000996E-01
  1.000102E-01
  9.996748E-02
  9.995750E-02
  9.994753E-02
  9.993756E-02
  9.992759E-02
  9.991761E-02
  1.000075E-01
  1.000990E-01
  1.001904E-01
  1.002819E-01
  1.003733E-01
  1.005470E-01
  1.007629E-01
  1.009788E-01
  1.011947E-01
  1.014105E-01
  1.017132E-01
  1.020727E-01
  1.024323E-01
  1.027918E-01
  1.031515E-01
  1.036325E-01
  1.041440E-01
  1.046556E-01
  1.051673E-01
  1.057121E-01
  1.063649E-01
  1.070178E-01
  1.076708E-01
  1.083240E-01
  1.090658E-01
  1.098178E-01
  1.105700E-01
  1.113225E-01
  1.120941E-01
  1.128713E-01
  1.136489E-01
  1.144267E-01
  1.151542E-01
  1.158741E-01
  1.165944E-01
  1.172953E-01
  1.178843E-01
  1.184736E-01
  1.190632E-01
  1.195319E-01
  1.199260E-01
  1.203202E-01
  1.206499E-01
  1.207979E-01
  1.209459E-01
  1.210736E-01
  1.209490E-01
  1.208245E-01
  1.206869E-01
  1.202843E-01
  1.198818E-01
  1.194326E-01
  1.187569E-01
  1.180813E-01
  1.172920E-01
  1.163571E-01
  1.154221E-01
  1.142872E-01
  1.131149E-01
  1.118634E-01
  1.104805E-01
  1.090918E-01
  1.075289E-01
  1.059663E-01
  1.042896E-01
  1.025859E-01
  1.008160E-01
  9.901696E-02
  9.718405E-02
  9.533564E-02
  9.348279E-02
  9.162883E-02
  8.980726E-02
  8.800351E-02
  8.625177E-02
  8.455923E-02
  8.291150E-02
  8.137856E-02
  7.992401E-02
  7.855313E-02
  7.730534E-02
  7.619093E-02
  7.520996E-02
  7.440014E-02
  7.384586E-02
  7.375014E-02
  7.456459E-02
  7.710064E-02
  8.298879E-02
  9.426770E-02
  1.042430E-01
  1.025736E-01
  1.233241E-01
  2.225000E-02
 -4.864686E-09
  7.502837E-01
  7.501845E-01
  7.500855E-01
  7.499866E-01
  7.498878E-01
  7.497892E-01
  7.496906E-01
  7.495922E-01
  7.494939E-01
  7.491406E-01
  7.487811E-01
  7.484217E-01
  7.480624E-01
  7.477032E-01
  7.473441E-01
  7.469851E-01
  7.465396E-01
  7.459353E-01
  7.453311E-01
  7.447270E-01
  7.441230E-01
  7.435190E-01
  7.429151E-01
  7.422985E-01
  7.415787E-01