 Title = "ADflow Slice Data"
Variables =  "CoordinateX"  "CoordinateY"  "CoordinateZ"  "XoC"  "YoC"  "ZoC" "VelocityX" "VelocityY" "VelocityZ" "CoefPressure" "Mach" 
Zone T= "Slice_0001 None Relative Regular z = 0.10000000"
 Nodes =          114  Elements=          106  ZONETYPE=FELINESEG
 DATAPACKING=POINT
  7.301402E-01  6.690130E-02  1.000000E-01  7.450355E-01  5.838697E-02  1.416124E-17  2.284377E-02 -3.919504E-03 -4.965421E-04 -3.903405E-01  0.000000E+00
  7.043967E-01  7.119765E-02  1.000000E-01  7.187661E-01  6.277107E-02 -4.248373E-17  2.422491E-02 -3.906468E-03 -4.411890E-04 -4.280980E-01  0.000000E+00
  6.775455E-01  7.539024E-02  1.000000E-01  6.913665E-01  6.704929E-02  3.965148E-16  2.554362E-02 -3.855367E-03 -3.733639E-04 -4.662025E-01  0.000000E+00
  6.496792E-01  7.944514E-02  1.000000E-01  6.629310E-01  7.118702E-02  4.248373E-17  2.682410E-02 -3.778856E-03 -2.954663E-04 -5.062945E-01  0.000000E+00
  6.209097E-01  8.333969E-02  1.000000E-01  6.335739E-01  7.516111E-02 -2.832249E-17  2.812390E-02 -3.679167E-03 -2.102759E-04 -5.492201E-01  0.000000E+00
  5.913667E-01  8.702858E-02  1.000000E-01  6.034275E-01  7.892535E-02 -2.832249E-17  2.950878E-02 -3.551313E-03 -1.206159E-04 -5.951927E-01  0.000000E+00
  5.611982E-01  9.046643E-02  1.000000E-01  5.726428E-01  8.243342E-02  0.000000E+00  3.103462E-02 -3.391544E-03 -2.969494E-05 -6.451270E-01  0.000000E+00
  5.305654E-01  9.360176E-02  1.000000E-01  5.413842E-01  8.563279E-02 -5.664497E-17  3.275651E-02 -3.192851E-03  5.869114E-05 -7.007191E-01  0.000000E+00
  4.996398E-01  9.638718E-02  1.000000E-01  5.098270E-01  8.847510E-02  0.000000E+00  3.473873E-02 -2.935002E-03  1.403334E-04 -7.631611E-01  0.000000E+00
  4.685986E-01  9.875600E-02  1.000000E-01  4.781518E-01  9.089230E-02  1.416124E-17  3.704001E-02 -2.576918E-03  2.109700E-04 -8.310488E-01  0.000000E+00
  4.376215E-01  1.006252E-01  1.000000E-01  4.465420E-01  9.279966E-02 -8.496746E-17  3.965383E-02 -2.073952E-03  2.664245E-04 -9.008428E-01  0.000000E+00
  4.068895E-01  1.019160E-01  1.000000E-01  4.151823E-01  9.411684E-02  0.000000E+00  4.247294E-02 -1.392502E-03  3.031701E-04 -9.682044E-01  0.000000E+00
  3.765814E-01  1.025692E-01  1.000000E-01  3.842551E-01  9.478337E-02 -5.664497E-17  4.530571E-02 -5.372223E-04  3.192263E-04 -1.030867E+00  0.000000E+00
  3.468696E-01  1.025799E-01  1.000000E-01  3.539365E-01  9.479427E-02 -5.664497E-17  4.799673E-02  4.726295E-04  3.157614E-04 -1.087756E+00  0.000000E+00
  3.179133E-01  1.019542E-01  1.000000E-01  3.243888E-01  9.415587E-02 -2.832249E-17  5.050019E-02  1.630783E-03  2.973345E-04 -1.138336E+00  0.000000E+00
  2.898519E-01  1.007101E-01  1.000000E-01  2.957542E-01  9.288631E-02 -4.248373E-17  5.283444E-02  2.918393E-03  2.696540E-04 -1.185600E+00  0.000000E+00
  2.628044E-01  9.888761E-02  1.000000E-01  2.681542E-01  9.102660E-02  0.000000E+00  5.507684E-02  4.325064E-03  2.377148E-04 -1.233528E+00  0.000000E+00
  9.800000E-01  1.128546E-02  1.000000E-01  9.999987E-01  1.635168E-03 -2.832249E-17  1.074408E-02 -1.311388E-02 -7.628502E-04 -5.587501E-02  0.000000E+00
  9.720124E-01  1.339618E-02  1.000000E-01  9.918479E-01  3.788998E-03 -2.832249E-17  1.244594E-02 -3.333444E-03 -6.287121E-04  7.269321E-02  0.000000E+00
  9.632634E-01  1.572293E-02  1.000000E-01  9.829203E-01  6.163274E-03 -2.832249E-17  9.390296E-03 -2.411734E-03 -5.370034E-04  2.746003E-02  0.000000E+00
  9.536907E-01  1.825416E-02  1.000000E-01  9.731520E-01  8.746203E-03 -2.832249E-17  7.374170E-03 -1.920117E-03 -4.740258E-04  1.128005E-02  0.000000E+00
  9.432303E-01  2.097428E-02  1.000000E-01  9.624779E-01  1.152188E-02  1.416124E-17  6.781810E-03 -1.730295E-03 -4.528410E-04 -6.386969E-03  0.000000E+00
  9.318220E-01  2.388729E-02  1.000000E-01  9.508366E-01  1.449439E-02  1.416124E-17  7.305959E-03 -1.826489E-03 -4.622055E-04 -2.966640E-02  0.000000E+00
  9.194070E-01  2.699716E-02  1.000000E-01  9.381680E-01  1.766778E-02 -8.496746E-17  8.462623E-03 -2.074767E-03 -4.861124E-04 -5.451632E-02  0.000000E+00
  9.059278E-01  3.030323E-02  1.000000E-01  9.244135E-01  2.104138E-02 -5.664497E-17  9.847331E-03 -2.362626E-03 -5.133761E-04 -8.078932E-02  0.000000E+00
  8.913299E-01  3.380120E-02  1.000000E-01  9.095174E-01  2.461079E-02  0.000000E+00  1.124963E-02 -2.636834E-03 -5.382317E-04 -1.090736E-01  0.000000E+00
  8.755643E-01  3.748786E-02  1.000000E-01  8.934299E-01  2.837275E-02 -2.832249E-17  1.261909E-02 -2.885363E-03 -5.584047E-04 -1.395473E-01  0.000000E+00
  8.585885E-01  4.135515E-02  1.000000E-01  8.761073E-01  3.231903E-02  4.106761E-16  1.399022E-02 -3.111846E-03 -5.734899E-04 -1.718931E-01  0.000000E+00
  8.403666E-01  4.538403E-02  1.000000E-01  8.575132E-01  3.643020E-02  3.965148E-16  1.541021E-02 -3.321117E-03 -5.833906E-04 -2.056666E-01  0.000000E+00
  8.208730E-01  4.954874E-02  1.000000E-01  8.376215E-01  4.067997E-02 -8.496746E-17  1.688894E-02 -3.512233E-03 -5.869546E-04 -2.407365E-01  0.000000E+00
  8.000947E-01  5.382098E-02  1.000000E-01  8.164188E-01  4.503948E-02 -2.832249E-17  1.840024E-02 -3.676847E-03 -5.820132E-04 -2.770618E-01  0.000000E+00
  7.780326E-01  5.816587E-02  1.000000E-01  7.939061E-01  4.947311E-02 -2.832249E-17  1.991227E-02 -3.804458E-03 -5.663537E-04 -3.144451E-01  0.000000E+00
  7.547032E-01  6.254209E-02  1.000000E-01  7.701002E-01  5.393871E-02  4.389986E-16  2.140065E-02 -3.886519E-03 -5.382283E-04 -3.523898E-01  0.000000E+00
  7.301402E-01  6.690130E-02  1.000000E-01  7.450355E-01  5.838697E-02  2.832249E-17  2.284377E-02 -3.919504E-03 -4.965421E-04 -3.903405E-01  0.000000E+00
  2.444131E-01 -2.500485E-03  1.000000E-01  2.493873E-01 -1.243236E-02  3.681923E-16  2.804535E-02  1.296879E-03 -7.941577E-05  1.807216E-01  0.000000E+00
  2.700250E-01 -1.310334E-03  1.000000E-01  2.755223E-01 -1.121790E-02 -4.248373E-17  2.828211E-02  1.286996E-03 -9.331823E-05  1.775216E-01  0.000000E+00
  2.967058E-01 -1.039391E-04  1.000000E-01  3.027481E-01 -9.986866E-03 -2.832249E-17  2.864140E-02  1.322897E-03 -1.074793E-04  1.682308E-01  0.000000E+00
  3.243554E-01  1.223779E-03  1.000000E-01  3.309624E-01 -8.632029E-03  4.248373E-16  2.877058E-02  1.482187E-03 -1.197862E-04  1.540775E-01  0.000000E+00
  3.528511E-01  2.825017E-03  1.000000E-01  3.600402E-01 -6.998085E-03 -4.248373E-17  2.827698E-02  1.783241E-03 -1.272551E-04  1.413493E-01  0.000000E+00
  3.820469E-01  4.917321E-03  1.000000E-01  3.898322E-01 -4.863046E-03  5.664497E-17  2.691010E-02  2.173461E-03 -1.268951E-04  1.378675E-01  0.000000E+00
  4.117740E-01  7.664905E-03  1.000000E-01  4.201666E-01 -2.059342E-03 -5.664497E-17  2.475182E-02  2.532550E-03 -1.171403E-04  1.507446E-01  0.000000E+00
  4.418498E-01  1.113466E-02  1.000000E-01  4.508566E-01  1.481284E-03 -2.832249E-17  2.224195E-02  2.724166E-03 -9.875535E-05  1.801430E-01  0.000000E+00
  4.721105E-01  1.516370E-02  1.000000E-01  4.817355E-01  5.592618E-03 -5.664497E-17  2.015130E-02  2.551126E-03 -7.586976E-05  2.314313E-01  0.000000E+00
  5.024968E-01  1.887567E-02  1.000000E-01  5.127424E-01  9.380408E-03  1.416124E-17  1.893953E-02  2.095603E-03 -4.973961E-05  2.855179E-01  0.000000E+00
  5.328693E-01  2.193229E-02  1.000000E-01  5.437352E-01  1.249946E-02 -4.248373E-17  1.840467E-02  1.674860E-03 -1.752355E-05  3.112062E-01  0.000000E+00
  5.630297E-01  2.445151E-02  1.000000E-01  5.745117E-01  1.507013E-02  1.416124E-17  1.819304E-02  1.381710E-03  2.104419E-05  3.169153E-01  0.000000E+00
  5.927917E-01  2.655894E-02  1.000000E-01  6.048815E-01  1.722061E-02  5.664497E-17  1.803389E-02  1.180651E-03  6.416159E-05  3.207366E-01  0.000000E+00
  6.219828E-01  2.837726E-02  1.000000E-01  6.346690E-01  1.907607E-02 -4.248373E-17  1.777734E-02  1.024643E-03  1.093926E-04  3.279796E-01  0.000000E+00
  6.504533E-01  2.993975E-02  1.000000E-01  6.637209E-01  2.067047E-02  5.664497E-17  1.741900E-02  8.567706E-04  1.540224E-04  3.391089E-01  0.000000E+00
  6.780742E-01  3.118476E-02  1.000000E-01  6.919060E-01  2.194091E-02  4.531598E-16  1.703919E-02  6.484285E-04  1.960677E-04  3.521494E-01  0.000000E+00
  7.047326E-01  3.204440E-02  1.000000E-01  7.191089E-01  2.281810E-02  0.000000E+00  1.673251E-02  4.039451E-04  2.344861E-04  3.640089E-01  0.000000E+00
  1.215943E-04  9.345272E-03  1.000000E-01  1.060955E-04 -3.446527E-04 -5.664497E-17 -5.767763E-02  1.029339E-01  2.976100E-05  6.707471E-01  0.000000E+00
  4.902502E-03  3.678112E-03  1.000000E-01  4.984653E-03 -6.127566E-03 -8.496746E-17 -2.543387E-02  2.751704E-02  1.916337E-05  9.690003E-01  0.000000E+00
  1.254908E-02  3.895754E-05  1.000000E-01  1.278741E-02 -9.841051E-03 -2.832249E-17  3.445458E-03 -1.858445E-04  9.549485E-06  6.000981E-01  0.000000E+00
  2.163699E-02 -2.347287E-03  1.000000E-01  2.206095E-02 -1.227603E-02  1.416124E-17  2.025821E-02 -4.122851E-03  3.558933E-06  3.893733E-01  0.000000E+00
  3.184423E-02 -4.021322E-03  1.000000E-01  3.247667E-02 -1.398426E-02 -2.832249E-17  2.727410E-02 -3.567498E-03 -3.632448E-07  3.476476E-01  0.000000E+00
  4.311596E-02 -5.193297E-03  1.000000E-01  4.397863E-02 -1.518017E-02 -8.496746E-17  2.986800E-02 -2.396821E-03 -3.621638E-06  3.081761E-01  0.000000E+00
  5.546913E-02 -5.906357E-03  1.000000E-01  5.658411E-02 -1.590780E-02  1.416124E-17  3.063164E-02 -1.419864E-03 -6.937814E-06  2.725539E-01  0.000000E+00
  6.891473E-02 -6.374144E-03  1.000000E-01  7.030434E-02 -1.638514E-02 -8.496746E-17  3.086844E-02 -8.817601E-04 -1.064312E-05  2.574149E-01  0.000000E+00
  8.348882E-02 -6.703211E-03  1.000000E-01  8.517611E-02 -1.672093E-02  5.664497E-17  3.096158E-02 -5.273237E-04 -1.481701E-05  2.425809E-01  0.000000E+00
  9.923792E-02 -6.887345E-03  1.000000E-01  1.012469E-01 -1.690882E-02 -9.912871E-17  3.089524E-02 -1.644284E-04 -1.955140E-05  2.215015E-01  0.000000E+00
  1.162051E-01 -6.868645E-03  1.000000E-01  1.185606E-01 -1.688974E-02 -8.496746E-17  3.064301E-02  2.070254E-04 -2.499379E-05  2.028184E-01  0.000000E+00
  1.344203E-01 -6.639360E-03  1.000000E-01  1.371479E-01 -1.665577E-02 -8.496746E-17  3.023028E-02  5.318366E-04 -3.125352E-05  1.917574E-01  0.000000E+00
  1.539027E-01 -6.196343E-03  1.000000E-01  1.570282E-01 -1.620371E-02  4.389986E-16  2.967575E-02  8.116104E-04 -3.839444E-05  1.850139E-01  0.000000E+00
  1.746592E-01 -5.528347E-03  1.000000E-01  1.782086E-01 -1.552207E-02  3.257086E-16  2.905305E-02  1.033428E-03 -4.657273E-05  1.814449E-01  0.000000E+00
  1.966815E-01 -4.663649E-03  1.000000E-01  2.006808E-01 -1.463971E-02 -2.832249E-17  2.849171E-02  1.181534E-03 -5.600919E-05  1.810593E-01  0.000000E+00
  2.199461E-01 -3.639974E-03  1.000000E-01  2.244206E-01 -1.359512E-02 -4.248373E-17  2.812020E-02  1.267740E-03 -6.690781E-05  1.814076E-01  0.000000E+00
  2.444131E-01 -2.500485E-03  1.000000E-01  2.493873E-01 -1.243236E-02  3.823536E-16  2.804535E-02  1.296879E-03 -7.941577E-05  1.807216E-01  0.000000E+00
  7.047326E-01  3.204440E-02  1.000000E-01  7.191089E-01  2.281810E-02 -2.832249E-17  1.673251E-02  4.039451E-04  2.344861E-04  3.640089E-01  0.000000E+00
  7.303325E-01  3.247716E-02  1.000000E-01  7.452317E-01  2.325971E-02 -2.832249E-17  1.658493E-02  1.329474E-04  2.689207E-04  3.729192E-01  0.000000E+00
  7.547951E-01  3.247060E-02  1.000000E-01  7.701940E-01  2.325301E-02  4.389986E-16  1.667790E-02 -1.695758E-04  2.995343E-04  3.787085E-01  0.000000E+00
  7.780600E-01  3.201266E-02  1.000000E-01  7.939340E-01  2.278572E-02  1.416124E-17  1.707778E-02 -5.182575E-04  3.268639E-04  3.808998E-01  0.000000E+00
  8.000833E-01  3.111430E-02  1.000000E-01  8.164071E-01  2.186901E-02 -4.248373E-17  1.780724E-02 -9.256093E-04  3.515037E-04  3.785789E-01  0.000000E+00
  8.208376E-01  2.980442E-02  1.000000E-01  8.375854E-01  2.053237E-02 -2.832249E-17  1.880598E-02 -1.371728E-03  3.739495E-04  3.705142E-01  0.000000E+00
  8.403144E-01  2.818626E-02  1.000000E-01  8.574600E-01  1.888117E-02  4.389986E-16  1.991414E-02 -1.785969E-03  3.945518E-04  3.557797E-01  0.000000E+00
  8.585258E-01  2.641822E-02  1.000000E-01  8.760433E-01  1.707701E-02  3.965148E-16  2.093300E-02 -2.099272E-03  4.129506E-04  3.369753E-01  0.000000E+00
  8.754993E-01  2.464009E-02  1.000000E-01  8.933635E-01  1.526256E-02 -2.832249E-17  2.171691E-02 -2.296107E-03  4.278373E-04  3.185332E-01  0.000000E+00
  8.912718E-01  2.293176E-02  1.000000E-01  9.094582E-01  1.351934E-02 -2.832249E-17  2.225357E-02 -2.440265E-03  4.374271E-04  3.042847E-01  0.000000E+00
  9.058836E-01  2.128312E-02  1.000000E-01  9.243684E-01  1.183703E-02 -4.248373E-17  2.267477E-02 -2.622523E-03  4.409928E-04  2.947818E-01  0.000000E+00
  9.193796E-01  1.965538E-02  1.000000E-01  9.381401E-01  1.017604E-02 -5.664497E-17  2.317835E-02 -2.870725E-03  4.407089E-04  2.850975E-01  0.000000E+00
  9.318118E-01  1.804675E-02  1.000000E-01  9.508262E-01  8.534555E-03  4.248373E-17  2.397062E-02 -3.199401E-03  4.413591E-04  2.723873E-01  0.000000E+00
  9.432349E-01  1.644981E-02  1.000000E-01  9.624826E-01  6.904999E-03 -2.832249E-17  2.509386E-02 -3.624587E-03  4.464383E-04  2.572070E-01  0.000000E+00
  9.537058E-01  1.486273E-02  1.000000E-01  9.731674E-01  5.285495E-03  0.000000E+00  2.591254E-02 -4.048038E-03  4.495088E-04  2.340924E-01  0.000000E+00
  9.632829E-01  1.328864E-02  1.000000E-01  9.829401E-01  3.679257E-03 -2.832249E-17  2.483548E-02 -4.224303E-03  4.290145E-04  2.007820E-01  0.000000E+00
  9.720275E-01  1.175964E-02  1.000000E-01  9.918634E-01  2.119030E-03  0.000000E+00  2.107774E-02 -3.675005E-03  3.775045E-04  1.994282E-01  0.000000E+00
  9.800000E-01  1.029745E-02  1.000000E-01  9.999987E-01  6.269696E-04  1.416124E-17  1.389748E-02  4.277835E-03  3.287573E-04 -1.243592E-02  0.000000E+00
  1.215943E-04  1.002594E-02  1.000000E-01  1.060955E-04  3.499214E-04 -9.912871E-17  2.271482E-02  5.107882E-02  3.372448E-05  3.343045E-01  0.000000E+00
  7.278129E-05  9.911282E-03  1.000000E-01  5.628540E-05  2.329175E-04  1.416124E-17  1.504974E-02  7.497620E-02  3.034977E-05  1.491592E-01  0.000000E+00
  1.762252E-05  9.683027E-03  1.000000E-01  0.000000E+00  0.000000E+00  0.000000E+00 -1.633354E-02  1.352292E-01  3.350291E-05  1.758898E-01  0.000000E+00
  8.694958E-05  9.457863E-03  1.000000E-01  7.074307E-05 -2.297623E-04  0.000000E+00 -6.190961E-02  1.594225E-01  3.561202E-05  2.275416E-01  0.000000E+00
  1.215943E-04  9.345272E-03  1.000000E-01  1.060955E-04 -3.446527E-04 -4.248373E-17 -5.767763E-02  1.029339E-01  2.976100E-05  6.707471E-01  0.000000E+00
  9.800000E-01  1.029745E-02  1.000000E-01  9.999987E-01  6.269696E-04  0.000000E+00  1.389748E-02  4.277835E-03  3.287573E-04 -1.243592E-02  0.000000E+00
  9.800000E-01  1.046212E-02  1.000000E-01  9.999987E-01  7.950027E-04  0.000000E+00  4.412043E-03 -1.597576E-03 -2.248231E-05 -2.114322E-01  0.000000E+00
  9.800000E-01  1.079146E-02  1.000000E-01  9.999987E-01  1.131069E-03 -2.832249E-17 -4.606671E-04 -1.564899E-02 -4.938135E-04 -1.754353E-01  0.000000E+00
  9.800000E-01  1.112079E-02  1.000000E-01  9.999987E-01  1.467135E-03 -5.664497E-17  3.415841E-03 -1.934577E-02 -7.393551E-04 -1.947347E-01  0.000000E+00
  9.800000E-01  1.128546E-02  1.000000E-01  9.999987E-01  1.635168E-03  0.000000E+00  1.074408E-02 -1.311388E-02 -7.628502E-04 -5.587501E-02  0.000000E+00
  2.628044E-01  9.888761E-02  1.000000E-01  2.681542E-01  9.102660E-02 -2.832249E-17  5.507684E-02  4.325064E-03  2.377148E-04 -1.233528E+00  0.000000E+00
  2.368706E-01  9.653408E-02  1.000000E-01  2.416907E-01  8.862500E-02  3.681923E-16  5.738249E-02  5.936029E-03  2.054960E-04 -1.278923E+00  0.000000E+00
  2.121362E-01  9.364034E-02  1.000000E-01  2.164511E-01  8.567215E-02  1.416124E-17  5.977466E-02  7.826988E-03  1.754568E-04 -1.314672E+00  0.000000E+00
  1.886687E-01  9.022268E-02  1.000000E-01  1.925043E-01  8.218469E-02 -4.248373E-17  6.206530E-02  9.975717E-03  1.485791E-04 -1.335608E+00  0.000000E+00
  1.665185E-01  8.631225E-02  1.000000E-01  1.699016E-01  7.819439E-02  4.814823E-16  6.401758E-02  1.231433E-02  1.252351E-04 -1.339212E+00  0.000000E+00
  1.457161E-01  8.196521E-02  1.000000E-01  1.486744E-01  7.375856E-02  4.531598E-16  6.547341E-02  1.476752E-02  1.054352E-04 -1.327319E+00  0.000000E+00
  1.262764E-01  7.724071E-02  1.000000E-01  1.288376E-01  6.893756E-02  0.000000E+00  6.641727E-02  1.729823E-02  8.891125E-05 -1.305490E+00  0.000000E+00
  1.081990E-01  7.219803E-02  1.000000E-01  1.103910E-01  6.379188E-02  0.000000E+00  6.689506E-02  1.988475E-02  7.509744E-05 -1.280847E+00  0.000000E+00
  9.146971E-02  6.689924E-02  1.000000E-01  9.332001E-02  5.838486E-02  0.000000E+00  6.702688E-02  2.268615E-02  6.355587E-05 -1.248068E+00  0.000000E+00
  7.608258E-02  6.133976E-02  1.000000E-01  7.761859E-02  5.271183E-02  0.000000E+00  6.677117E-02  2.587657E-02  5.411649E-05 -1.188117E+00  0.000000E+00
  6.202881E-02  5.550875E-02  1.000000E-01  6.327777E-02  4.676172E-02 -5.664497E-17  6.577741E-02  2.931366E-02  4.669367E-05 -1.083798E+00  0.000000E+00
  4.929579E-02  4.942295E-02  1.000000E-01  5.028468E-02  4.055162E-02 -8.496746E-17  6.367925E-02  3.244352E-02  4.107549E-05 -9.413654E-01  0.000000E+00
  3.782553E-02  4.319298E-02  1.000000E-01  3.858014E-02  3.419440E-02  4.248373E-17  6.063822E-02  3.506254E-02  3.694966E-05 -7.892089E-01  0.000000E+00
  2.757469E-02  3.687258E-02  1.000000E-01  2.811993E-02  2.774490E-02 -2.832249E-17  5.722289E-02  3.746129E-02  3.376998E-05 -6.745123E-01  0.000000E+00
  1.848362E-02  3.053837E-02  1.000000E-01  1.884317E-02  2.128132E-02  5.664497E-17  5.417813E-02  4.118637E-02  3.152605E-05 -5.784038E-01  0.000000E+00
  1.064273E-02  2.406443E-02  1.000000E-01  1.084213E-02  1.467515E-02  1.416124E-17  5.073596E-02  4.786574E-02  3.172241E-05 -3.414834E-01  0.000000E+00
  4.262692E-03  1.730077E-02  1.000000E-01  4.331776E-03  7.773332E-03  1.416124E-17  4.112661E-02  5.520066E-02  3.486513E-05  1.463261E-01  0.000000E+00
  1.215943E-04  1.002594E-02  1.000000E-01  1.060955E-04  3.499214E-04 -8.496746E-17  2.271482E-02  5.107882E-02  3.372448E-05  3.343045E-01  0.000000E+00
    1    2
    2    3
    3    4
    4    5
    5    6
    6    7
    7    8
    8    9
    9   10
   10   11
   11   12
   12   13
   13   14
   14   15
   15   16
   16   17
   18   19
   19   20
   20   21
   21   22
   22   23
   23   24
   24   25
   25   26
   26   27
   27   28
   28   29
   29   30
   30   31
   31   32
   32   33
   33   34
   35   36
   36   37
   37   38
   38   39
   39   40
   40   41
   41   42
   42   43
   43   44
   44   45
   45   46
   46   47
   47   48
   48   49
   49   50
   50   51
   52   53
   53   54
   54   55
   55   56
   56   57
   57   58
   58   59
   59   60
   60   61
   61   62
   62   63
   63   64
   64   65
   65   66
   66   67
   67   68
   69   70
   70   71
   71   72
   72   73
   73   74
   74   75
   75   76
   76   77
   77   78
   78   79
   79   80
   80   81
   81   82
   82   83
   83   84
   84   85
   85   86
   87   88
   88   89
   89   90
   90   91
   92   93
   93   94
   94   95
   95   96
   97   98
   98   99
   99  100
  100  101
  101  102
  102  103
  103  104
  104  105
  105  106
  106  107
  107  108
  108  109
  109  110
  110  111
  111  112
  112  113
  113  114
Zone T= "Slice_0002 None Relative Regular z = 0.36666667"
 Nodes =          114  Elements=          106  ZONETYPE=FELINESEG
 DATAPACKING=POINT
  7.301402E-01  5.939214E-02  3.666667E-01  7.450328E-01  5.074543E-02 -5.664477E-17  2.142542E-02 -3.660262E-03 -1.355755E-03 -3.374603E-01  0.000000E+00
  7.043967E-01  6.375160E-02  3.666667E-01  7.187635E-01  5.519392E-02 -1.132895E-16  2.255211E-02 -3.705071E-03 -1.221064E-03 -3.742924E-01  0.000000E+00
  6.775455E-01  6.811599E-02  3.666667E-01  6.913640E-01  5.964744E-02  3.058818E-14  2.366569E-02 -3.732675E-03 -1.058260E-03 -4.133669E-01  0.000000E+00
  6.496792E-01  7.245460E-02  3.666667E-01  6.629286E-01  6.407464E-02 -1.699343E-16  2.480676E-02 -3.748226E-03 -8.719810E-04 -4.559116E-01  0.000000E+00
  6.209097E-01  7.673448E-02  3.666667E-01  6.335716E-01  6.844192E-02  0.000000E+00  2.603504E-02 -3.749062E-03 -6.679509E-04 -5.024459E-01  0.000000E+00
  5.913667E-01  8.090010E-02  3.666667E-01  6.034253E-01  7.269261E-02  1.132895E-16  2.741122E-02 -3.730398E-03 -4.523122E-04 -5.534998E-01  0.000000E+00
  5.611982E-01  8.489654E-02  3.666667E-01  5.726408E-01  7.677066E-02  2.265791E-16  2.899426E-02 -3.685845E-03 -2.319479E-04 -6.102314E-01  0.000000E+00
  5.305654E-01  8.865412E-02  3.666667E-01  5.413823E-01  8.060498E-02  1.132895E-16  3.084775E-02 -3.601395E-03 -1.495333E-05 -6.742661E-01  0.000000E+00
  4.996398E-01  9.209911E-02  3.666667E-01  5.098252E-01  8.412033E-02 -1.699343E-16  3.304059E-02 -3.448532E-03  1.895165E-04 -7.465559E-01  0.000000E+00
  4.685986E-01  9.513321E-02  3.666667E-01  4.781501E-01  8.721639E-02  1.132895E-16  3.563351E-02 -3.177634E-03  3.717655E-04 -8.252495E-01  0.000000E+00
  4.376215E-01  9.764095E-02  3.666667E-01  4.465404E-01  8.977534E-02 -5.664477E-17  3.862341E-02 -2.734111E-03  5.220524E-04 -9.060449E-01  0.000000E+00
  4.068895E-01  9.951511E-02  3.666667E-01  4.151808E-01  9.168777E-02 -5.664477E-17  4.189066E-02 -2.072636E-03  6.316409E-04 -9.834415E-01  0.000000E+00
  3.765814E-01  1.006753E-01  3.666667E-01  3.842538E-01  9.287160E-02  5.664477E-17  4.519633E-02 -1.188208E-03  6.946027E-04 -1.053805E+00  0.000000E+00
  3.468696E-01  1.011043E-01  3.666667E-01  3.539352E-01  9.330941E-02 -5.664477E-17  4.831475E-02 -1.043677E-04  7.114201E-04 -1.115312E+00  0.000000E+00
  3.179133E-01  1.008104E-01  3.666667E-01  3.243876E-01  9.300947E-02  0.000000E+00  5.114232E-02  1.152254E-03  6.901775E-04 -1.167815E+00  0.000000E+00
  2.898519E-01  9.982458E-02  3.666667E-01  2.957531E-01  9.200356E-02  5.664477E-17  5.368209E-02  2.542663E-03  6.426201E-04 -1.215139E+00  0.000000E+00
  2.628044E-01  9.820151E-02  3.666667E-01  2.681533E-01  9.034735E-02  5.664477E-17  5.603185E-02  4.045076E-03  5.801109E-04 -1.261939E+00  0.000000E+00
  9.800000E-01  7.589994E-03  3.666667E-01  9.999951E-01 -2.114598E-03  5.664477E-17  1.073552E-02 -1.260830E-02 -1.962098E-03 -5.028445E-02  0.000000E+00
  9.720124E-01  9.484505E-03  3.666667E-01  9.918444E-01 -1.813977E-04  0.000000E+00  1.266056E-02 -3.053798E-03 -1.782029E-03  8.151327E-02  0.000000E+00
  9.632634E-01  1.157975E-02  3.666667E-01  9.829168E-01  1.956631E-03  1.132895E-16  9.995268E-03 -2.308894E-03 -1.537804E-03  3.771552E-02  0.000000E+00
  9.536907E-01  1.386426E-02  3.666667E-01  9.731486E-01  4.287800E-03 -5.664477E-17  8.201942E-03 -1.922768E-03 -1.367576E-03  2.222089E-02  0.000000E+00
  9.432303E-01  1.632297E-02  3.666667E-01  9.624745E-01  6.796717E-03 -1.699343E-16  7.684057E-03 -1.767079E-03 -1.306518E-03  5.963843E-03  0.000000E+00
  9.318220E-01  1.896097E-02  3.666667E-01  9.508332E-01  9.488589E-03 -5.664477E-17  8.182001E-03 -1.847619E-03 -1.323890E-03 -1.533400E-02  0.000000E+00
  9.194070E-01  2.178402E-02  3.666667E-01  9.381647E-01  1.236929E-02  0.000000E+00  9.247657E-03 -2.053576E-03 -1.378778E-03 -3.781483E-02  0.000000E+00
  9.059278E-01  2.479403E-02  3.666667E-01  9.244102E-01  1.544077E-02 -1.132895E-16  1.050313E-02 -2.290050E-03 -1.442732E-03 -6.129759E-02  0.000000E+00
  8.913299E-01  2.799026E-02  3.666667E-01  9.095142E-01  1.870227E-02  0.000000E+00  1.175560E-02 -2.513944E-03 -1.500678E-03 -8.638045E-02  0.000000E+00
  8.755643E-01  3.137430E-02  3.666667E-01  8.934267E-01  2.215542E-02 -1.132895E-16  1.296206E-02 -2.717219E-03 -1.546349E-03 -1.132792E-01  0.000000E+00
  8.585885E-01  3.494428E-02  3.666667E-01  8.761042E-01  2.579830E-02  3.098469E-14  1.415363E-02 -2.903499E-03 -1.578406E-03 -1.417341E-01  0.000000E+00
  8.403666E-01  3.868897E-02  3.666667E-01  8.575102E-01  2.961947E-02  3.098469E-14  1.536614E-02 -3.076421E-03 -1.596415E-03 -1.713825E-01  0.000000E+00
  8.208730E-01  4.259236E-02  3.666667E-01  8.376185E-01  3.360257E-02 -5.664477E-17  1.660288E-02 -3.236176E-03 -1.597815E-03 -2.022000E-01  0.000000E+00
  8.000947E-01  4.663787E-02  3.666667E-01  8.164159E-01  3.773070E-02 -5.664477E-17  1.784379E-02 -3.378819E-03 -1.578240E-03 -2.342823E-01  0.000000E+00
  7.780326E-01  5.080447E-02  3.666667E-01  7.939032E-01  4.198238E-02 -1.132895E-16  1.906872E-02 -3.499110E-03 -1.533364E-03 -2.676245E-01  0.000000E+00
  7.547032E-01  5.506645E-02  3.666667E-01  7.700974E-01  4.633140E-02  3.075811E-14  2.026504E-02 -3.593002E-03 -1.459856E-03 -3.020376E-01  0.000000E+00
  7.301402E-01  5.939214E-02  3.666667E-01  7.450328E-01  5.074543E-02 -5.664477E-17  2.142542E-02 -3.660262E-03 -1.355755E-03 -3.374603E-01  0.000000E+00
  2.444131E-01 -3.075596E-03  3.666667E-01  2.493864E-01 -1.299800E-02  3.092805E-14  2.801577E-02  1.143634E-03 -1.815273E-04  1.915248E-01  0.000000E+00
  2.700250E-01 -2.047225E-03  3.666667E-01  2.755214E-01 -1.194862E-02  5.664477E-17  2.825730E-02  1.096450E-03 -2.120699E-04  1.891798E-01  0.000000E+00
  2.967058E-01 -1.050189E-03  3.666667E-01  3.027470E-01 -1.093123E-02 -5.664477E-17  2.865075E-02  1.085544E-03 -2.418092E-04  1.805697E-01  0.000000E+00
  3.243554E-01  7.913648E-06  3.666667E-01  3.309612E-01 -9.851516E-03  3.070147E-14  2.885733E-02  1.191109E-03 -2.656127E-04  1.666498E-01  0.000000E+00
  3.528511E-01  1.265564E-03  3.666667E-01  3.600389E-01 -8.568183E-03 -5.664477E-17  2.849102E-02  1.440610E-03 -2.767133E-04  1.533255E-01  0.000000E+00
  3.820469E-01  2.928851E-03  3.666667E-01  3.898309E-01 -6.870928E-03 -1.132895E-16  2.729356E-02  1.798796E-03 -2.687882E-04  1.479183E-01  0.000000E+00
  4.117740E-01  5.163881E-03  3.666667E-01  4.201651E-01 -4.590256E-03  1.132895E-16  2.532475E-02  2.160587E-03 -2.390579E-04  1.573306E-01  0.000000E+00
  4.418498E-01  8.051559E-03  3.666667E-01  4.508550E-01 -1.643606E-03 -1.699343E-16  2.299857E-02  2.386973E-03 -1.898326E-04  1.821600E-01  0.000000E+00
  4.721105E-01  1.145053E-02  3.666667E-01  4.817338E-01  1.824779E-03 -1.132895E-16  2.107414E-02  2.250460E-03 -1.292710E-04  2.286724E-01  0.000000E+00
  5.024968E-01  1.450969E-02  3.666667E-01  5.127406E-01  4.946407E-03  5.664477E-17  2.001093E-02  1.812161E-03 -5.994430E-05  2.782034E-01  0.000000E+00
  5.328693E-01  1.692081E-02  3.666667E-01  5.437333E-01  7.406772E-03 -2.265791E-16  1.960365E-02  1.401960E-03  2.372720E-05  2.992316E-01  0.000000E+00
  5.630297E-01  1.883246E-02  3.666667E-01  5.745097E-01  9.357457E-03  1.132895E-16  1.949429E-02  1.126667E-03  1.234318E-04  3.001596E-01  0.000000E+00
  5.927917E-01  2.039562E-02  3.666667E-01  6.048794E-01  1.095254E-02  0.000000E+00  1.940709E-02  9.551556E-04  2.356534E-04  2.994897E-01  0.000000E+00
  6.219828E-01  2.175035E-02  3.666667E-01  6.346667E-01  1.233493E-02  5.664477E-17  1.918780E-02  8.381716E-04  3.540627E-04  3.029415E-01  0.000000E+00
  6.504533E-01  2.293889E-02  3.666667E-01  6.637186E-01  1.354774E-02 -1.132895E-16  1.883050E-02  7.135416E-04  4.716794E-04  3.110633E-01  0.000000E+00
  6.780742E-01  2.390960E-02  3.666667E-01  6.919035E-01  1.453828E-02  3.092805E-14  1.841466E-02  5.503977E-04  5.831575E-04  3.216925E-01  0.000000E+00
  7.047326E-01  2.460429E-02  3.666667E-01  7.191064E-01  1.524716E-02 -5.664477E-17  1.803877E-02  3.507411E-04  6.852791E-04  3.318559E-01  0.000000E+00
  1.215943E-04  9.324469E-03  3.666667E-01  1.060951E-04 -3.447016E-04 -2.265791E-16 -5.796703E-02  1.035414E-01  1.084126E-04  6.664823E-01  0.000000E+00
  4.902502E-03  3.654969E-03  3.666667E-01  4.984636E-03 -6.129982E-03  5.664477E-17 -2.567584E-02  2.774257E-02  7.455920E-05  9.705369E-01  0.000000E+00
  1.254908E-02  1.173224E-05  3.666667E-01  1.278737E-02 -9.847619E-03  2.265791E-16  3.324205E-03 -1.334632E-04  4.186743E-05  6.032151E-01  0.000000E+00
  2.163699E-02 -2.379942E-03  3.666667E-01  2.206087E-02 -1.228813E-02  5.664477E-17  2.028576E-02 -4.138919E-03  2.210336E-05  3.925877E-01  0.000000E+00
  3.184423E-02 -4.060877E-03  3.666667E-01  3.247655E-02 -1.400340E-02  0.000000E+00  2.739691E-02 -3.602647E-03  1.063468E-05  3.511899E-01  0.000000E+00
  4.311596E-02 -5.241542E-03  3.666667E-01  4.397847E-02 -1.520817E-02 -1.132895E-16  3.003077E-02 -2.434311E-03  1.829610E-06  3.120875E-01  0.000000E+00
  5.546913E-02 -5.965539E-03  3.666667E-01  5.658391E-02 -1.594696E-02 -5.664477E-17  3.079917E-02 -1.456553E-03 -6.898298E-06  2.767858E-01  0.000000E+00
  6.891473E-02 -6.447083E-03  3.666667E-01  7.030409E-02 -1.643833E-02  1.699343E-16  3.102432E-02 -9.199132E-04 -1.650645E-05  2.619659E-01  0.000000E+00
  8.348882E-02 -6.793490E-03  3.666667E-01  8.517581E-02 -1.679181E-02  2.832239E-16  3.110019E-02 -5.689542E-04 -2.723327E-05  2.475408E-01  0.000000E+00
  9.923792E-02 -6.999553E-03  3.666667E-01  1.012465E-01 -1.700209E-02 -1.132895E-16  3.101433E-02 -2.108792E-04 -3.927933E-05  2.269811E-01  0.000000E+00
  1.162051E-01 -7.008688E-03  3.666667E-01  1.185602E-01 -1.701141E-02  5.664477E-17  3.074054E-02  1.541865E-04 -5.294497E-05  2.088918E-01  0.000000E+00
  1.344203E-01 -6.814855E-03  3.666667E-01  1.371474E-01 -1.681362E-02  0.000000E+00  3.030427E-02  4.705600E-04 -6.844177E-05  1.984769E-01  0.000000E+00
  1.539027E-01 -6.417149E-03  3.666667E-01  1.570277E-01 -1.640779E-02  3.064482E-14  2.972492E-02  7.395983E-04 -8.587694E-05  1.924418E-01  0.000000E+00
  1.746592E-01 -5.807266E-03  3.666667E-01  1.782080E-01 -1.578545E-02  3.109798E-14  2.907737E-02  9.478982E-04 -1.055494E-04  1.896453E-01  0.000000E+00
  1.966815E-01 -5.017350E-03  3.666667E-01  2.006800E-01 -1.497940E-02 -1.132895E-16  2.849280E-02  1.078872E-03 -1.278748E-04  1.900888E-01  0.000000E+00
  2.199461E-01 -4.090197E-03  3.666667E-01  2.244198E-01 -1.403332E-02 -1.699343E-16  2.810199E-02  1.143107E-03 -1.531733E-04  1.913140E-01  0.000000E+00
  2.444131E-01 -3.075596E-03  3.666667E-01  2.493864E-01 -1.299800E-02  3.092805E-14  2.801577E-02  1.143634E-03 -1.815273E-04  1.915248E-01  0.000000E+00
  7.047326E-01  2.460429E-02  3.666667E-01  7.191064E-01  1.524716E-02 -5.664477E-17  1.803877E-02  3.507411E-04  6.852791E-04  3.318559E-01  0.000000E+00