 Title = "ADflow Slice Data"
Variables =  "CoordinateX"  "CoordinateY"  "CoordinateZ"  "XoC"  "YoC"  "ZoC" "VelocityX" "VelocityY" "VelocityZ" "CoefPressure" "Mach" 
Zone T= "Slice_0001 None Relative Regular z = 0.10000000"
 Nodes =          114  Elements=          106  ZONETYPE=FELINESEG
 DATAPACKING=POINT
  7.301402E-01  6.726281E-02  1.000000E-01  7.450346E-01  5.878318E-02  1.416123E-17  2.538091E-02 -4.240622E-03 -2.243946E-04 -4.340470E-01  0.000000E+00
  7.043967E-01  7.142568E-02  1.000000E-01  7.187652E-01  6.303107E-02 -4.248368E-17  2.675564E-02 -4.169651E-03 -2.283834E-04 -4.701772E-01  0.000000E+00
  6.775455E-01  7.546565E-02  1.000000E-01  6.913656E-01  6.715355E-02  3.965144E-16  2.797603E-02 -4.053921E-03 -2.288317E-04 -5.047655E-01  0.000000E+00
  6.496792E-01  7.935882E-02  1.000000E-01  6.629302E-01  7.112623E-02  4.248368E-17  2.907040E-02 -3.917215E-03 -2.247977E-04 -5.402118E-01  0.000000E+00
  6.209097E-01  8.309911E-02  1.000000E-01  6.335731E-01  7.494292E-02 -2.832245E-17  3.012228E-02 -3.767656E-03 -2.158546E-04 -5.780446E-01  0.000000E+00
  5.913667E-01  8.665216E-02  1.000000E-01  6.034267E-01  7.856854E-02 -2.832245E-17  3.123271E-02 -3.599033E-03 -2.022519E-04 -6.185396E-01  0.000000E+00
  5.611982E-01  8.997685E-02  1.000000E-01  5.726421E-01  8.196113E-02  0.000000E+00  3.248125E-02 -3.407504E-03 -1.847185E-04 -6.626504E-01  0.000000E+00
  5.305654E-01  9.302498E-02  1.000000E-01  5.413836E-01  8.507151E-02 -5.664491E-17  3.393405E-02 -3.187309E-03 -1.642923E-04 -7.122100E-01  0.000000E+00
  4.996398E-01  9.575099E-02  1.000000E-01  5.098264E-01  8.785320E-02  0.000000E+00  3.565962E-02 -2.918168E-03 -1.421932E-04 -7.684936E-01  0.000000E+00
  4.685986E-01  9.808825E-02  1.000000E-01  4.781512E-01  9.023820E-02  1.416123E-17  3.771629E-02 -2.558115E-03 -1.197201E-04 -8.301697E-01  0.000000E+00
  4.376215E-01  9.995188E-02  1.000000E-01  4.465415E-01  9.213989E-02 -8.496736E-17  4.009713E-02 -2.062197E-03 -9.813864E-05 -8.938418E-01  0.000000E+00
  4.068895E-01  1.012599E-01  1.000000E-01  4.151818E-01  9.347459E-02  0.000000E+00  4.270256E-02 -1.397005E-03 -7.857673E-05 -9.554541E-01  0.000000E+00
  3.765814E-01  1.019487E-01  1.000000E-01  3.842547E-01  9.417753E-02 -5.664491E-17  4.535762E-02 -5.663482E-04 -6.188721E-05 -1.013108E+00  0.000000E+00
  3.468696E-01  1.020091E-01  1.000000E-01  3.539361E-01  9.423909E-02 -5.664491E-17  4.792364E-02  4.148708E-04 -4.849416E-05 -1.065893E+00  0.000000E+00
  3.179133E-01  1.014415E-01  1.000000E-01  3.243884E-01  9.365995E-02 -2.832245E-17  5.036065E-02  1.547330E-03 -3.831774E-05 -1.113046E+00  0.000000E+00
  2.898519E-01  1.002580E-01  1.000000E-01  2.957538E-01  9.245221E-02 -4.248368E-17  5.267621E-02  2.816567E-03 -3.086812E-05 -1.157191E+00  0.000000E+00
  2.628044E-01  9.849443E-02  1.000000E-01  2.681539E-01  9.065267E-02  0.000000E+00  5.492540E-02  4.212279E-03 -2.545742E-05 -1.202054E+00  0.000000E+00
  9.800000E-01  1.185373E-02  1.000000E-01  9.999975E-01  2.242425E-03 -2.832245E-17  1.056020E-02 -1.316416E-02 -1.870159E-04 -5.636036E-02  0.000000E+00
  9.720124E-01  1.398503E-02  1.000000E-01  9.918468E-01  4.417258E-03 -2.832245E-17  1.211960E-02 -3.304842E-03 -1.773434E-04  6.903536E-02  0.000000E+00
  9.632634E-01  1.633264E-02  1.000000E-01  9.829191E-01  6.812816E-03 -2.832245E-17  9.092817E-03 -2.376776E-03 -1.503328E-04  2.211853E-02  0.000000E+00
  9.536907E-01  1.888472E-02  1.000000E-01  9.731509E-01  9.417013E-03 -2.832245E-17  7.197083E-03 -1.907868E-03 -1.314847E-04  4.230177E-03  0.000000E+00
  9.432303E-01  2.162525E-02  1.000000E-01  9.624768E-01  1.221352E-02  1.416123E-17  6.769516E-03 -1.757456E-03 -1.249848E-04 -1.558436E-02  0.000000E+00
  9.318220E-01  2.455755E-02  1.000000E-01  9.508355E-01  1.520571E-02  1.416123E-17  7.483949E-03 -1.901848E-03 -1.275167E-04 -4.135915E-02  0.000000E+00
  9.194070E-01  2.768475E-02  1.000000E-01  9.381669E-01  1.839678E-02 -8.496736E-17  8.844181E-03 -2.200730E-03 -1.347384E-04 -6.904728E-02  0.000000E+00
  9.059278E-01  3.100506E-02  1.000000E-01  9.244124E-01  2.178490E-02 -5.664491E-17  1.043870E-02 -2.537403E-03 -1.436601E-04 -9.849846E-02  0.000000E+00
  8.913299E-01  3.451280E-02  1.000000E-01  9.095164E-01  2.536429E-02  0.000000E+00  1.206230E-02 -2.858562E-03 -1.528630E-04 -1.302408E-01  0.000000E+00
  8.755643E-01  3.820308E-02  1.000000E-01  8.934288E-01  2.912994E-02 -2.832245E-17  1.368122E-02 -3.155104E-03 -1.620525E-04 -1.643868E-01  0.000000E+00
  8.585885E-01  4.206579E-02  1.000000E-01  8.761062E-01  3.307154E-02  4.106756E-16  1.533796E-02 -3.430973E-03 -1.714688E-04 -2.005165E-01  0.000000E+00
  8.403666E-01  4.607949E-02  1.000000E-01  8.575122E-01  3.716721E-02  3.965144E-16  1.705397E-02 -3.683501E-03 -1.812119E-04 -2.380439E-01  0.000000E+00
  8.208730E-01  5.021570E-02  1.000000E-01  8.376205E-01  4.138790E-02 -8.496736E-17  1.880116E-02 -3.902531E-03 -1.910442E-04 -2.766827E-01  0.000000E+00
  8.000947E-01  5.444311E-02  1.000000E-01  8.164179E-01  4.570165E-02 -2.832245E-17  2.053928E-02 -4.076616E-03 -2.006594E-04 -3.162158E-01  0.000000E+00
  7.780326E-01  5.872379E-02  1.000000E-01  7.939051E-01  5.006976E-02 -2.832245E-17  2.223677E-02 -4.195730E-03 -2.097531E-04 -3.562153E-01  0.000000E+00
  7.547032E-01  6.301370E-02  1.000000E-01  7.700992E-01  5.444729E-02  4.389980E-16  2.386306E-02 -4.251415E-03 -2.178874E-04 -3.958391E-01  0.000000E+00
  7.301402E-01  6.726281E-02  1.000000E-01  7.450346E-01  5.878318E-02  2.832245E-17  2.538091E-02 -4.240622E-03 -2.243946E-04 -4.340470E-01  0.000000E+00
  2.444131E-01 -2.856252E-03  1.000000E-01  2.493870E-01 -1.276799E-02  3.681919E-16  2.803123E-02  1.243452E-03  3.810233E-05  1.666736E-01  0.000000E+00
  2.700250E-01 -1.721754E-03  1.000000E-01  2.755220E-01 -1.161032E-02 -4.248368E-17  2.831073E-02  1.234611E-03  3.952250E-05  1.641227E-01  0.000000E+00
  2.967058E-01 -5.748188E-04  1.000000E-01  3.027477E-01 -1.043996E-02 -2.832245E-17  2.870988E-02  1.273857E-03  4.180587E-05  1.553700E-01  0.000000E+00
  3.243554E-01  6.921949E-04  1.000000E-01  3.309620E-01 -9.147071E-03  4.248368E-16  2.886445E-02  1.440624E-03  4.532572E-05  1.417194E-01  0.000000E+00
  3.528511E-01  2.235666E-03  1.000000E-01  3.600398E-01 -7.572075E-03 -4.248368E-17  2.836815E-02  1.754268E-03  5.035200E-05  1.296032E-01  0.000000E+00
  3.820469E-01  4.278877E-03  1.000000E-01  3.898318E-01 -5.487134E-03  5.664491E-17  2.696189E-02  2.159547E-03  5.686785E-05  1.270494E-01  0.000000E+00
  4.117740E-01  6.991329E-03  1.000000E-01  4.201661E-01 -2.719283E-03 -5.664491E-17  2.472861E-02  2.530587E-03  6.449638E-05  1.413083E-01  0.000000E+00
  4.418498E-01  1.044468E-02  1.000000E-01  4.508561E-01  8.045979E-04 -2.832245E-17  2.211724E-02  2.727196E-03  7.267304E-05  1.725032E-01  0.000000E+00
  4.721105E-01  1.448041E-02  1.000000E-01  4.817349E-01  4.922751E-03 -5.664491E-17  1.990914E-02  2.556061E-03  8.097917E-05  2.258454E-01  0.000000E+00
  5.024968E-01  1.822548E-02  1.000000E-01  5.127418E-01  8.744317E-03  1.416123E-17  1.857034E-02  2.106496E-03  8.947886E-05  2.820712E-01  0.000000E+00
  5.328693E-01  2.134361E-02  1.000000E-01  5.437346E-01  1.192612E-02 -4.248368E-17  1.790014E-02  1.696142E-03  9.844817E-05  3.099484E-01  0.000000E+00
  5.630297E-01  2.395279E-02  1.000000E-01  5.745111E-01  1.458860E-02  1.416123E-17  1.754289E-02  1.414529E-03  1.077118E-04  3.179463E-01  0.000000E+00
  5.927917E-01  2.617678E-02  1.000000E-01  6.048808E-01  1.685801E-02  5.664491E-17  1.722953E-02  1.223682E-03  1.164325E-04  3.241601E-01  0.000000E+00
  6.219828E-01  2.813476E-02  1.000000E-01  6.346682E-01  1.885598E-02 -4.248368E-17  1.681860E-02  1.075864E-03  1.235596E-04  3.337895E-01  0.000000E+00
  6.504533E-01  2.985548E-02  1.000000E-01  6.637201E-01  2.061184E-02  5.664491E-17  1.631904E-02  9.148701E-04  1.284934E-04  3.472188E-01  0.000000E+00
  6.780742E-01  3.126603E-02  1.000000E-01  6.919052E-01  2.205120E-02  4.531593E-16  1.582714E-02  7.120050E-04  1.312940E-04  3.624683E-01  0.000000E+00
  7.047326E-01  3.228217E-02  1.000000E-01  7.191081E-01  2.308810E-02  0.000000E+00  1.544815E-02  4.727510E-04  1.325146E-04  3.761715E-01  0.000000E+00
  1.215943E-04  9.318375E-03  1.000000E-01  1.060953E-04 -3.447102E-04 -5.664491E-17 -4.661528E-02  8.317769E-02  6.840320E-05  7.438121E-01  0.000000E+00
  4.902502E-03  3.648535E-03  1.000000E-01  4.984648E-03 -6.130351E-03 -8.496736E-17 -1.769979E-02  2.040307E-02  5.315824E-05  9.415795E-01  0.000000E+00
  1.254908E-02  4.811298E-06  1.000000E-01  1.278740E-02 -9.848493E-03 -2.832245E-17  7.401265E-03 -1.857160E-03  3.930040E-05  5.494361E-01  0.000000E+00
  2.163699E-02 -2.387325E-03  1.000000E-01  2.206093E-02 -1.228949E-02  1.416123E-17  2.149836E-02 -4.437124E-03  3.328774E-05  3.470828E-01  0.000000E+00
  3.184423E-02 -4.068583E-03  1.000000E-01  3.247663E-02 -1.400508E-02 -2.832245E-17  2.738666E-02 -3.609629E-03  3.232211E-05  3.122650E-01  0.000000E+00
  4.311596E-02 -5.249291E-03  1.000000E-01  4.397857E-02 -1.520991E-02 -8.496736E-17  2.962645E-02 -2.402589E-03  3.264140E-05  2.765238E-01  0.000000E+00
  5.546913E-02 -5.972855E-03  1.000000E-01  5.658404E-02 -1.594825E-02  1.416123E-17  3.030547E-02 -1.431499E-03  3.317500E-05  2.436063E-01  0.000000E+00
  6.891473E-02 -6.453202E-03  1.000000E-01  7.030426E-02 -1.643841E-02 -8.496736E-17  3.054640E-02 -9.015281E-04  3.375701E-05  2.312097E-01  0.000000E+00
  8.348882E-02 -6.797240E-03  1.000000E-01  8.517601E-02 -1.678947E-02  5.664491E-17  3.067317E-02 -5.542335E-04  3.425496E-05  2.187601E-01  0.000000E+00
  9.923792E-02 -6.999170E-03  1.000000E-01  1.012468E-01 -1.699552E-02 -9.912859E-17  3.064664E-02 -1.980265E-04  3.467200E-05  1.994950E-01  0.000000E+00
  1.162051E-01 -7.001555E-03  1.000000E-01  1.185605E-01 -1.699796E-02 -8.496736E-17  3.043165E-02  1.676270E-04  3.506963E-05  1.822948E-01  0.000000E+00
  1.344203E-01 -6.797145E-03  1.000000E-01  1.371477E-01 -1.678937E-02 -8.496736E-17  3.005224E-02  4.878325E-04  3.546130E-05  1.726009E-01  0.000000E+00
  1.539027E-01 -6.383320E-03  1.000000E-01  1.570280E-01 -1.636710E-02  4.389980E-16  2.952837E-02  7.639465E-04  3.582848E-05  1.671291E-01  0.000000E+00
  1.746592E-01 -5.749350E-03  1.000000E-01  1.782084E-01 -1.572018E-02  3.257082E-16  2.893529E-02  9.830120E-04  3.619715E-05  1.647057E-01  0.000000E+00
  1.966815E-01 -4.923969E-03  1.000000E-01  2.006805E-01 -1.487794E-02 -2.832245E-17  2.840450E-02  1.129274E-03  3.663005E-05  1.653395E-01  0.000000E+00
  2.199461E-01 -3.945209E-03  1.000000E-01  2.244203E-01 -1.387919E-02 -4.248368E-17  2.806700E-02  1.214460E-03  3.721575E-05  1.665855E-01  0.000000E+00
  2.444131E-01 -2.856252E-03  1.000000E-01  2.493870E-01 -1.276799E-02  3.823531E-16  2.803123E-02  1.243452E-03  3.810233E-05  1.666736E-01  0.000000E+00
  7.047326E-01  3.228217E-02  1.000000E-01  7.191081E-01  2.308810E-02 -2.832245E-17  1.544815E-02  4.727510E-04  1.325146E-04  3.761715E-01  0.000000E+00
  7.303325E-01  3.285228E-02  1.000000E-01  7.452308E-01  2.366985E-02 -2.832245E-17  1.526821E-02  2.087185E-04  1.328945E-04  3.862830E-01  0.000000E+00
  7.547951E-01  3.295936E-02  1.000000E-01  7.701931E-01  2.377912E-02  4.389980E-16  1.536116E-02 -8.427679E-05  1.331111E-04  3.926970E-01  0.000000E+00
  7.780600E-01  3.259068E-02  1.000000E-01  7.939331E-01  2.340291E-02  1.416123E-17  1.578330E-02 -4.212751E-04  1.336572E-04  3.951363E-01  0.000000E+00
  8.000833E-01  3.175875E-02  1.000000E-01  8.164062E-01  2.255399E-02 -4.248368E-17  1.654887E-02 -8.163610E-04  1.347856E-04  3.928616E-01  0.000000E+00
  8.208376E-01  3.049520E-02  1.000000E-01  8.375844E-01  2.126463E-02 -2.832245E-17  1.759330E-02 -1.253191E-03  1.364392E-04  3.847841E-01  0.000000E+00
  8.403144E-01  2.890640E-02  1.000000E-01  8.574590E-01  1.964338E-02  4.389980E-16  1.875749E-02 -1.666215E-03  1.382594E-04  3.700519E-01  0.000000E+00
  8.585258E-01  2.715368E-02  1.000000E-01  8.760423E-01  1.785486E-02  3.965144E-16  1.984557E-02 -1.988691E-03  1.397661E-04  3.511596E-01  0.000000E+00
  8.754993E-01  2.537953E-02  1.000000E-01  8.933625E-01  1.604448E-02 -2.832245E-17  2.071366E-02 -2.203107E-03  1.405103E-04  3.323478E-01  0.000000E+00
  8.912718E-01  2.366621E-02  1.000000E-01  9.094571E-01  1.429616E-02 -2.832245E-17  2.134708E-02 -2.368120E-03  1.402521E-04  3.173246E-01  0.000000E+00
  9.058836E-01  2.200576E-02  1.000000E-01  9.243673E-01  1.260180E-02 -4.248368E-17  2.187220E-02 -2.570279E-03  1.391353E-04  3.067006E-01  0.000000E+00
  9.193796E-01  2.036134E-02  1.000000E-01  9.381390E-01  1.092380E-02 -5.664491E-17  2.248324E-02 -2.837837E-03  1.378423E-04  2.957704E-01  0.000000E+00
  9.318118E-01  1.873268E-02  1.000000E-01  9.508251E-01  9.261873E-03  4.248368E-17  2.338505E-02 -3.187138E-03  1.377493E-04  2.818282E-01  0.000000E+00
  9.432349E-01  1.711366E-02  1.000000E-01  9.624815E-01  7.609783E-03 -2.832245E-17  2.461818E-02 -3.634698E-03  1.398693E-04  2.654075E-01  0.000000E+00
  9.537058E-01  1.550344E-02  1.000000E-01  9.731663E-01  5.966683E-03  0.000000E+00  2.554263E-02 -4.080289E-03  1.418281E-04  2.409218E-01  0.000000E+00
  9.632829E-01  1.390597E-02  1.000000E-01  9.829389E-01  4.336587E-03 -2.832245E-17  2.455689E-02 -4.271332E-03  1.359882E-04  2.062757E-01  0.000000E+00
  9.720275E-01  1.235383E-02  1.000000E-01  9.918622E-01  2.752745E-03  0.000000E+00  2.086506E-02 -3.723467E-03  1.172398E-04  2.039430E-01  0.000000E+00
  9.800000E-01  1.086909E-02  1.000000E-01  9.999975E-01  1.237679E-03  1.416123E-17  1.383942E-02  4.393374E-03  7.431745E-05 -9.829941E-03  0.000000E+00
  1.215943E-04  9.999046E-03  1.000000E-01  1.060953E-04  3.498630E-04 -9.912859E-17  2.286365E-02  5.282965E-02  3.328792E-05  4.466521E-01  0.000000E+00
  7.278129E-05  9.884411E-03  1.000000E-01  5.628533E-05  2.328864E-04  1.416123E-17  1.550886E-02  7.596609E-02  4.526763E-05  2.842146E-01  0.000000E+00
  1.762252E-05  9.656185E-03  1.000000E-01  0.000000E+00  0.000000E+00  0.000000E+00 -1.254095E-02  1.233062E-01  6.568774E-05  3.229083E-01  0.000000E+00
  8.694958E-05  9.430984E-03  1.000000E-01  7.074299E-05 -2.298006E-04  0.000000E+00 -5.190853E-02  1.347205E-01  7.544958E-05  3.723467E-01  0.000000E+00
  1.215943E-04  9.318375E-03  1.000000E-01  1.060953E-04 -3.447102E-04 -4.248368E-17 -4.661528E-02  8.317769E-02  6.840320E-05  7.438121E-01  0.000000E+00
  9.800000E-01  1.086909E-02  1.000000E-01  9.999975E-01  1.237679E-03  0.000000E+00  1.383942E-02  4.393374E-03  7.431745E-05 -9.829941E-03  0.000000E+00
  9.800000E-01  1.103320E-02  1.000000E-01  9.999975E-01  1.405137E-03  0.000000E+00  4.459866E-03 -1.538471E-03 -9.862605E-06 -2.111194E-01  0.000000E+00
  9.800000E-01  1.136141E-02  1.000000E-01  9.999975E-01  1.740052E-03 -2.832245E-17 -4.441936E-04 -1.603284E-02 -1.027884E-04 -1.753882E-01  0.000000E+00
  9.800000E-01  1.168962E-02  1.000000E-01  9.999975E-01  2.074968E-03 -5.664491E-17  3.390746E-03 -1.970877E-02 -1.621377E-04 -1.935930E-01  0.000000E+00
  9.800000E-01  1.185373E-02  1.000000E-01  9.999975E-01  2.242425E-03  0.000000E+00  1.056020E-02 -1.316416E-02 -1.870159E-04 -5.636036E-02  0.000000E+00
  2.628044E-01  9.849443E-02  1.000000E-01  2.681539E-01  9.065267E-02 -2.832245E-17  5.492540E-02  4.212279E-03 -2.545742E-05 -1.202054E+00  0.000000E+00
  2.368706E-01  9.619579E-02  1.000000E-01  2.416904E-01  8.830709E-02  3.681919E-16  5.724079E-02  5.817156E-03 -2.140531E-05 -1.244396E+00  0.000000E+00
  2.121362E-01  9.335161E-02  1.000000E-01  2.164509E-01  8.540481E-02  1.416123E-17  5.963294E-02  7.704012E-03 -1.817813E-05 -1.277244E+00  0.000000E+00
  1.886687E-01  8.997775E-02  1.000000E-01  1.925041E-01  8.196205E-02 -4.248368E-17  6.191446E-02  9.849294E-03 -1.543119E-05 -1.295586E+00  0.000000E+00
  1.665185E-01  8.610542E-02  1.000000E-01  1.699014E-01  7.801063E-02  4.814817E-16  6.385422E-02  1.218494E-02 -1.297110E-05 -1.296887E+00  0.000000E+00
  1.457161E-01  8.179114E-02  1.000000E-01  1.486742E-01  7.360824E-02  4.531593E-16  6.529842E-02  1.463576E-02 -1.069548E-05 -1.282734E+00  0.000000E+00
  1.262764E-01  7.709454E-02  1.000000E-01  1.288375E-01  6.881571E-02  0.000000E+00  6.623074E-02  1.716385E-02 -8.526453E-06 -1.258394E+00  0.000000E+00
  1.081990E-01  7.207546E-02  1.000000E-01  1.103909E-01  6.369413E-02  0.000000E+00  6.669020E-02  1.974475E-02 -6.375790E-06 -1.231013E+00  0.000000E+00
  9.146971E-02  6.679650E-02  1.000000E-01  9.331990E-02  5.830735E-02  0.000000E+00  6.678922E-02  2.253306E-02 -4.169082E-06 -1.195760E+00  0.000000E+00
  7.608258E-02  6.125358E-02  1.000000E-01  7.761850E-02  5.265122E-02  0.000000E+00  6.648754E-02  2.570036E-02 -1.879814E-06 -1.134219E+00  0.000000E+00
  6.202881E-02  5.543631E-02  1.000000E-01  6.327770E-02  4.671514E-02 -5.664491E-17  6.544705E-02  2.910700E-02  4.661594E-07 -1.029219E+00  0.000000E+00
  4.929579E-02  4.936185E-02  1.000000E-01  5.028462E-02  4.051661E-02 -8.496736E-17  6.330935E-02  3.220293E-02  2.831998E-06 -8.859762E-01  0.000000E+00
  3.782553E-02  4.314121E-02  1.000000E-01  3.858010E-02  3.416892E-02  4.248368E-17  6.021329E-02  3.477069E-02  5.242971E-06 -7.315362E-01  0.000000E+00
  2.757469E-02  3.682843E-02  1.000000E-01  2.811989E-02  2.772720E-02 -2.832245E-17  5.666951E-02  3.705451E-02  7.932539E-06 -6.135608E-01  0.000000E+00
  1.848362E-02  3.050044E-02  1.000000E-01  1.884315E-02  2.126998E-02  5.664491E-17  5.336275E-02  4.051621E-02  1.164866E-05 -5.158695E-01  0.000000E+00
  1.064273E-02  2.403146E-02  1.000000E-01  1.084212E-02  1.466887E-02  1.416123E-17  4.963198E-02  4.678673E-02  1.777349E-05 -2.761134E-01  0.000000E+00
  4.262692E-03  1.727155E-02  1.000000E-01  4.331771E-03  7.770905E-03  1.416123E-17  4.023653E-02  5.404846E-02  2.645486E-05  2.331726E-01  0.000000E+00
  1.215943E-04  9.999046E-03  1.000000E-01  1.060953E-04  3.498630E-04 -8.496736E-17  2.286365E-02  5.282965E-02  3.328792E-05  4.466521E-01  0.000000E+00
    1    2
    2    3
    3    4
    4    5
    5    6
    6    7
    7    8
    8    9
    9   10
   10   11
   11   12
   12   13
   13   14
   14   15
   15   16
   16   17
   18   19
   19   20
   20   21
   21   22
   22   23
   23   24
   24   25
   25   26
   26   27
   27   28
   28   29
   29   30
   30   31
   31   32
   32   33
   33   34
   35   36
   36   37
   37   38
   38   39
   39   40
   40   41
   41   42
   42   43
   43   44
   44   45
   45   46
   46   47
   47   48
   48   49
   49   50
   50   51
   52   53
   53   54
   54   55
   55   56
   56   57
   57   58
   58   59
   59   60
   60   61
   61   62
   62   63
   63   64
   64   65
   65   66
   66   67
   67   68
   69   70
   70   71
   71   72
   72   73
   73   74
   74   75
   75   76
   76   77
   77   78
   78   79
   79   80
   80   81
   81   82
   82   83
   83   84
   84   85
   85   86
   87   88
   88   89
   89   90
   90   91
   92   93
   93   94
   94   95
   95   96
   97   98
   98   99
   99  100
  100  101
  101  102
  102  103
  103  104
  104  105
  105  106
  106  107
  107  108
  108  109
  109  110
  110  111
  111  112
  112  113
  113  114
Zone T= "Slice_0002 None Relative Regular z = 0.36666667"
 Nodes =          114  Elements=          106  ZONETYPE=FELINESEG
 DATAPACKING=POINT
  7.301402E-01  6.640469E-02  3.666667E-01  7.450348E-01  5.793118E-02 -5.664492E-17  2.573099E-02 -4.218170E-03 -6.791145E-04 -4.275522E-01  0.000000E+00
  7.043967E-01  7.048380E-02  3.666667E-01  7.187654E-01  6.209361E-02 -1.132898E-16  2.704688E-02 -4.135119E-03 -6.863011E-04 -4.616202E-01  0.000000E+00
  6.775455E-01  7.444419E-02  3.666667E-01  6.913658E-01  6.613489E-02  3.058826E-14  2.818818E-02 -4.012441E-03 -6.845123E-04 -4.939525E-01  0.000000E+00
  6.496792E-01  7.826997E-02  3.666667E-01  6.629304E-01  7.003881E-02 -1.699348E-16  2.918816E-02 -3.877419E-03 -6.719835E-04 -5.273755E-01  0.000000E+00
  6.209097E-01  8.196544E-02  3.666667E-01  6.335733E-01  7.380976E-02  0.000000E+00  3.014240E-02 -3.738907E-03 -6.481264E-04 -5.637600E-01  0.000000E+00
  5.913667E-01  8.550241E-02  3.666667E-01  6.034269E-01  7.741896E-02  1.132898E-16  3.116665E-02 -3.588340E-03 -6.137014E-04 -6.034436E-01  0.000000E+00
  5.611982E-01  8.884097E-02  3.666667E-01  5.726423E-01  8.082571E-02  2.265797E-16  3.235068E-02 -3.419886E-03 -5.702487E-04 -6.473899E-01  0.000000E+00
  5.305654E-01  9.193183E-02  3.666667E-01  5.413838E-01  8.397970E-02  1.132898E-16  3.376618E-02 -3.226218E-03 -5.198274E-04 -6.974237E-01  0.000000E+00
  4.996398E-01  9.472583E-02  3.666667E-01  5.098266E-01  8.683076E-02 -1.699348E-16  3.548483E-02 -2.984966E-03 -4.648793E-04 -7.547511E-01  0.000000E+00
  4.685986E-01  9.715042E-02  3.666667E-01  4.781513E-01  8.930487E-02  1.132898E-16  3.756615E-02 -2.651720E-03 -4.080932E-04 -8.179405E-01  0.000000E+00
  4.376215E-01  9.911344E-02  3.666667E-01  4.465416E-01  9.130799E-02 -5.664492E-17  4.000151E-02 -2.178657E-03 -3.520722E-04 -8.834506E-01  0.000000E+00
  4.068895E-01  1.005253E-01  3.666667E-01  4.151819E-01  9.274868E-02 -5.664492E-17  4.268540E-02 -1.529204E-03 -2.991532E-04 -9.470203E-01  0.000000E+00
  3.765814E-01  1.013157E-01  3.666667E-01  3.842548E-01  9.355524E-02  5.664492E-17  4.543320E-02 -7.045893E-04 -2.511894E-04 -1.006510E+00  0.000000E+00
  3.468696E-01  1.014700E-01  3.666667E-01  3.539362E-01  9.371272E-02 -5.664492E-17  4.809510E-02  2.807449E-04 -2.094838E-04 -1.060830E+00  0.000000E+00
  3.179133E-01  1.009861E-01  3.666667E-01  3.243885E-01  9.321889E-02  0.000000E+00  5.062108E-02  1.425563E-03 -1.746398E-04 -1.109163E+00  0.000000E+00
  2.898519E-01  9.987515E-02  3.666667E-01  2.957539E-01  9.208525E-02  5.664492E-17  5.301279E-02  2.712813E-03 -1.462740E-04 -1.154146E+00  0.000000E+00
  2.628044E-01  9.817371E-02  3.666667E-01  2.681540E-01  9.034906E-02  5.664492E-17  5.532328E-02  4.129910E-03 -1.232479E-04 -1.199555E+00  0.000000E+00
  9.800000E-01  1.169726E-02  3.666667E-01  9.999978E-01  2.106393E-03  5.664492E-17  1.054349E-02 -1.305801E-02 -5.980025E-04 -5.713185E-02  0.000000E+00
  9.720124E-01  1.381303E-02  3.666667E-01  9.918470E-01  4.265382E-03  0.000000E+00  1.213394E-02 -3.285361E-03 -5.703227E-04  6.913195E-02  0.000000E+00
  9.632634E-01  1.614307E-02  3.666667E-01  9.829194E-01  6.643013E-03  1.132898E-16  9.202885E-03 -2.387924E-03 -4.845847E-04  2.219705E-02  0.000000E+00
  9.536907E-01  1.867527E-02  3.666667E-01  9.731512E-01  9.226924E-03 -5.664492E-17  7.385149E-03 -1.942200E-03 -4.252737E-04  4.162710E-03  0.000000E+00
  9.432303E-01  2.139329E-02  3.666667E-01  9.624770E-01  1.200046E-02 -1.699348E-16  7.009002E-03 -1.804489E-03 -4.048574E-04 -1.577673E-02  0.000000E+00
  9.318220E-01  2.430011E-02  3.666667E-01  9.508358E-01  1.496665E-02 -5.664492E-17  7.756232E-03 -1.953824E-03 -4.125165E-04 -4.160650E-02  0.000000E+00
  9.194070E-01  2.739842E-02  3.666667E-01  9.381672E-01  1.812824E-02  0.000000E+00  9.136843E-03 -2.252491E-03 -4.344626E-04 -6.929300E-02  0.000000E+00
  9.059278E-01  3.068601E-02  3.666667E-01  9.244127E-01  2.148297E-02 -1.132898E-16  1.074618E-02 -2.586343E-03 -4.613783E-04 -9.868990E-02  0.000000E+00
  8.913299E-01  3.415670E-02  3.666667E-01  9.095166E-01  2.502455E-02  0.000000E+00  1.238858E-02 -2.904826E-03 -4.889723E-04 -1.303079E-01  0.000000E+00
  8.755643E-01  3.780507E-02  3.666667E-01  8.934291E-01  2.874744E-02 -1.132898E-16  1.403698E-02 -3.200335E-03 -5.163458E-04 -1.642380E-01  0.000000E+00
  8.585885E-01  4.162047E-02  3.666667E-01  8.761065E-01  3.264076E-02  3.098477E-14  1.572789E-02 -3.475044E-03 -5.438966E-04 -2.000431E-01  0.000000E+00
  8.403666E-01  4.558095E-02  3.666667E-01  8.575125E-01  3.668214E-02  3.098477E-14  1.746852E-02 -3.722987E-03 -5.714419E-04 -2.371118E-01  0.000000E+00
  8.208730E-01  4.965760E-02  3.666667E-01  8.376208E-01  4.084205E-02 -5.664492E-17  1.922552E-02 -3.933254E-03 -5.981126E-04 -2.751269E-01  0.000000E+00
  8.000947E-01  5.381886E-02  3.666667E-01  8.164181E-01  4.508830E-02 -5.664492E-17  2.096219E-02 -4.095771E-03 -6.231364E-04 -3.138360E-01  0.000000E+00
  7.780326E-01  5.802687E-02  3.666667E-01  7.939054E-01  4.938226E-02 -1.132898E-16  2.264873E-02 -4.201647E-03 -6.457811E-04 -3.527720E-01  0.000000E+00
  7.547032E-01  6.223828E-02  3.666667E-01  7.700995E-01  5.367968E-02  3.075819E-14  2.425219E-02 -4.243114E-03 -6.649658E-04 -3.910438E-01  0.000000E+00
  7.301402E-01  6.640469E-02  3.666667E-01  7.450348E-01  5.793118E-02 -5.664492E-17  2.573099E-02 -4.218170E-03 -6.791145E-04 -4.275522E-01  0.000000E+00
  2.444131E-01 -3.138154E-03  3.666667E-01  2.493870E-01 -1.303202E-02  3.092813E-14  2.826689E-02  1.200886E-03  1.373040E-04  1.657451E-01  0.000000E+00
  2.700250E-01 -2.057157E-03  3.666667E-01  2.755221E-01 -1.192894E-02  5.664492E-17  2.856729E-02  1.185315E-03  1.442761E-04  1.630592E-01  0.000000E+00
  2.967058E-01 -9.732023E-04  3.666667E-01  3.027478E-01 -1.082285E-02 -5.664492E-17  2.899564E-02  1.217596E-03  1.540138E-04  1.540528E-01  0.000000E+00
  3.243554E-01  2.204834E-04  3.666667E-01  3.309621E-01 -9.604784E-03  3.070155E-14  2.918322E-02  1.379328E-03  1.672648E-04  1.399817E-01  0.000000E+00
  3.528511E-01  1.679984E-03  3.666667E-01  3.600399E-01 -8.115475E-03 -5.664492E-17  2.871731E-02  1.692624E-03  1.842692E-04  1.272440E-01  0.000000E+00
  3.820469E-01  3.629396E-03  3.666667E-01  3.898319E-01 -6.126247E-03 -1.132898E-16  2.733465E-02  2.104911E-03  2.043783E-04  1.238634E-01  0.000000E+00
  4.117740E-01  6.241452E-03  3.666667E-01  4.201662E-01 -3.460841E-03  1.132898E-16  2.511624E-02  2.490689E-03  2.261225E-04  1.371466E-01  0.000000E+00
  4.418498E-01  9.593156E-03  3.666667E-01  4.508562E-01 -4.068155E-05 -1.699348E-16  2.250986E-02  2.706131E-03  2.479388E-04  1.673509E-01  0.000000E+00
  4.721105E-01  1.353255E-02  3.666667E-01  4.817350E-01  3.979176E-03 -1.132898E-16  2.030175E-02  2.549117E-03  2.698552E-04  2.199006E-01  0.000000E+00
  5.024968E-01  1.719350E-02  3.666667E-01  5.127420E-01  7.714897E-03  5.664492E-17  1.896206E-02  2.106414E-03  2.924843E-04  2.755582E-01  0.000000E+00
  5.328693E-01  2.024661E-02  3.666667E-01  5.437347E-01  1.083036E-02 -2.265797E-16  1.828588E-02  1.702060E-03  3.159047E-04  3.029067E-01  0.000000E+00
  5.630297E-01  2.281560E-02  3.666667E-01  5.745112E-01  1.345182E-02  1.132898E-16  1.791194E-02  1.428767E-03  3.399084E-04  3.104174E-01  0.000000E+00
  5.927917E-01  2.502774E-02  3.666667E-01  6.048810E-01  1.570914E-02  0.000000E+00  1.756799E-02  1.248151E-03  3.626264E-04  3.163671E-01  0.000000E+00
  6.219828E-01  2.700327E-02  3.666667E-01  6.346684E-01  1.772503E-02  5.664492E-17  1.711306E-02  1.110940E-03  3.813062E-04  3.260724E-01  0.000000E+00
  6.504533E-01  2.876973E-02  3.666667E-01  6.637203E-01  1.952755E-02 -1.132898E-16  1.656146E-02  9.584077E-04  3.945036E-04  3.399423E-01  0.000000E+00
  6.780742E-01  3.024808E-02  3.666667E-01  6.919054E-01  2.103610E-02  3.092813E-14  1.601795E-02  7.599710E-04  4.025013E-04  3.559574E-01  0.000000E+00
  7.047326E-01  3.134401E-02  3.666667E-01  7.191083E-01  2.215442E-02 -5.664492E-17  1.559474E-02  5.216900E-04  4.066961E-04  3.705452E-01  0.000000E+00
  1.215943E-04  9.295171E-03  3.666667E-01  1.060954E-04 -3.447529E-04 -2.265797E-16 -4.568789E-02  8.157001E-02  2.133471E-04  7.479394E-01  0.000000E+00
  4.902502E-03  3.623363E-03  3.666667E-01  4.984649E-03 -6.132403E-03  5.664492E-17 -1.704010E-02  1.980252E-02  1.688486E-04  9.394699E-01  0.000000E+00
  1.254908E-02 -2.369552E-05  3.666667E-01  1.278740E-02 -9.853950E-03  2.265797E-16  7.784853E-03 -2.015503E-03  1.257521E-04  5.454897E-01  0.000000E+00
  2.163699E-02 -2.420102E-03  3.666667E-01  2.206093E-02 -1.229930E-02  5.664492E-17  2.173636E-02 -4.499717E-03  1.068602E-04  3.436511E-01  0.000000E+00
  3.184423E-02 -4.106564E-03  3.666667E-01  3.247664E-02 -1.402021E-02  0.000000E+00  2.760214E-02 -3.652800E-03  1.043619E-04  3.095831E-01  0.000000E+00
  4.311596E-02 -5.293541E-03  3.666667E-01  4.397859E-02 -1.523143E-02 -1.132898E-16  2.985235E-02 -2.437943E-03  1.060120E-04  2.742742E-01  0.000000E+00
  5.546913E-02 -6.024630E-03  3.666667E-01  5.658406E-02 -1.597745E-02 -5.664492E-17  3.053842E-02 -1.461595E-03  1.083302E-04  2.415924E-01  0.000000E+00
  6.891473E-02 -6.513984E-03  3.666667E-01  7.030428E-02 -1.647680E-02  1.699348E-16  3.078218E-02 -9.296435E-04  1.108834E-04  2.294215E-01  0.000000E+00
  8.348882E-02 -6.868798E-03  3.666667E-01  8.517603E-02 -1.683886E-02  2.832246E-16  3.091084E-02 -5.819355E-04  1.132558E-04  2.171943E-01  0.000000E+00
  9.923792E-02 -7.083627E-03  3.666667E-01  1.012468E-01 -1.705808E-02 -1.132898E-16  3.088503E-02 -2.254406E-04  1.154666E-04  1.981111E-01  0.000000E+00
  1.162051E-01 -7.101463E-03  3.666667E-01  1.185605E-01 -1.707628E-02  5.664492E-17  3.066853E-02  1.403819E-04  1.177542E-04  1.810526E-01  0.000000E+00
  1.344203E-01 -6.915563E-03  3.666667E-01  1.371477E-01 -1.688658E-02  0.000000E+00  3.028525E-02  4.601644E-04  1.201894E-04  1.714807E-01  0.000000E+00
  1.539027E-01 -6.523908E-03  3.666667E-01  1.570281E-01 -1.648692E-02  3.064490E-14  2.975584E-02  7.352481E-04  1.227024E-04  1.661166E-01  0.000000E+00
  1.746592E-01 -5.916479E-03  3.666667E-01  1.782085E-01 -1.586709E-02  3.109806E-14  2.915750E-02  9.525073E-04  1.253900E-04  1.637763E-01  0.000000E+00
  1.966815E-01 -5.122841E-03  3.666667E-01  2.006806E-01 -1.505724E-02 -1.132898E-16  2.862468E-02  1.095946E-03  1.284827E-04  1.644589E-01  0.000000E+00
  2.199461E-01 -4.181981E-03  3.666667E-01  2.244204E-01 -1.409717E-02 -1.699348E-16  2.829097E-02  1.177198E-03  1.322839E-04  1.657104E-01  0.000000E+00
  2.444131E-01 -3.138154E-03  3.666667E-01  2.493870E-01 -1.303202E-02  3.092813E-14  2.826689E-02  1.200886E-03  1.373040E-04  1.657451E-01  0.000000E+00
  7.047326E-01  3.134401E-02  3.666667E-01  7.191083E-01  2.215442E-02 -5.664492E-17  1.559474E-02  5.216900E-04  4.066961E-04  3.705452E-01  0.000000E+00