 Title= "ADflow Lift Distribution Data"
Variables = "eta" "CoordinateX" "CoordinateY" "CoordinateZ" "Lift" "Drag" "Moment" "Normalized Lift" "Normalized Drag" "Normalized Moment" "CL" "CD" "CM" "CLp" "CDp" "CMp" "CLv" "CDv" "CMv" "Elliptical" "thickness" "twist" "chord" "fx" "fy" "fz" 
Zone T= "LiftDist_01 allWalls: : z normal"
 I=          150
 DATAPACKING=BLOCK
  0.000000E+00
  6.711405E-03
  1.342281E-02
  2.013422E-02
  2.684563E-02
  3.355704E-02
  4.026845E-02
  4.697986E-02
  5.369127E-02
  6.040268E-02
  6.711409E-02
  7.382550E-02
  8.053691E-02
  8.724832E-02
  9.395973E-02
  1.006711E-01
  1.073825E-01
  1.140940E-01
  1.208054E-01
  1.275168E-01
  1.342282E-01
  1.409396E-01
  1.476510E-01
  1.543624E-01
  1.610738E-01
  1.677852E-01
  1.744966E-01
  1.812081E-01
  1.879195E-01
  1.946309E-01
  2.013423E-01
  2.080537E-01
  2.147651E-01
  2.214765E-01
  2.281879E-01
  2.348993E-01
  2.416107E-01
  2.483221E-01
  2.550336E-01
  2.617450E-01
  2.684564E-01
  2.751678E-01
  2.818792E-01
  2.885906E-01
  2.953020E-01
  3.020134E-01
  3.087248E-01
  3.154362E-01
  3.221476E-01
  3.288591E-01
  3.355705E-01
  3.422819E-01
  3.489933E-01
  3.557047E-01
  3.624161E-01
  3.691275E-01
  3.758389E-01
  3.825503E-01
  3.892617E-01
  3.959732E-01
  4.026846E-01
  4.093960E-01
  4.161074E-01
  4.228188E-01
  4.295302E-01
  4.362416E-01
  4.429530E-01
  4.496644E-01
  4.563758E-01
  4.630872E-01
  4.697987E-01
  4.765101E-01
  4.832215E-01
  4.899329E-01
  4.966443E-01
  5.033557E-01
  5.100671E-01
  5.167785E-01
  5.234899E-01
  5.302013E-01
  5.369128E-01
  5.436242E-01
  5.503356E-01
  5.570470E-01
  5.637584E-01
  5.704698E-01
  5.771812E-01
  5.838926E-01
  5.906040E-01
  5.973154E-01
  6.040268E-01
  6.107383E-01
  6.174497E-01
  6.241611E-01
  6.308725E-01
  6.375839E-01
  6.442953E-01
  6.510067E-01
  6.577181E-01
  6.644295E-01
  6.711409E-01
  6.778524E-01
  6.845638E-01
  6.912752E-01
  6.979866E-01
  7.046980E-01
  7.114094E-01
  7.181208E-01
  7.248322E-01
  7.315436E-01
  7.382550E-01
  7.449664E-01
  7.516779E-01
  7.583893E-01
  7.651007E-01
  7.718121E-01
  7.785235E-01
  7.852349E-01
  7.919463E-01
  7.986577E-01
  8.053691E-01
  8.120805E-01
  8.187919E-01
  8.255034E-01
  8.322148E-01
  8.389262E-01
  8.456376E-01
  8.523490E-01
  8.590604E-01
  8.657718E-01
  8.724832E-01
  8.791946E-01
  8.859060E-01
  8.926175E-01
  8.993289E-01
  9.060403E-01
  9.127517E-01
  9.194631E-01
  9.261745E-01
  9.328859E-01
  9.395973E-01
  9.463087E-01
  9.530201E-01
  9.597315E-01
  9.664430E-01
  9.731544E-01
  9.798658E-01
  9.865772E-01
  9.932886E-01
  1.000000E+00
  0.000000E+00
  0.000000E+00
  0.000000E+00
  0.000000E+00
  0.000000E+00
  0.000000E+00
  0.000000E+00
  0.000000E+00
  0.000000E+00
  0.000000E+00
  0.000000E+00
  0.000000E+00
  0.000000E+00
  0.000000E+00
  0.000000E+00
  0.000000E+00
  0.000000E+00
  0.000000E+00
  0.000000E+00
  0.000000E+00
  0.000000E+00
  0.000000E+00
  0.000000E+00
  0.000000E+00
  0.000000E+00
  0.000000E+00
  0.000000E+00
  0.000000E+00
  0.000000E+00
  0.000000E+00
  0.000000E+00
  0.000000E+00
  0.000000E+00
  0.000000E+00
  0.000000E+00
  0.000000E+00
  0.000000E+00
  0.000000E+00
  0.000000E+00
  0.000000E+00
  0.000000E+00
  0.000000E+00
  0.000000E+00
  0.000000E+00
  0.000000E+00
  0.000000E+00
  0.000000E+00
  0.000000E+00
  0.000000E+00
  0.000000E+00
  0.000000E+00
  0.000000E+00
  0.000000E+00
  0.000000E+00
  0.000000E+00
  0.000000E+00
  0.000000E+00
  0.000000E+00
  0.000000E+00
  0.000000E+00
  0.000000E+00
  0.000000E+00
  0.000000E+00
  0.000000E+00
  0.000000E+00
  0.000000E+00
  0.000000E+00
  0.000000E+00
  0.000000E+00
  0.000000E+00
  0.000000E+00
  0.000000E+00
  0.000000E+00
  0.000000E+00
  0.000000E+00
  0.000000E+00
  0.000000E+00
  0.000000E+00
  0.000000E+00
  0.000000E+00
  0.000000E+00
  0.000000E+00
  0.000000E+00
  0.000000E+00
  0.000000E+00
  0.000000E+00
  0.000000E+00
  0.000000E+00
  0.000000E+00
  0.000000E+00
  0.000000E+00
  0.000000E+00
  0.000000E+00
  0.000000E+00
  0.000000E+00
  0.000000E+00
  0.000000E+00
  0.000000E+00
  0.000000E+00
  0.000000E+00
  0.000000E+00
  0.000000E+00
  0.000000E+00
  0.000000E+00
  0.000000E+00
  0.000000E+00
  0.000000E+00
  0.000000E+00
  0.000000E+00
  0.000000E+00
  0.000000E+00
  0.000000E+00
  0.000000E+00
  0.000000E+00
  0.000000E+00
  0.000000E+00
  0.000000E+00
  0.000000E+00
  0.000000E+00
  0.000000E+00
  0.000000E+00
  0.000000E+00
  0.000000E+00
  0.000000E+00
  0.000000E+00
  0.000000E+00
  0.000000E+00
  0.000000E+00
  0.000000E+00
  0.000000E+00
  0.000000E+00
  0.000000E+00
  0.000000E+00
  0.000000E+00
  0.000000E+00
  0.000000E+00
  0.000000E+00
  0.000000E+00
  0.000000E+00
  0.000000E+00
  0.000000E+00
  0.000000E+00
  0.000000E+00
  0.000000E+00
  0.000000E+00
  0.000000E+00
  0.000000E+00
  0.000000E+00
  0.000000E+00
  0.000000E+00
  0.000000E+00
  0.000000E+00
  0.000000E+00
  0.000000E+00
  0.000000E+00
  0.000000E+00
  0.000000E+00
  0.000000E+00
  0.000000E+00
  0.000000E+00
  0.000000E+00
  0.000000E+00
  0.000000E+00
  0.000000E+00
  0.000000E+00
  0.000000E+00
  0.000000E+00
  0.000000E+00
  0.000000E+00
  0.000000E+00
  0.000000E+00
  0.000000E+00
  0.000000E+00
  0.000000E+00
  0.000000E+00
  0.000000E+00
  0.000000E+00
  0.000000E+00
  0.000000E+00
  0.000000E+00
  0.000000E+00
  0.000000E+00
  0.000000E+00
  0.000000E+00
  0.000000E+00
  0.000000E+00
  0.000000E+00
  0.000000E+00
  0.000000E+00
  0.000000E+00
  0.000000E+00
  0.000000E+00
  0.000000E+00
  0.000000E+00
  0.000000E+00
  0.000000E+00
  0.000000E+00
  0.000000E+00
  0.000000E+00
  0.000000E+00
  0.000000E+00
  0.000000E+00
  0.000000E+00
  0.000000E+00
  0.000000E+00
  0.000000E+00
  0.000000E+00
  0.000000E+00
  0.000000E+00
  0.000000E+00
  0.000000E+00
  0.000000E+00
  0.000000E+00
  0.000000E+00
  0.000000E+00
  0.000000E+00
  0.000000E+00
  0.000000E+00
  0.000000E+00
  0.000000E+00
  0.000000E+00
  0.000000E+00
  0.000000E+00
  0.000000E+00
  0.000000E+00
  0.000000E+00
  0.000000E+00
  0.000000E+00
  0.000000E+00
  0.000000E+00
  0.000000E+00
  0.000000E+00
  0.000000E+00
  0.000000E+00
  0.000000E+00
  0.000000E+00
  0.000000E+00
  0.000000E+00
  0.000000E+00
  0.000000E+00
  0.000000E+00
  0.000000E+00
  0.000000E+00
  0.000000E+00
  0.000000E+00
  0.000000E+00
  0.000000E+00
  0.000000E+00
  0.000000E+00
  0.000000E+00
  0.000000E+00
  0.000000E+00
  0.000000E+00
  0.000000E+00
  0.000000E+00
  0.000000E+00
  0.000000E+00
  0.000000E+00
  0.000000E+00
  0.000000E+00
  0.000000E+00
  0.000000E+00
  0.000000E+00
  0.000000E+00
  0.000000E+00
  0.000000E+00
  0.000000E+00
  0.000000E+00
  0.000000E+00
  0.000000E+00
  0.000000E+00
  0.000000E+00
  0.000000E+00
  0.000000E+00
  0.000000E+00
  0.000000E+00
  0.000000E+00
  0.000000E+00
  0.000000E+00
  0.000000E+00
  0.000000E+00
  0.000000E+00
  0.000000E+00
  0.000000E+00
  0.000000E+00
  0.000000E+00
  0.000000E+00
  0.000000E+00
  0.000000E+00
  0.000000E+00
  0.000000E+00
  0.000000E+00
  0.000000E+00
  0.000000E+00
  0.000000E+00
  0.000000E+00
  0.000000E+00
  0.000000E+00
  0.000000E+00
  0.000000E+00
  1.000000E-08
  1.695085E-02
  3.390169E-02
  5.085254E-02
  6.780338E-02
  8.475423E-02
  1.017051E-01
  1.186559E-01
  1.356068E-01
  1.525576E-01
  1.695085E-01
  1.864593E-01
  2.034101E-01
  2.203610E-01
  2.373118E-01
  2.542627E-01
  2.712135E-01
  2.881644E-01
  3.051152E-01
  3.220661E-01
  3.390169E-01
  3.559678E-01
  3.729186E-01
  3.898694E-01
  4.068203E-01
  4.237711E-01
  4.407220E-01
  4.576728E-01
  4.746237E-01
  4.915745E-01
  5.085254E-01
  5.254762E-01
  5.424271E-01
  5.593779E-01
  5.763287E-01
  5.932796E-01
  6.102304E-01
  6.271813E-01
  6.441321E-01
  6.610830E-01
  6.780338E-01
  6.949847E-01
  7.119355E-01
  7.288864E-01
  7.458372E-01
  7.627880E-01
  7.797389E-01
  7.966897E-01
  8.136406E-01
  8.305914E-01
  8.475423E-01
  8.644931E-01
  8.814440E-01
  8.983948E-01
  9.153457E-01
  9.322965E-01
  9.492473E-01
  9.661982E-01
  9.831490E-01
  1.000100E+00
  1.017051E+00
  1.034002E+00
  1.050952E+00
  1.067903E+00
  1.084854E+00
  1.101805E+00
  1.118756E+00
  1.135707E+00
  1.152657E+00
  1.169608E+00
  1.186559E+00
  1.203510E+00
  1.220461E+00
  1.237412E+00
  1.254363E+00
  1.271313E+00
  1.288264E+00
  1.305215E+00
  1.322166E+00
  1.339117E+00
  1.356068E+00
  1.373018E+00
  1.389969E+00
  1.406920E+00
  1.423871E+00
  1.440822E+00
  1.457773E+00
  1.474724E+00
  1.491674E+00
  1.508625E+00
  1.525576E+00
  1.542527E+00
  1.559478E+00
  1.576429E+00
  1.593379E+00
  1.610330E+00
  1.627281E+00
  1.644232E+00
  1.661183E+00
  1.678134E+00
  1.695085E+00
  1.712035E+00
  1.728986E+00
  1.745937E+00
  1.762888E+00
  1.779839E+00
  1.796790E+00
  1.813740E+00
  1.830691E+00
  1.847642E+00
  1.864593E+00
  1.881544E+00
  1.898495E+00
  1.915446E+00
  1.932396E+00
  1.949347E+00
  1.966298E+00
  1.983249E+00
  2.000200E+00
  2.017151E+00
  2.034101E+00
  2.051052E+00
  2.068003E+00
  2.084954E+00
  2.101905E+00
  2.118856E+00
  2.135807E+00
  2.152757E+00
  2.169708E+00
  2.186659E+00
  2.203610E+00
  2.220561E+00
  2.237512E+00
  2.254462E+00
  2.271413E+00
  2.288364E+00
  2.305315E+00
  2.322266E+00
  2.339217E+00
  2.356168E+00
  2.373118E+00
  2.390069E+00
  2.407020E+00
  2.423971E+00
  2.440922E+00
  2.457873E+00
  2.474823E+00
  2.491774E+00
  2.508725E+00
  2.525676E+00
  1.106486E+04
  1.106299E+04
  1.106111E+04
  1.105924E+04
  1.105736E+04
  1.105549E+04
  1.105361E+04
  1.105174E+04
  1.104986E+04
  1.104435E+04
  1.103876E+04
  1.103316E+04
  1.102756E+04
  1.102197E+04
  1.101637E+04
  1.101077E+04
  1.100400E+04
  1.099508E+04
  1.098615E+04
  1.097723E+04
  1.096830E+04
  1.095938E+04
  1.095045E+04
  1.094117E+04
  1.092902E+04
  1.091687E+04
  1.090472E+04
  1.089257E+04
  1.088042E+04
  1.086826E+04
  1.085533E+04
  1.083977E+04
  1.082421E+04
  1.080865E+04
  1.079309E+04
  1.077753E+04
  1.076198E+04
  1.074402E+04
  1.072503E+04
  1.070603E+04
  1.068703E+04
  1.066803E+04
  1.064904E+04
  1.062842E+04
  1.060609E+04
  1.058377E+04
  1.056144E+04
  1.053912E+04
  1.051680E+04
  1.049252E+04
  1.046688E+04
  1.044125E+04
  1.041561E+04
  1.038998E+04
  1.036434E+04
  1.033543E+04
  1.030646E+04
  1.027750E+04
  1.024854E+04
  1.021958E+04
  1.018848E+04
  1.015629E+04
  1.012411E+04
  1.009193E+04
  1.005975E+04
  1.002561E+04
  9.990195E+03
  9.954781E+03
  9.919370E+03
  9.883962E+03
  9.845783E+03
  9.806911E+03
  9.768042E+03
  9.729176E+03
  9.689457E+03
  9.646963E+03
  9.604471E+03
  9.561981E+03
  9.519492E+03
  9.473678E+03
  9.427493E+03
  9.381310E+03
  9.335128E+03
  9.286021E+03
  9.236092E+03
  9.186165E+03
  9.136239E+03
  9.083313E+03
  9.029930E+03
  8.976550E+03
  8.922736E+03
  8.866441E+03
  8.810152E+03
  8.753868E+03
  8.695938E+03
  8.636997E+03
  8.578069E+03
  8.518461E+03
  8.456936E+03
  8.395436E+03
  8.333780E+03
  8.269947E+03
  8.206151E+03
  8.142269E+03
  8.075953E+03
  8.009681E+03
  7.942881E+03
  7.873348E+03
  7.803859E+03
  7.732666E+03
  7.659274E+03
  7.585921E+03
  7.508980E+03
  7.431391E+03
  7.352183E+03
  7.270258E+03
  7.188215E+03
  7.101988E+03
  7.015781E+03
  6.926160E+03
  6.835735E+03
  6.742426E+03
  6.647843E+03
  6.550441E+03
  6.451742E+03
  6.349969E+03
  6.247314E+03
  6.141123E+03
  6.034000E+03
  5.924343E+03
  5.812852E+03
  5.700019E+03
  5.584485E+03
  5.467344E+03
  5.348502E+03
  5.227216E+03
  5.103304E+03
  4.977098E+03
  4.848787E+03
  4.719674E+03
  4.594081E+03
  4.482381E+03
  4.402322E+03
  4.389205E+03
  4.480180E+03
  4.443839E+03
  4.003436E+03
  4.498885E+03
  1.345443E+03
 -1.150618E-04
  6.311534E+02
  6.310829E+02
  6.310124E+02
  6.309420E+02
  6.308716E+02
  6.308011E+02
  6.307307E+02
  6.306603E+02
  6.305899E+02
  6.304380E+02
  6.302842E+02
  6.301304E+02
  6.299766E+02
  6.298228E+02
  6.296689E+02
  6.295151E+02
  6.293625E+02
  6.292120E+02
  6.290614E+02
  6.289109E+02
  6.287603E+02
  6.286098E+02
  6.284593E+02
  6.283062E+02
  6.281331E+02
  6.279599E+02
  6.277868E+02
  6.276136E+02
  6.274405E+02
  6.272673E+02
  6.270737E+02
  6.268125E+02
  6.265513E+02
  6.262900E+02
  6.260287E+02
  6.257674E+02
  6.255061E+02
  6.251716E+02
  6.248050E+02
  6.244385E+02
  6.240718E+02
  6.237051E+02
  6.233384E+02
  6.229031E+02
  6.223955E+02
  6.218878E+02
  6.213800E+02
  6.208721E+02
  6.203642E+02
  6.197078E+02
  6.189474E+02
  6.181869E+02
  6.174263E+02
  6.166656E+02
  6.159048E+02
  6.147873E+02
  6.136641E+02
  6.125408E+02
  6.114175E+02
  6.102942E+02
  6.089379E+02
  6.074622E+02
  6.059864E+02
  6.045107E+02
  6.030349E+02
  6.013997E+02
  5.996597E+02
  5.979198E+02
  5.961798E+02
  5.944397E+02
  5.925931E+02
  5.907197E+02
  5.888460E+02
  5.869722E+02
  5.851108E+02
  5.832900E+02
  5.814688E+02
  5.796474E+02
  5.778257E+02
  5.760804E+02
  5.743433E+02
  5.726060E+02
  5.708684E+02
  5.690301E+02
  5.671632E+02
  5.652961E+02
  5.634286E+02
  5.612644E+02
  5.590544E+02
  5.568443E+02
  5.545624E+02
  5.518742E+02
  5.491865E+02
  5.464993E+02
  5.433626E+02
  5.399497E+02
  5.365394E+02
  5.328993E+02
  5.286125E+02
  5.243322E+02
  5.200106E+02
  5.151157E+02
  5.102307E+02
  5.053440E+02
  5.002372E+02
  4.951412E+02
  4.900581E+02
  4.849963E+02
  4.799437E+02
  4.749981E+02
  4.701852E+02
  4.653788E+02
  4.609145E+02
  4.565168E+02
  4.523137E+02
  4.484300E+02
  4.445654E+02
  4.412522E+02
  4.379372E+02
  4.351131E+02
  4.324036E+02
  4.300999E+02
  4.279743E+02
  4.262053E+02
  4.246003E+02
  4.233752E+02
  4.222608E+02
  4.216300E+02
  4.211526E+02
  4.210959E+02
  4.214233E+02
  4.220468E+02
  4.233809E+02
  4.252352E+02
  4.276643E+02
  4.309860E+02
  4.353956E+02
  4.409638E+02
  4.480918E+02
  4.575151E+02
  4.707085E+02
  4.905136E+02
  5.215807E+02
  5.720958E+02
  6.500507E+02
  7.187257E+02
  7.316064E+02
  8.834014E+02
  2.132516E+02
  3.892662E-04
  1.806373E+03
  1.805841E+03
  1.805310E+03
  1.804779E+03
  1.804248E+03
  1.803717E+03
  1.803185E+03
  1.802654E+03
  1.802123E+03
  1.800755E+03
  1.799367E+03
  1.797979E+03
  1.796590E+03
  1.795202E+03
  1.793813E+03
  1.792425E+03
  1.790835E+03
  1.788875E+03
  1.786914E+03
  1.784954E+03
  1.782994E+03
  1.781034E+03
  1.779074E+03
  1.777042E+03
  1.774440E+03
  1.771838E+03
  1.769236E+03
  1.766634E+03
  1.764033E+03
  1.761431E+03
  1.758661E+03
  1.755332E+03
  1.752003E+03
  1.748674E+03
  1.745345E+03
  1.742016E+03
  1.738687E+03
  1.734870E+03
  1.730839E+03
  1.726808E+03
  1.722777E+03
  1.718746E+03
  1.714716E+03
  1.710391E+03
  1.705755E+03
  1.701119E+03
  1.696484E+03
  1.691849E+03
  1.687214E+03
  1.682305E+03
  1.677204E+03
  1.672104E+03
  1.667005E+03
  1.661906E+03
  1.656807E+03
  1.651421E+03
  1.646031E+03
  1.640641E+03
  1.635252E+03
  1.629864E+03
  1.624356E+03
  1.618787E+03
  1.613219E+03
  1.607652E+03
  1.602085E+03
  1.596360E+03
  1.590531E+03
  1.584703E+03
  1.578875E+03
  1.573049E+03
  1.566919E+03
  1.560714E+03
  1.554509E+03
  1.548305E+03
  1.542038E+03
  1.535565E+03
  1.529093E+03
  1.522620E+03
  1.516149E+03
  1.509501E+03
  1.502834E+03
  1.496167E+03
  1.489501E+03
  1.482553E+03
  1.475527E+03
  1.468501E+03
  1.461475E+03
  1.454213E+03
  1.446915E+03
  1.439617E+03
  1.432332E+03
  1.425115E+03
  1.417899E+03
  1.410685E+03
  1.403487E+03
  1.396301E+03
  1.389121E+03
  1.381842E+03
  1.374281E+03
  1.366731E+03
  1.359155E+03
  1.351143E+03
  1.343148E+03
  1.335143E+03
  1.326632E+03
  1.318142E+03
  1.309498E+03
  1.300029E+03
  1.290581E+03
  1.280504E+03
  1.269612E+03
  1.258739E+03
  1.246464E+03
  1.233937E+03
  1.220771E+03
  1.206532E+03
  1.192247E+03
  1.176323E+03
  1.160405E+03
  1.143254E+03
  1.125809E+03
  1.107515E+03
  1.088844E+03
  1.069565E+03
  1.050005E+03
  1.030032E+03
  1.009942E+03
  9.897244E+02
  9.695777E+02
  9.496604E+02
  9.301852E+02
  9.110585E+02
  8.929869E+02
  8.757291E+02
  8.593599E+02
  8.443583E+02
  8.309314E+02
  8.191395E+02
  8.096344E+02
  8.038408E+02
  8.050516E+02
  8.203702E+02
  8.617176E+02
  9.475573E+02
  1.092178E+03
  1.202736E+03
  1.134877E+03
  1.285816E+03
  2.072104E+02
 -8.426408E-11
  1.245101E+00
  1.244890E+00
  1.244679E+00
  1.244468E+00
  1.244257E+00
  1.244046E+00
  1.243835E+00
  1.243624E+00
  1.243413E+00
  1.242793E+00
  1.242163E+00
  1.241533E+00
  1.240903E+00
  1.240274E+00
  1.239644E+00
  1.239014E+00
  1.238252E+00
  1.237248E+00
  1.236244E+00
  1.235239E+00
  1.234235E+00
  1.233231E+00
  1.232227E+00
  1.231182E+00
  1.229815E+00
  1.228447E+00
  1.227080E+00
  1.225713E+00
  1.224345E+00
  1.222978E+00
  1.221522E+00
  1.219771E+00
  1.218020E+00
  1.216270E+00
  1.214519E+00
  1.212768E+00
  1.211018E+00
  1.208998E+00
  1.206860E+00
  1.204722E+00
  1.202584E+00
  1.200447E+00
  1.198309E+00
  1.195989E+00
  1.193477E+00
  1.190964E+00
  1.188452E+00
  1.185940E+00
  1.183428E+00
  1.180697E+00
  1.177812E+00
  1.174927E+00
  1.172042E+00
  1.169157E+00
  1.166273E+00
  1.163019E+00
  1.159760E+00
  1.156500E+00
  1.153242E+00
  1.149983E+00
  1.146484E+00
  1.142862E+00
  1.139240E+00
  1.135619E+00
  1.131998E+00
  1.128157E+00
  1.124171E+00
  1.120186E+00
  1.116201E+00
  1.112217E+00
  1.107921E+00
  1.103547E+00
  1.099173E+00
  1.094799E+00
  1.090330E+00
  1.085548E+00
  1.080767E+00
  1.075985E+00
  1.071204E+00
  1.066049E+00
  1.060852E+00
  1.055655E+00
  1.050458E+00
  1.044932E+00
  1.039314E+00
  1.033696E+00
  1.028078E+00
  1.022122E+00
  1.016115E+00
  1.010108E+00
  1.004053E+00
  9.977179E-01
  9.913838E-01
  9.850504E-01
  9.785317E-01
  9.718992E-01
  9.652681E-01
  9.585607E-01
  9.516374E-01
  9.447169E-01
  9.377790E-01
  9.305959E-01
  9.234172E-01
  9.162288E-01
  9.087663E-01
  9.013089E-01
  8.937921E-01
  8.859677E-01
  8.781483E-01
  8.701372E-01
  8.618785E-01
  8.536243E-01
  8.449663E-01
  8.362355E-01
  8.273223E-01
  8.181035E-01
  8.088715E-01
  7.991686E-01
  7.894679E-01
  7.793831E-01
  7.692078E-01
  7.587079E-01
  7.480648E-01
  7.371044E-01
  7.259980E-01
  7.145458E-01
  7.029943E-01
  6.910449E-01
  6.789906E-01
  6.666511E-01
  6.541054E-01
  6.414086E-01
  6.284079E-01
  6.152263E-01
  6.018533E-01
  5.882053E-01
  5.742617E-01
  5.600601E-01
  5.456216E-01
  5.310928E-01
  5.169601E-01
  5.043908E-01
  4.953821E-01
  4.939061E-01
  5.041432E-01
  5.000538E-01
  4.504964E-01
  5.062480E-01
  1.513993E-01
 -1.294761E-08
  1.126901E+00
  1.126775E+00
  1.126649E+00
  1.126523E+00
  1.126398E+00
  1.126272E+00
  1.126146E+00
  1.126020E+00
  1.125895E+00
  1.125624E+00
  1.125349E+00
  1.125074E+00
  1.124800E+00
  1.124525E+00
  1.124250E+00
  1.123976E+00
  1.123703E+00
  1.123434E+00
  1.123166E+00
  1.122897E+00
  1.122628E+00
  1.122359E+00
  1.122090E+00
  1.121817E+00
  1.121508E+00
  1.121199E+00
  1.120890E+00
  1.120581E+00
  1.120271E+00
  1.119962E+00
  1.119617E+00
  1.119150E+00
  1.118684E+00
  1.118217E+00
  1.117751E+00
  1.117284E+00
  1.116818E+00
  1.116220E+00
  1.115566E+00
  1.114911E+00
  1.114257E+00
  1.113602E+00
  1.112947E+00
  1.112170E+00
  1.111264E+00
  1.110357E+00
  1.109451E+00
  1.108544E+00
  1.107637E+00
  1.106465E+00
  1.105107E+00
  1.103750E+00
  1.102391E+00
  1.101033E+00
  1.099675E+00
  1.097680E+00
  1.095674E+00
  1.093669E+00
  1.091663E+00
  1.089657E+00
  1.087236E+00
  1.084601E+00
  1.081966E+00
  1.079331E+00
  1.076696E+00
  1.073777E+00
  1.070670E+00
  1.067563E+00
  1.064457E+00
  1.061350E+00
  1.058053E+00
  1.054708E+00
  1.051363E+00
  1.048017E+00
  1.044693E+00
  1.041442E+00
  1.038191E+00
  1.034939E+00
  1.031686E+00
  1.028570E+00
  1.025469E+00
  1.022367E+00
  1.019264E+00
  1.015982E+00
  1.012649E+00
  1.009315E+00
  1.005981E+00
  1.002116E+00
  9.981707E-01
  9.942246E-01
  9.901504E-01
  9.853508E-01
  9.805520E-01
  9.757540E-01
  9.701535E-01
  9.640600E-01
  9.579710E-01
  9.514717E-01
  9.438179E-01
  9.361755E-01
  9.284595E-01
  9.197198E-01
  9.109979E-01
  9.022727E-01
  8.931547E-01
  8.840561E-01
  8.749804E-01
  8.659427E-01
  8.569216E-01
  8.480914E-01
  8.394981E-01
  8.309164E-01
  8.229456E-01
  8.150936E-01
  8.075892E-01
  8.006549E-01
  7.937548E-01
  7.878393E-01
  7.819205E-01
  7.768781E-01
  7.720404E-01
  7.679273E-01
  7.641322E-01
  7.609737E-01
  7.581079E-01
  7.559206E-01
  7.539309E-01
  7.528045E-01
  7.519523E-01
  7.518509E-01
  7.524355E-01
  7.535487E-01
  7.559308E-01
  7.592415E-01
  7.635787E-01
  7.695094E-01
  7.773825E-01
  7.873244E-01
  8.000512E-01
  8.168761E-01
  8.404324E-01
  8.757936E-01
  9.312629E-01
  1.021456E+00
  1.160641E+00
  1.283258E+00
  1.306256E+00
  1.577280E+00
  3.807528E-01
  6.950202E-07
  1.243007E+00
  1.242641E+00
  1.242276E+00
  1.241910E+00
  1.241545E+00
  1.241179E+00
  1.240814E+00
  1.240448E+00
  1.240083E+00
  1.239141E+00
  1.238186E+00
  1.237231E+00
  1.236275E+00
  1.235320E+00
  1.234365E+00
  1.233409E+00
  1.232315E+00
  1.230966E+00
  1.229617E+00
  1.228268E+00
  1.226919E+00
  1.225571E+00
  1.224222E+00
  1.222824E+00
  1.221033E+00
  1.219243E+00
  1.217453E+00
  1.215662E+00
  1.213872E+00
  1.212081E+00
  1.210175E+00
  1.207884E+00
  1.205594E+00
  1.203303E+00
  1.201012E+00
  1.198722E+00
  1.196431E+00
  1.193804E+00
  1.191030E+00
  1.188257E+00
  1.185483E+00
  1.182709E+00
  1.179936E+00
  1.176959E+00
  1.173769E+00
  1.170579E+00
  1.167390E+00
  1.164200E+00
  1.161011E+00
  1.157633E+00
  1.154123E+00
  1.150614E+00
  1.147105E+00
  1.143596E+00
  1.140087E+00
  1.136381E+00
  1.132672E+00
  1.128963E+00
  1.125255E+00
  1.121547E+00
  1.117757E+00
  1.113925E+00
  1.110093E+00
  1.106262E+00
  1.102432E+00
  1.098492E+00
  1.094481E+00
  1.090471E+00
  1.086461E+00
  1.082451E+00
  1.078233E+00
  1.073963E+00
  1.069694E+00
  1.065425E+00
  1.061112E+00
  1.056658E+00
  1.052204E+00
  1.047750E+00
  1.043297E+00
  1.038723E+00
  1.034135E+00
  1.029547E+00
  1.024960E+00
  1.020179E+00
  1.015344E+00
  1.010509E+00
  1.005675E+00
  1.000677E+00
  9.956554E-01
  9.906340E-01
  9.856211E-01
  9.806543E-01
  9.756890E-01
  9.707252E-01
  9.657719E-01
  9.608273E-01
  9.558862E-01
  9.508772E-01
  9.456745E-01
  9.404792E-01
  9.352659E-01
  9.297526E-01
  9.242510E-01
  9.187431E-01
  9.128865E-01
  9.070442E-01
  9.010961E-01
  8.945802E-01
  8.880787E-01
  8.811443E-01
  8.736497E-01
  8.661677E-01
  8.577207E-01
  8.491004E-01
  8.400406E-01
  8.302427E-01
  8.204128E-01
  8.094553E-01
  7.985018E-01
  7.866993E-01
  7.746953E-01
  7.621066E-01
  7.492588E-01
  7.359921E-01
  7.225327E-01
  7.087887E-01
  6.949642E-01
  6.810523E-01
  6.671889E-01
  6.534833E-01
  6.400820E-01
  6.269205E-01
  6.144849E-01
  6.026094E-01
  5.913454E-01
  5.810225E-01
  5.717832E-01
  5.636689E-01
  5.571282E-01
  5.531415E-01
  5.539746E-01
  5.645157E-01
  5.929678E-01
  6.520361E-01
  7.515529E-01
  8.276307E-01
  7.809354E-01
  8.847998E-01
  1.425863E-01
 -5.798406E-14
  9.893692E-01
  9.892016E-01
  9.890339E-01
  9.888662E-01
  9.886985E-01
  9.885309E-01
  9.883632E-01
  9.881955E-01
  9.880279E-01
  9.875355E-01
  9.870350E-01
  9.865346E-01
  9.860342E-01
  9.855338E-01
  9.850333E-01
  9.845329E-01
  9.839275E-01
  9.831295E-01
  9.823316E-01
  9.815336E-01
  9.807356E-01
  9.799377E-01
  9.791398E-01
  9.783098E-01
  9.772233E-01
  9.761368E-01
  9.750504E-01
  9.739640E-01
  9.728776E-01
  9.717912E-01
  9.706343E-01
  9.692431E-01
  9.678519E-01
  9.664608E-01
  9.650697E-01
  9.636787E-01
  9.622877E-01
  9.606826E-01
  9.589839E-01
  9.572852E-01
  9.555867E-01
  9.538882E-01
  9.521898E-01
  9.503463E-01
  9.483500E-01
  9.463537E-01
  9.443575E-01
  9.423615E-01
  9.403656E-01
  9.381951E-01
  9.359026E-01
  9.336101E-01
  9.313179E-01
  9.290258E-01
  9.267339E-01
  9.241483E-01
  9.215582E-01
  9.189684E-01
  9.163788E-01
  9.137895E-01
  9.110090E-01
  9.081308E-01
  9.052529E-01
  9.023752E-01
  8.994977E-01
  8.964454E-01
  8.932784E-01
  8.901117E-01
  8.869452E-01
  8.837790E-01
  8.803651E-01
  8.768892E-01
  8.734136E-01
  8.699382E-01
  8.663866E-01
  8.625869E-01
  8.587874E-01
  8.549880E-01
  8.511888E-01
  8.470924E-01
  8.429628E-01
  8.388333E-01
  8.347039E-01
  8.303131E-01
  8.258487E-01
  8.213844E-01
  8.169204E-01
  8.121879E-01
  8.074146E-01
  8.026415E-01
  7.978296E-01
  7.927956E-01
  7.877622E-01
  7.827293E-01
  7.775489E-01
  7.722780E-01
  7.670082E-01
  7.616774E-01
  7.561747E-01
  7.506741E-01
  7.451594E-01
  7.394494E-01
  7.337427E-01
  7.280280E-01
  7.220952E-01
  7.161662E-01
  7.101898E-01
  7.039690E-01
  6.977521E-01
  6.913828E-01
  6.848171E-01
  6.782549E-01
  6.713724E-01
  6.644323E-01
  6.573476E-01
  6.500208E-01
  6.426834E-01
  6.349731E-01
  6.272646E-01
  6.192520E-01
  6.111676E-01
  6.028261E-01
  5.943711E-01
  5.856647E-01
  5.768424E-01
  5.677460E-01
  5.585705E-01
  5.490795E-01
  5.395050E-01
  5.297039E-01
  5.197388E-01
  5.096534E-01
  4.993265E-01
  4.888555E-01
  4.782320E-01
  4.673896E-01
  4.563120E-01
  4.450287E-01
  4.335569E-01
  4.220127E-01
  4.107824E-01
  4.007938E-01
  3.936339E-01
  3.924591E-01
  4.005909E-01
  3.973382E-01
  3.579567E-01
  4.022512E-01
  1.652396E-01
 -2.502728E-03
  5.643483E-02
  5.642853E-02
  5.642223E-02
  5.641593E-02
  5.640963E-02
  5.640334E-02
  5.639704E-02
  5.639075E-02
  5.638445E-02
  5.637088E-02
  5.635712E-02
  5.634337E-02
  5.632962E-02
  5.631587E-02
  5.630212E-02
  5.628836E-02
  5.627472E-02
  5.626126E-02
  5.624780E-02
  5.623434E-02
  5.622089E-02
  5.620743E-02
  5.619397E-02
  5.618029E-02
  5.616481E-02
  5.614933E-02
  5.613385E-02
  5.611837E-02
  5.610289E-02
  5.608741E-02
  5.607010E-02
  5.604675E-02
  5.602340E-02
  5.600004E-02
  5.597668E-02
  5.595332E-02
  5.592995E-02
  5.590005E-02
  5.586728E-02
  5.583450E-02
  5.580172E-02
  5.576894E-02
  5.573615E-02
  5.569723E-02
  5.565185E-02
  5.560645E-02
  5.556105E-02
  5.551564E-02
  5.547023E-02
  5.541154E-02
  5.534355E-02
  5.527554E-02
  5.520754E-02
  5.513952E-02
  5.507150E-02
  5.497157E-02
  5.487113E-02
  5.477070E-02
  5.467026E-02
  5.456981E-02
  5.444853E-02
  5.431657E-02
  5.418461E-02
  5.405265E-02
  5.392069E-02
  5.377446E-02
  5.361888E-02
  5.346329E-02
  5.330770E-02
  5.315210E-02
  5.298698E-02
  5.281946E-02
  5.265191E-02
  5.248436E-02
  5.231791E-02
  5.215510E-02
  5.199226E-02
  5.182939E-02
  5.166649E-02
  5.151043E-02
  5.135512E-02
  5.119978E-02
  5.104441E-02
  5.088004E-02
  5.071312E-02
  5.054616E-02
  5.037919E-02
  5.018567E-02
  4.998806E-02
  4.979043E-02
  4.958639E-02
  4.934601E-02
  4.910567E-02
  4.886537E-02
  4.858486E-02
  4.827966E-02
  4.797468E-02
  4.764914E-02
  4.726575E-02
  4.688292E-02
  4.649641E-02
  4.605858E-02
  4.562164E-02
  4.518452E-02
  4.472771E-02
  4.427185E-02
  4.381713E-02
  4.336432E-02
  4.291233E-02
  4.246990E-02
  4.203935E-02
  4.160937E-02
  4.121003E-02
  4.081665E-02
  4.044069E-02
  4.009332E-02
  3.974767E-02
  3.945139E-02
  3.915495E-02
  3.890245E-02
  3.866022E-02
  3.845433E-02
  3.826438E-02
  3.810635E-02
  3.796300E-02
  3.785366E-02
  3.775422E-02
  3.769805E-02
  3.765561E-02
  3.765078E-02
  3.768030E-02
  3.773629E-02
  3.785582E-02
  3.802185E-02
  3.823926E-02
  3.853646E-02
  3.893090E-02
  3.942892E-02
  4.006637E-02
  4.090901E-02
  4.208868E-02
  4.385946E-02
  4.663718E-02
  5.115373E-02
  5.812365E-02
  6.426361E-02
  6.541466E-02
  7.898608E-02
  2.619033E-02
  8.466989E-03
  1.615175E-01
  1.614700E-01
  1.614225E-01
  1.613750E-01
  1.613275E-01
  1.612801E-01
  1.612326E-01
  1.611851E-01
  1.611376E-01
  1.610153E-01
  1.608911E-01
  1.607670E-01
  1.606429E-01
  1.605187E-01
  1.603946E-01
  1.602704E-01
  1.601283E-01
  1.599530E-01
  1.597777E-01
  1.596025E-01
  1.594272E-01
  1.592519E-01
  1.590767E-01
  1.588951E-01
  1.586624E-01
  1.584298E-01
  1.581971E-01
  1.579645E-01
  1.577318E-01
  1.574992E-01
  1.572515E-01
  1.569539E-01
  1.566562E-01
  1.563586E-01
  1.560609E-01
  1.557633E-01
  1.554657E-01
  1.551243E-01
  1.547639E-01
  1.544035E-01
  1.540431E-01
  1.536827E-01
  1.533223E-01
  1.529355E-01
  1.525210E-01
  1.521065E-01
  1.516921E-01
  1.512776E-01
  1.508632E-01
  1.504243E-01
  1.499682E-01
  1.495122E-01
  1.490562E-01
  1.486003E-01
  1.481444E-01
  1.476628E-01
  1.471808E-01
  1.466989E-01
  1.462171E-01
  1.457353E-01
  1.452428E-01
  1.447448E-01
  1.442469E-01
  1.437491E-01
  1.432513E-01
  1.427394E-01
  1.422181E-01
  1.416970E-01
  1.411759E-01
  1.406549E-01
  1.401068E-01
  1.395519E-01
  1.389971E-01
  1.384423E-01
  1.378820E-01
  1.373032E-01
  1.367244E-01
  1.361457E-01
  1.355670E-01
  1.349726E-01
  1.343765E-01
  1.337803E-01
  1.331843E-01
  1.325630E-01
  1.319348E-01
  1.313066E-01
  1.306784E-01
  1.300290E-01
  1.293764E-01
  1.287239E-01
  1.280725E-01
  1.274271E-01
  1.267818E-01
  1.261368E-01
  1.254931E-01
  1.248504E-01
  1.242083E-01
  1.235572E-01
  1.228810E-01
  1.222056E-01
  1.215279E-01
  1.208111E-01
  1.200959E-01
  1.193797E-01
  1.186182E-01
  1.178585E-01
  1.170850E-01
  1.162378E-01
  1.153924E-01
  1.144907E-01
  1.135163E-01
  1.125435E-01
  1.114454E-01
  1.103249E-01
  1.091473E-01
  1.078739E-01
  1.065963E-01
  1.051725E-01
  1.037491E-01
  1.022157E-01
  1.006560E-01
  9.902057E-02
  9.735149E-02
  9.562809E-02
  9.387967E-02
  9.209436E-02
  9.029859E-02
  8.849152E-02
  8.669074E-02
  8.491048E-02
  8.316973E-02
  8.146010E-02
  7.984478E-02
  7.830218E-02
  7.683897E-02
  7.549799E-02
  7.429774E-02
  7.324362E-02
  7.239389E-02
  7.187595E-02
  7.198416E-02
  7.335372E-02
  7.705054E-02
  8.472547E-02
  9.765601E-02
  1.075406E-01
  1.014721E-01
  1.149665E-01
  2.544839E-02
 -1.832841E-09
  9.894998E-01
  9.893321E-01
  9.891645E-01
  9.889969E-01
  9.888293E-01
  9.886617E-01
  9.884940E-01
  9.883264E-01
  9.881588E-01
  9.876666E-01
  9.871663E-01
  9.866660E-01
  9.861658E-01
  9.856655E-01
  9.851653E-01
  9.846650E-01
  9.840598E-01
  9.832621E-01
  9.824644E-01
  9.816667E-01
  9.808691E-01
  9.800714E-01
  9.792738E-01
  9.784441E-01
  9.773581E-01