 Title = "ADflow Slice Data"
Variables =  "CoordinateX"  "CoordinateY"  "CoordinateZ"  "XoC"  "YoC"  "ZoC" "VelocityX" "VelocityY" "VelocityZ" "CoefPressure" "Mach" 
Zone T= "Slice_0001 None Relative Regular z = 0.10000000"
 Nodes =          114  Elements=          106  ZONETYPE=FELINESEG
 DATAPACKING=POINT
  7.301402E-01  6.736964E-02  1.000000E-01  7.450342E-01  5.886600E-02  1.416122E-17  2.557539E-02 -4.227719E-03 -1.851198E-04 -4.349755E-01  0.000000E+00
  7.043967E-01  7.147788E-02  1.000000E-01  7.187649E-01  6.305814E-02 -4.248366E-17  2.689395E-02 -4.137986E-03 -1.827564E-04 -4.693019E-01  0.000000E+00
  6.775455E-01  7.545791E-02  1.000000E-01  6.913653E-01  6.711946E-02  3.965142E-16  2.801684E-02 -4.006852E-03 -1.790844E-04 -5.014273E-01  0.000000E+00
  6.496792E-01  7.929681E-02  1.000000E-01  6.629299E-01  7.103676E-02  4.248366E-17  2.898194E-02 -3.866503E-03 -1.742985E-04 -5.346533E-01  0.000000E+00
  6.209097E-01  8.300603E-02  1.000000E-01  6.335728E-01  7.482174E-02 -2.832244E-17  2.990049E-02 -3.728169E-03 -1.686345E-04 -5.713061E-01  0.000000E+00
  5.913667E-01  8.656043E-02  1.000000E-01  6.034264E-01  7.844872E-02 -2.832244E-17  3.090848E-02 -3.581082E-03 -1.622574E-04 -6.117658E-01  0.000000E+00
  5.611982E-01  8.991767E-02  1.000000E-01  5.726418E-01  8.187453E-02  0.000000E+00  3.210744E-02 -3.416804E-03 -1.551466E-04 -6.569427E-01  0.000000E+00
  5.305654E-01  9.302478E-02  1.000000E-01  5.413833E-01  8.504510E-02 -5.664488E-17  3.356978E-02 -3.225849E-03 -1.471724E-04 -7.086118E-01  0.000000E+00
  4.996398E-01  9.582806E-02  1.000000E-01  5.098262E-01  8.790564E-02  0.000000E+00  3.536162E-02 -2.983134E-03 -1.382222E-04 -7.678636E-01  0.000000E+00
  4.685986E-01  9.825026E-02  1.000000E-01  4.781510E-01  9.037730E-02  1.416122E-17  3.753467E-02 -2.641577E-03 -1.282809E-04 -8.330894E-01  0.000000E+00
  4.376215E-01  1.001950E-01  1.000000E-01  4.465413E-01  9.236180E-02 -8.496732E-17  4.007077E-02 -2.151001E-03 -1.174079E-04 -9.004367E-01  0.000000E+00
  4.068895E-01  1.015699E-01  1.000000E-01  4.151816E-01  9.376473E-02  0.000000E+00  4.284980E-02 -1.473389E-03 -1.057535E-04 -9.651347E-01  0.000000E+00
  3.765814E-01  1.023033E-01  1.000000E-01  3.842545E-01  9.451315E-02 -5.664488E-17  4.566607E-02 -6.109273E-04 -9.360325E-05 -1.024451E+00  0.000000E+00
  3.468696E-01  1.023812E-01  1.000000E-01  3.539359E-01  9.459263E-02 -5.664488E-17  4.834606E-02  4.149291E-04 -8.147044E-05 -1.077131E+00  0.000000E+00
  3.179133E-01  1.018072E-01  1.000000E-01  3.243882E-01  9.400686E-02 -2.832244E-17  5.082612E-02  1.591152E-03 -7.000720E-05 -1.122852E+00  0.000000E+00
  2.898519E-01  1.006017E-01  1.000000E-01  2.957537E-01  9.277672E-02 -4.248366E-17  5.311721E-02  2.893664E-03 -5.969052E-05 -1.164838E+00  0.000000E+00
  2.628044E-01  9.880776E-02  1.000000E-01  2.681538E-01  9.094619E-02  0.000000E+00  5.529760E-02  4.310150E-03 -5.067810E-05 -1.207218E+00  0.000000E+00
  9.800000E-01  1.208768E-02  1.000000E-01  9.999970E-01  2.454987E-03 -2.832244E-17  1.060412E-02 -1.316116E-02 -1.992645E-04 -5.649157E-02  0.000000E+00
  9.720124E-01  1.421651E-02  1.000000E-01  9.918463E-01  4.627297E-03 -2.832244E-17  1.212423E-02 -3.302430E-03 -1.871668E-04  6.884869E-02  0.000000E+00
  9.632634E-01  1.656193E-02  1.000000E-01  9.829186E-01  7.020620E-03 -2.832244E-17  9.083666E-03 -2.372401E-03 -1.588019E-04  2.202197E-02  0.000000E+00
  9.536907E-01  1.911242E-02  1.000000E-01  9.731504E-01  9.623198E-03 -2.832244E-17  7.180796E-03 -1.902688E-03 -1.390481E-04  4.113472E-03  0.000000E+00
  9.432303E-01  2.185224E-02  1.000000E-01  9.624763E-01  1.241897E-02  1.416122E-17  6.749686E-03 -1.752202E-03 -1.320531E-04 -1.572821E-02  0.000000E+00
  9.318220E-01  2.478471E-02  1.000000E-01  9.508350E-01  1.541134E-02  1.416122E-17  7.464201E-03 -1.897324E-03 -1.342280E-04 -4.155527E-02  0.000000E+00
  9.194070E-01  2.791284E-02  1.000000E-01  9.381665E-01  1.860335E-02 -8.496732E-17  8.828849E-03 -2.198006E-03 -1.409268E-04 -6.934474E-02  0.000000E+00
  9.059278E-01  3.123462E-02  1.000000E-01  9.244120E-01  2.199298E-02 -5.664488E-17  1.043287E-02 -2.537564E-03 -1.489173E-04 -9.895565E-02  0.000000E+00
  8.913299E-01  3.474397E-02  1.000000E-01  9.095159E-01  2.557400E-02  0.000000E+00  1.207200E-02 -2.862574E-03 -1.565995E-04 -1.309198E-01  0.000000E+00
  8.755643E-01  3.843531E-02  1.000000E-01  8.934284E-01  2.934072E-02 -2.832244E-17  1.371382E-02 -3.163809E-03 -1.635284E-04 -1.653492E-01  0.000000E+00
  8.585885E-01  4.229755E-02  1.000000E-01  8.761058E-01  3.328185E-02  4.106754E-16  1.540131E-02 -3.444809E-03 -1.698037E-04 -2.018136E-01  0.000000E+00
  8.403666E-01  4.630801E-02  1.000000E-01  8.575118E-01  3.737422E-02  3.965142E-16  1.715389E-02 -3.701835E-03 -1.754031E-04 -2.396981E-01  0.000000E+00
  8.208730E-01  5.043655E-02  1.000000E-01  8.376201E-01  4.158707E-02 -8.496732E-17  1.893970E-02 -3.923311E-03 -1.800293E-04 -2.786641E-01  0.000000E+00
  8.000947E-01  5.464989E-02  1.000000E-01  8.164174E-01  4.588647E-02 -2.832244E-17  2.071405E-02 -4.096461E-03 -1.834189E-04 -3.184205E-01  0.000000E+00
  7.780326E-01  5.890799E-02  1.000000E-01  7.939047E-01  5.023153E-02 -2.832244E-17  2.243919E-02 -4.210038E-03 -1.854432E-04 -3.584403E-01  0.000000E+00
  7.547032E-01  6.316491E-02  1.000000E-01  7.700989E-01  5.457539E-02  4.389978E-16  2.407567E-02 -4.254712E-03 -1.860266E-04 -3.977234E-01  0.000000E+00
  7.301402E-01  6.736964E-02  1.000000E-01  7.450342E-01  5.886600E-02  2.832244E-17  2.557539E-02 -4.227719E-03 -1.851198E-04 -4.349755E-01  0.000000E+00
  2.444131E-01 -2.563809E-03  1.000000E-01  2.493868E-01 -1.249573E-02  3.681917E-16  2.786614E-02  1.275304E-03  4.649685E-05  1.678609E-01  0.000000E+00
  2.700250E-01 -1.395580E-03  1.000000E-01  2.755219E-01 -1.130365E-02 -4.248366E-17  2.811359E-02  1.261832E-03  4.918280E-05  1.661264E-01  0.000000E+00
  2.967058E-01 -2.187732E-04  1.000000E-01  3.027476E-01 -1.010280E-02 -2.832244E-17  2.848605E-02  1.292633E-03  5.270723E-05  1.582442E-01  0.000000E+00
  3.243554E-01  1.069293E-03  1.000000E-01  3.309618E-01 -8.788431E-03  4.248366E-16  2.863047E-02  1.444915E-03  5.710606E-05  1.454253E-01  0.000000E+00
  3.528511E-01  2.618070E-03  1.000000E-01  3.600396E-01 -7.208023E-03 -4.248366E-17  2.815147E-02  1.737815E-03  6.219119E-05  1.339462E-01  0.000000E+00
  3.820469E-01  4.642953E-03  1.000000E-01  3.898316E-01 -5.141785E-03  5.664488E-17  2.679176E-02  2.121823E-03  6.751229E-05  1.315138E-01  0.000000E+00
  4.117740E-01  7.312023E-03  1.000000E-01  4.201659E-01 -2.418203E-03 -5.664488E-17  2.462542E-02  2.479799E-03  7.251108E-05  1.451371E-01  0.000000E+00
  4.418498E-01  1.070119E-02  1.000000E-01  4.508559E-01  1.040186E-03 -2.832244E-17  2.208866E-02  2.675194E-03  7.681028E-05  1.751068E-01  0.000000E+00
  4.721105E-01  1.465903E-02  1.000000E-01  4.817347E-01  5.078854E-03 -5.664488E-17  1.995047E-02  2.510992E-03  8.063440E-05  2.269838E-01  0.000000E+00
  5.024968E-01  1.832180E-02  1.000000E-01  5.127415E-01  8.816426E-03  1.416122E-17  1.866846E-02  2.070462E-03  8.437289E-05  2.818054E-01  0.000000E+00
  5.328693E-01  2.136370E-02  1.000000E-01  5.437343E-01  1.192045E-02 -4.248366E-17  1.803680E-02  1.669564E-03  8.820098E-05  3.084772E-01  0.000000E+00
  5.630297E-01  2.391281E-02  1.000000E-01  5.745108E-01  1.452163E-02  1.416122E-17  1.769511E-02  1.398936E-03  9.224146E-05  3.155111E-01  0.000000E+00
  5.927917E-01  2.610089E-02  1.000000E-01  6.048805E-01  1.675440E-02  5.664488E-17  1.737094E-02  1.220864E-03  9.627063E-05  3.210940E-01  0.000000E+00
  6.219828E-01  2.805221E-02  1.000000E-01  6.346679E-01  1.874557E-02 -4.248366E-17  1.692352E-02  1.086615E-03  9.986840E-05  3.305076E-01  0.000000E+00
  6.504533E-01  2.979736E-02  1.000000E-01  6.637198E-01  2.052636E-02  5.664488E-17  1.636959E-02  9.371777E-04  1.028764E-04  3.442201E-01  0.000000E+00
  6.780742E-01  3.125663E-02  1.000000E-01  6.919048E-01  2.201543E-02  4.531590E-16  1.581905E-02  7.407678E-04  1.054279E-04  3.602703E-01  0.000000E+00
  7.047326E-01  3.233156E-02  1.000000E-01  7.191077E-01  2.311231E-02  0.000000E+00  1.538924E-02  5.031178E-04  1.077692E-04  3.749771E-01  0.000000E+00
  1.215943E-04  9.344070E-03  1.000000E-01  1.060953E-04 -3.446553E-04 -5.664488E-17 -4.538387E-02  8.095695E-02  6.969941E-05  7.518030E-01  0.000000E+00
  4.902502E-03  3.676761E-03  1.000000E-01  4.984645E-03 -6.127710E-03 -8.496732E-17 -1.680358E-02  1.957266E-02  5.526032E-05  9.383377E-01  0.000000E+00
  1.254908E-02  3.733955E-05  1.000000E-01  1.278739E-02 -9.841461E-03 -2.832244E-17  7.872564E-03 -2.050568E-03  4.145694E-05  5.433212E-01  0.000000E+00
  2.163699E-02 -2.349276E-03  1.000000E-01  2.206091E-02 -1.227682E-02  1.416122E-17  2.165310E-02 -4.460535E-03  3.546187E-05  3.418491E-01  0.000000E+00
  3.184423E-02 -4.023803E-03  1.000000E-01  3.247661E-02 -1.398555E-02 -2.832244E-17  2.740836E-02 -3.594334E-03  3.470258E-05  3.078610E-01  0.000000E+00
  4.311596E-02 -5.196428E-03  1.000000E-01  4.397855E-02 -1.518212E-02 -8.496732E-17  2.960465E-02 -2.378672E-03  3.525701E-05  2.725961E-01  0.000000E+00
  5.546913E-02 -5.910349E-03  1.000000E-01  5.658402E-02 -1.591062E-02  1.416122E-17  3.027034E-02 -1.405017E-03  3.603174E-05  2.400359E-01  0.000000E+00
  6.891473E-02 -6.379274E-03  1.000000E-01  7.030422E-02 -1.638912E-02 -8.496732E-17  3.050702E-02 -8.730603E-04  3.688192E-05  2.280228E-01  0.000000E+00
  8.348882E-02 -6.709852E-03  1.000000E-01  8.517597E-02 -1.672645E-02  5.664488E-17  3.063136E-02 -5.236726E-04  3.766798E-05  2.159463E-01  0.000000E+00
  9.923792E-02 -6.895998E-03  1.000000E-01  1.012467E-01 -1.691640E-02 -9.912854E-17  3.060106E-02 -1.654685E-04  3.840029E-05  1.970255E-01  0.000000E+00
  1.162051E-01 -6.879987E-03  1.000000E-01  1.185604E-01 -1.690006E-02 -8.496732E-17  3.037969E-02  2.019402E-04  3.916305E-05  1.801771E-01  0.000000E+00
  1.344203E-01 -6.654308E-03  1.000000E-01  1.371476E-01 -1.666978E-02 -8.496732E-17  2.999101E-02  5.235572E-04  3.998647E-05  1.708768E-01  0.000000E+00
  1.539027E-01 -6.216141E-03  1.000000E-01  1.570280E-01 -1.622266E-02  4.389978E-16  2.945484E-02  8.005107E-04  4.085972E-05  1.658526E-01  0.000000E+00
  1.746592E-01 -5.554684E-03  1.000000E-01  1.782083E-01 -1.554769E-02  3.257081E-16  2.884591E-02  1.019720E-03  4.183333E-05  1.639353E-01  0.000000E+00
  1.966815E-01 -4.698821E-03  1.000000E-01  2.006804E-01 -1.467435E-02 -2.832244E-17  2.829490E-02  1.165376E-03  4.300711E-05  1.651420E-01  0.000000E+00
  2.199461E-01 -3.687102E-03  1.000000E-01  2.244202E-01 -1.364197E-02 -4.248366E-17  2.793205E-02  1.249034E-03  4.450411E-05  1.670383E-01  0.000000E+00
  2.444131E-01 -2.563809E-03  1.000000E-01  2.493868E-01 -1.249573E-02  3.823529E-16  2.786614E-02  1.275304E-03  4.649685E-05  1.678609E-01  0.000000E+00
  7.047326E-01  3.233156E-02  1.000000E-01  7.191077E-01  2.311231E-02 -2.832244E-17  1.538924E-02  5.031178E-04  1.077692E-04  3.749771E-01  0.000000E+00
  7.303325E-01  3.295995E-02  1.000000E-01  7.452304E-01  2.375355E-02 -2.832244E-17  1.517217E-02  2.382980E-04  1.101568E-04  3.859275E-01  0.000000E+00
  7.547951E-01  3.311854E-02  1.000000E-01  7.701927E-01  2.391537E-02  4.389978E-16  1.524231E-02 -5.623758E-05  1.128315E-04  3.929398E-01  0.000000E+00
  7.780600E-01  3.279165E-02  1.000000E-01  7.939327E-01  2.358180E-02  1.416122E-17  1.565378E-02 -3.948680E-04  1.159758E-04  3.957888E-01  0.000000E+00
  8.000833E-01  3.199126E-02  1.000000E-01  8.164057E-01  2.276507E-02 -4.248366E-17  1.641771E-02 -7.916140E-04  1.196608E-04  3.937818E-01  0.000000E+00
  8.208376E-01  3.074994E-02  1.000000E-01  8.375839E-01  2.149839E-02 -2.832244E-17  1.746672E-02 -1.230499E-03  1.237528E-04  3.858681E-01  0.000000E+00
  8.403144E-01  2.917561E-02  1.000000E-01  8.574586E-01  1.989191E-02  4.389978E-16  1.863976E-02 -1.646588E-03  1.278775E-04  3.712336E-01  0.000000E+00
  8.585258E-01  2.743115E-02  1.000000E-01  8.760418E-01  1.811183E-02  3.965142E-16  1.973992E-02 -1.973456E-03  1.315460E-04  3.523880E-01  0.000000E+00
  8.754993E-01  2.566031E-02  1.000000E-01  8.933620E-01  1.630482E-02 -2.832244E-17  2.062282E-02 -2.193333E-03  1.342750E-04  3.335641E-01  0.000000E+00
  8.912718E-01  2.394636E-02  1.000000E-01  9.094567E-01  1.455586E-02 -2.832244E-17  2.127299E-02 -2.364048E-03  1.357678E-04  3.184536E-01  0.000000E+00
  9.058836E-01  2.228249E-02  1.000000E-01  9.243669E-01  1.285801E-02 -4.248366E-17  2.181534E-02 -2.571260E-03  1.361251E-04  3.076676E-01  0.000000E+00
  9.193796E-01  2.063299E-02  1.000000E-01  9.381385E-01  1.117482E-02 -5.664488E-17  2.244251E-02 -2.842994E-03  1.360364E-04  2.965408E-01  0.000000E+00
  9.318118E-01  1.899846E-02  1.000000E-01  9.508246E-01  9.506914E-03  4.248366E-17  2.335804E-02 -3.195602E-03  1.369205E-04  2.823986E-01  0.000000E+00
  9.432349E-01  1.737351E-02  1.000000E-01  9.624810E-01  7.848773E-03 -2.832244E-17  2.460165E-02 -3.645380E-03  1.398220E-04  2.657778E-01  0.000000E+00
  9.537058E-01  1.575786E-02  1.000000E-01  9.731658E-01  6.200129E-03  0.000000E+00  2.553354E-02 -4.091702E-03  1.423462E-04  2.411060E-01  0.000000E+00
  9.632829E-01  1.415585E-02  1.000000E-01  9.829385E-01  4.565393E-03 -2.832244E-17  2.455373E-02 -4.281712E-03  1.367474E-04  2.063212E-01  0.000000E+00
  9.720275E-01  1.260004E-02  1.000000E-01  9.918617E-01  2.977815E-03  0.000000E+00  2.087149E-02 -3.732784E-03  1.178202E-04  2.037891E-01  0.000000E+00
  9.800000E-01  1.111246E-02  1.000000E-01  9.999970E-01  1.459851E-03  1.416122E-17  1.389666E-02  4.377593E-03  7.532701E-05 -1.002698E-02  0.000000E+00
  1.215943E-04  1.002474E-02  1.000000E-01  1.060953E-04  3.499177E-04 -9.912854E-17  2.284717E-02  5.297081E-02  3.323868E-05  4.588077E-01  0.000000E+00
  7.278129E-05  9.910081E-03  1.000000E-01  5.628530E-05  2.329154E-04  1.416122E-17  1.552884E-02  7.595934E-02  4.597104E-05  2.989684E-01  0.000000E+00
  1.762252E-05  9.681827E-03  1.000000E-01  0.000000E+00  0.000000E+00  0.000000E+00 -1.212769E-02  1.218347E-01  6.657683E-05  3.388808E-01  0.000000E+00
  8.694958E-05  9.456662E-03  1.000000E-01  7.074295E-05 -2.297640E-04  0.000000E+00 -5.080481E-02  1.319156E-01  7.617861E-05  3.879736E-01  0.000000E+00
  1.215943E-04  9.344070E-03  1.000000E-01  1.060953E-04 -3.446553E-04 -4.248366E-17 -4.538387E-02  8.095695E-02  6.969941E-05  7.518030E-01  0.000000E+00
  9.800000E-01  1.111246E-02  1.000000E-01  9.999970E-01  1.459851E-03  0.000000E+00  1.389666E-02  4.377593E-03  7.532701E-05 -1.002698E-02  0.000000E+00
  9.800000E-01  1.127500E-02  1.000000E-01  9.999970E-01  1.625707E-03  0.000000E+00  4.509720E-03 -1.539616E-03 -1.295221E-05 -2.109808E-01  0.000000E+00
  9.800000E-01  1.160007E-02  1.000000E-01  9.999970E-01  1.957419E-03 -2.832244E-17 -4.415752E-04 -1.596509E-02 -1.122950E-04 -1.753340E-01  0.000000E+00
  9.800000E-01  1.192514E-02  1.000000E-01  9.999970E-01  2.289131E-03 -5.664488E-17  3.431142E-03 -1.964858E-02 -1.746870E-04 -1.937125E-01  0.000000E+00
  9.800000E-01  1.208768E-02  1.000000E-01  9.999970E-01  2.454987E-03  0.000000E+00  1.060412E-02 -1.316116E-02 -1.992645E-04 -5.649157E-02  0.000000E+00
  2.628044E-01  9.880776E-02  1.000000E-01  2.681538E-01  9.094619E-02 -2.832244E-17  5.529760E-02  4.310150E-03 -5.067810E-05 -1.207218E+00  0.000000E+00
  2.368706E-01  9.647526E-02  1.000000E-01  2.416903E-01  8.856606E-02  3.681917E-16  5.752539E-02  5.924984E-03 -4.292561E-05 -1.247033E+00  0.000000E+00
  2.121362E-01  9.359694E-02  1.000000E-01  2.164508E-01  8.562895E-02  1.416122E-17  5.982988E-02  7.813501E-03 -3.626116E-05 -1.277496E+00  0.000000E+00
  1.886687E-01  9.019057E-02  1.000000E-01  1.925040E-01  8.215301E-02 -4.248366E-17  6.203285E-02  9.953972E-03 -3.046279E-05 -1.293731E+00  0.000000E+00
  1.665185E-01  8.628842E-02  1.000000E-01  1.699014E-01  7.817116E-02  4.814815E-16  6.390652E-02  1.227995E-02 -2.536969E-05 -1.293275E+00  0.000000E+00
  1.457161E-01  8.194744E-02  1.000000E-01  1.486742E-01  7.374153E-02  4.531590E-16  6.529785E-02  1.471784E-02 -2.087205E-05 -1.277709E+00  0.000000E+00
  1.262764E-01  7.722739E-02  1.000000E-01  1.288374E-01  6.892507E-02  0.000000E+00  6.618971E-02  1.723122E-02 -1.685975E-05 -1.252241E+00  0.000000E+00
  1.081990E-01  7.218799E-02  1.000000E-01  1.103908E-01  6.378275E-02  0.000000E+00  6.661896E-02  1.979657E-02 -1.317647E-05 -1.223971E+00  0.000000E+00
  9.146971E-02  6.689162E-02  1.000000E-01  9.331985E-02  5.837821E-02  0.000000E+00  6.669506E-02  2.256870E-02 -9.694075E-06 -1.188088E+00  0.000000E+00
  7.608258E-02  6.133392E-02  1.000000E-01  7.761846E-02  5.270701E-02  0.000000E+00  6.637592E-02  2.571899E-02 -6.359059E-06 -1.126236E+00  0.000000E+00
  6.202881E-02  5.550423E-02  1.000000E-01  6.327767E-02  4.675826E-02 -5.664488E-17  6.532407E-02  2.910828E-02 -3.173276E-06 -1.021223E+00  0.000000E+00
  4.929579E-02  4.941941E-02  1.000000E-01  5.028459E-02  4.054917E-02 -8.496732E-17  6.318211E-02  3.218814E-02 -1.366249E-07 -8.780828E-01  0.000000E+00
  3.782553E-02  4.319018E-02  1.000000E-01  3.858008E-02  3.419271E-02  4.248366E-17  6.008531E-02  3.474051E-02  2.808345E-06 -7.236138E-01  0.000000E+00
  2.757469E-02  3.687031E-02  1.000000E-01  2.811988E-02  2.774377E-02 -2.832244E-17  5.653613E-02  3.700479E-02  5.945549E-06 -6.054630E-01  0.000000E+00
  1.848362E-02  3.053652E-02  1.000000E-01  1.884314E-02  2.128062E-02  5.664488E-17  5.321042E-02  4.043201E-02  1.006750E-05 -5.078111E-01  0.000000E+00
  1.064273E-02  2.406289E-02  1.000000E-01  1.084211E-02  1.467477E-02  1.416122E-17  4.945789E-02  4.665085E-02  1.657305E-05 -2.681449E-01  0.000000E+00
  4.262692E-03  1.729943E-02  1.000000E-01  4.331769E-03  7.773185E-03  1.416122E-17  4.009792E-02  5.389117E-02  2.566183E-05  2.429259E-01  0.000000E+00
  1.215943E-04  1.002474E-02  1.000000E-01  1.060953E-04  3.499177E-04 -8.496732E-17  2.284717E-02  5.297081E-02  3.323868E-05  4.588077E-01  0.000000E+00
    1    2
    2    3
    3    4
    4    5
    5    6
    6    7
    7    8
    8    9
    9   10
   10   11
   11   12
   12   13
   13   14
   14   15
   15   16
   16   17
   18   19
   19   20
   20   21
   21   22
   22   23
   23   24
   24   25
   25   26
   26   27
   27   28
   28   29
   29   30
   30   31
   31   32
   32   33
   33   34
   35   36
   36   37
   37   38
   38   39
   39   40
   40   41
   41   42
   42   43
   43   44
   44   45
   45   46
   46   47
   47   48
   48   49
   49   50
   50   51
   52   53
   53   54
   54   55
   55   56
   56   57
   57   58
   58   59
   59   60
   60   61
   61   62
   62   63
   63   64
   64   65
   65   66
   66   67
   67   68
   69   70
   70   71
   71   72
   72   73
   73   74
   74   75
   75   76
   76   77
   77   78
   78   79
   79   80
   80   81
   81   82
   82   83
   83   84
   84   85
   85   86
   87   88
   88   89
   89   90
   90   91
   92   93
   93   94
   94   95
   95   96
   97   98
   98   99
   99  100
  100  101
  101  102
  102  103
  103  104
  104  105
  105  106
  106  107
  107  108
  108  109
  109  110
  110  111
  111  112
  112  113
  113  114
Zone T= "Slice_0002 None Relative Regular z = 0.36666667"
 Nodes =          114  Elements=          106  ZONETYPE=FELINESEG
 DATAPACKING=POINT
  7.301402E-01  6.674894E-02  3.666667E-01  7.450346E-01  5.825741E-02 -5.664491E-17  2.570790E-02 -4.235154E-03 -5.927661E-04 -4.285404E-01  0.000000E+00
  7.043967E-01  7.084614E-02  3.666667E-01  7.187653E-01  6.243829E-02 -1.132898E-16  2.701904E-02 -4.147791E-03 -5.849516E-04 -4.624654E-01  0.000000E+00
  6.775455E-01  7.482060E-02  3.666667E-01  6.913657E-01  6.649392E-02  3.058825E-14  2.813812E-02 -4.020233E-03 -5.734931E-04 -4.943172E-01  0.000000E+00
  6.496792E-01  7.865962E-02  3.666667E-01  6.629303E-01  7.041135E-02 -1.699347E-16  2.910227E-02 -3.883830E-03 -5.593083E-04 -5.273197E-01  0.000000E+00
  6.209097E-01  8.237419E-02  3.666667E-01  6.335732E-01  7.420179E-02  0.000000E+00  3.002044E-02 -3.749307E-03 -5.433234E-04 -5.637254E-01  0.000000E+00
  5.913667E-01  8.593913E-02  3.666667E-01  6.034268E-01  7.783953E-02  1.132898E-16  3.102600E-02 -3.606112E-03 -5.260288E-04 -6.039181E-01  0.000000E+00
  5.611982E-01  8.931260E-02  3.666667E-01  5.726422E-01  8.128191E-02  2.265797E-16  3.221997E-02 -3.446148E-03 -5.071166E-04 -6.488255E-01  0.000000E+00
  5.305654E-01  9.244188E-02  3.666667E-01  5.413837E-01  8.447510E-02  1.132898E-16  3.367720E-02 -3.260200E-03 -4.857869E-04 -7.002282E-01  0.000000E+00
  4.996398E-01  9.527316E-02  3.666667E-01  5.098264E-01  8.736421E-02 -1.699347E-16  3.546786E-02 -3.023430E-03 -4.612096E-04 -7.592251E-01  0.000000E+00
  4.685986E-01  9.772866E-02  3.666667E-01  4.781512E-01  8.986985E-02  1.132898E-16  3.764682E-02 -2.688646E-03 -4.328213E-04 -8.242287E-01  0.000000E+00
  4.376215E-01  9.971115E-02  3.666667E-01  4.465415E-01  9.189284E-02 -5.664491E-17  4.019615E-02 -2.205096E-03 -4.002691E-04 -8.914344E-01  0.000000E+00
  4.068895E-01  1.011270E-01  3.666667E-01  4.151818E-01  9.333764E-02 -5.664491E-17  4.299437E-02 -1.533911E-03 -3.635672E-04 -9.561524E-01  0.000000E+00
  3.765814E-01  1.019036E-01  3.666667E-01  3.842547E-01  9.413007E-02  5.664491E-17  4.583599E-02 -6.764216E-04 -3.233902E-04 -1.015740E+00  0.000000E+00
  3.468696E-01  1.020256E-01  3.666667E-01  3.539361E-01  9.425451E-02 -5.664491E-17  4.854986E-02  3.473189E-04 -2.815327E-04 -1.068948E+00  0.000000E+00
  3.179133E-01  1.014948E-01  3.666667E-01  3.243884E-01  9.371292E-02  0.000000E+00  5.107352E-02  1.526135E-03 -2.406182E-04 -1.115331E+00  0.000000E+00
  2.898519E-01  1.003300E-01  3.666667E-01  2.957538E-01  9.252432E-02  5.664491E-17  5.341472E-02  2.836539E-03 -2.028392E-04 -1.157983E+00  0.000000E+00
  2.628044E-01  9.857313E-02  3.666667E-01  2.681540E-01  9.073157E-02  5.664491E-17  5.564563E-02  4.265336E-03 -1.692666E-04 -1.200965E+00  0.000000E+00
  9.800000E-01  1.181765E-02  3.666667E-01  9.999976E-01  2.204197E-03  5.664491E-17  1.059474E-02 -1.305912E-02 -6.344404E-04 -5.700870E-02  0.000000E+00
  9.720124E-01  1.393025E-02  3.666667E-01  9.918468E-01  4.359941E-03  0.000000E+00  1.215084E-02 -3.284764E-03 -5.992050E-04  6.945805E-02  0.000000E+00
  9.632634E-01  1.625816E-02  3.666667E-01  9.829192E-01  6.735395E-03  1.132898E-16  9.196251E-03 -2.383852E-03 -5.094536E-04  2.276317E-02  0.000000E+00
  9.536907E-01  1.878982E-02  3.666667E-01  9.731510E-01  9.318769E-03 -5.664491E-17  7.355110E-03 -1.933916E-03 -4.472544E-04  4.912880E-03  0.000000E+00
  9.432303E-01  2.150949E-02  3.666667E-01  9.624768E-01  1.209399E-02 -1.699347E-16  6.955676E-03 -1.791936E-03 -4.253364E-04 -1.482427E-02  0.000000E+00
  9.318220E-01  2.442051E-02  3.666667E-01  9.508356E-01  1.506446E-02 -5.664491E-17  7.681728E-03 -1.937988E-03 -4.322553E-04 -4.046493E-02  0.000000E+00
  9.194070E-01  2.752594E-02  3.666667E-01  9.381670E-01  1.823332E-02  0.000000E+00  9.045120E-03 -2.235191E-03 -4.533484E-04 -6.799734E-02  0.000000E+00
  9.059278E-01  3.082389E-02  3.666667E-01  9.244125E-01  2.159862E-02 -1.132898E-16  1.064155E-02 -2.569448E-03 -4.785450E-04 -9.729358E-02  0.000000E+00
  8.913299E-01  3.430842E-02  3.666667E-01  9.095164E-01  2.515432E-02  0.000000E+00  1.227434E-02 -2.889702E-03 -5.029744E-04 -1.288832E-01  0.000000E+00
  8.755643E-01  3.797419E-02  3.666667E-01  8.934289E-01  2.889496E-02 -1.132898E-16  1.391603E-02 -3.188003E-03 -5.253058E-04 -1.628740E-01  0.000000E+00
  8.585885E-01  4.181045E-02  3.666667E-01  8.761063E-01  3.280957E-02  3.098477E-14  1.560586E-02 -3.466909E-03 -5.456640E-04 -1.988431E-01  0.000000E+00
  8.403666E-01  4.579490E-02  3.666667E-01  8.575123E-01  3.687539E-02  3.098477E-14  1.735441E-02 -3.720793E-03 -5.636755E-04 -2.361839E-01  0.000000E+00
  8.208730E-01  4.989793E-02  3.666667E-01  8.376206E-01  4.106223E-02 -5.664491E-17  1.912797E-02 -3.938016E-03 -5.783093E-04 -2.745679E-01  0.000000E+00
  8.000947E-01  5.408693E-02  3.666667E-01  8.164179E-01  4.533679E-02 -5.664491E-17  2.088648E-02 -4.107137E-03 -5.888096E-04 -3.137168E-01  0.000000E+00
  7.780326E-01  5.832263E-02  3.666667E-01  7.939052E-01  4.965900E-02 -1.132898E-16  2.259606E-02 -4.217919E-03 -5.948259E-04 -3.531215E-01  0.000000E+00
  7.547032E-01  6.255998E-02  3.666667E-01  7.700993E-01  5.398289E-02  3.075819E-14  2.421898E-02 -4.261469E-03 -5.961624E-04 -3.918115E-01  0.000000E+00
  7.301402E-01  6.674894E-02  3.666667E-01  7.450346E-01  5.825741E-02 -5.664491E-17  2.570790E-02 -4.235154E-03 -5.927661E-04 -4.285404E-01  0.000000E+00
  2.444131E-01 -2.776675E-03  3.666667E-01  2.493870E-01 -1.268820E-02  3.092812E-14  2.812919E-02  1.252956E-03  1.532594E-04  1.655514E-01  0.000000E+00
  2.700250E-01 -1.641218E-03  3.666667E-01  2.755220E-01 -1.152956E-02  5.664491E-17  2.839687E-02  1.237321E-03  1.640475E-04  1.636371E-01  0.000000E+00
  2.967058E-01 -5.009737E-04  3.666667E-01  3.027478E-01 -1.036602E-02 -5.664491E-17  2.879309E-02  1.266679E-03  1.776230E-04  1.555109E-01  0.000000E+00
  3.243554E-01  7.471846E-04  3.666667E-01  3.309620E-01 -9.092373E-03  3.070154E-14  2.895772E-02  1.419946E-03  1.939830E-04  1.423816E-01  0.000000E+00
  3.528511E-01  2.253746E-03  3.666667E-01  3.600398E-01 -7.555042E-03 -5.664491E-17  2.848782E-02  1.717617E-03  2.122935E-04  1.305460E-01  0.000000E+00
  3.820469E-01  4.235786E-03  3.666667E-01  3.898318E-01 -5.532520E-03 -1.132898E-16  2.712368E-02  2.110141E-03  2.308203E-04  1.277799E-01  0.000000E+00
  4.117740E-01  6.862798E-03  3.666667E-01  4.201661E-01 -2.851854E-03  1.132898E-16  2.494180E-02  2.478459E-03  2.475281E-04  1.411629E-01  0.000000E+00
  4.418498E-01  1.021190E-02  3.666667E-01  4.508561E-01  5.656489E-04 -1.699347E-16  2.238237E-02  2.683113E-03  2.611412E-04  1.710012E-01  0.000000E+00
  4.721105E-01  1.413288E-02  3.666667E-01  4.817349E-01  4.566713E-03 -1.132898E-16  2.022239E-02  2.522674E-03  2.727866E-04  2.228820E-01  0.000000E+00
  5.024968E-01  1.776304E-02  3.666667E-01  5.127418E-01  8.271010E-03  5.664491E-17  1.892559E-02  2.080663E-03  2.839711E-04  2.777906E-01  0.000000E+00
  5.328693E-01  2.077748E-02  3.666667E-01  5.437346E-01  1.134702E-02 -2.265797E-16  1.828494E-02  1.677898E-03  2.951592E-04  3.044916E-01  0.000000E+00
  5.630297E-01  2.330489E-02  3.666667E-01  5.745111E-01  1.392605E-02  1.132898E-16  1.793700E-02  1.406797E-03  3.069121E-04  3.114679E-01  0.000000E+00
  5.927917E-01  2.547722E-02  3.666667E-01  6.048809E-01  1.614275E-02  0.000000E+00  1.760724E-02  1.229371E-03  3.187246E-04  3.169832E-01  0.000000E+00
  6.219828E-01  2.741850E-02  3.666667E-01  6.346683E-01  1.812368E-02  5.664491E-17  1.715383E-02  1.096245E-03  3.293527E-04  3.263784E-01  0.000000E+00
  6.504533E-01  2.915883E-02  3.666667E-01  6.637202E-01  1.989955E-02 -1.132898E-16  1.659337E-02  9.476305E-04  3.383707E-04  3.401139E-01  0.000000E+00
  6.780742E-01  3.061849E-02  3.666667E-01  6.919052E-01  2.138903E-02  3.092812E-14  1.603580E-02  7.515055E-04  3.462095E-04  3.561981E-01  0.000000E+00
  7.047326E-01  3.169941E-02  3.666667E-01  7.191081E-01  2.249202E-02 -5.664491E-17  1.559875E-02  5.136777E-04  3.535545E-04  3.709555E-01  0.000000E+00
  1.215943E-04  9.319777E-03  3.666667E-01  1.060954E-04 -3.446931E-04 -2.265797E-16 -4.442314E-02  7.928689E-02  2.165800E-04  7.561716E-01  0.000000E+00
  4.902502E-03  3.650695E-03  3.666667E-01  4.984648E-03 -6.129561E-03  5.664491E-17 -1.611481E-02  1.894576E-02  1.687567E-04  9.360152E-01  0.000000E+00
  1.254908E-02  8.271412E-06  3.666667E-01  1.278740E-02 -9.846378E-03  2.265797E-16  8.274340E-03 -2.216125E-03  1.248151E-04  5.389544E-01  0.000000E+00
  2.163699E-02 -2.382143E-03  3.666667E-01  2.206093E-02 -1.228561E-02  5.664491E-17  2.190060E-02 -4.524532E-03  1.060465E-04  3.379563E-01  0.000000E+00
  3.184423E-02 -4.061230E-03  3.666667E-01  3.247663E-02 -1.399899E-02  0.000000E+00  2.763039E-02 -3.637131E-03  1.037185E-04  3.046913E-01  0.000000E+00
  4.311596E-02 -5.239250E-03  3.666667E-01  4.397858E-02 -1.520107E-02 -1.132898E-16  2.983723E-02 -2.412749E-03  1.055345E-04  2.698173E-01  0.000000E+00
  5.546913E-02 -5.959524E-03  3.666667E-01  5.658405E-02 -1.593606E-02 -5.664491E-17  3.051126E-02 -1.433080E-03  1.080748E-04  2.374411E-01  0.000000E+00
  6.891473E-02 -6.435900E-03  3.666667E-01  7.030426E-02 -1.642217E-02  1.699347E-16  3.075260E-02 -8.983790E-04  1.109595E-04  2.255991E-01  0.000000E+00
  8.348882E-02 -6.775206E-03  3.666667E-01  8.517602E-02 -1.676840E-02  2.832246E-16  3.088084E-02 -5.476981E-04  1.138416E-04  2.136832E-01  0.000000E+00
  9.923792E-02 -6.971571E-03  3.666667E-01  1.012468E-01 -1.696878E-02 -1.132898E-16  3.085327E-02 -1.881332E-04  1.167962E-04  1.948700E-01  0.000000E+00
  1.162051E-01 -6.967515E-03  3.666667E-01  1.185605E-01 -1.696464E-02  5.664491E-17  3.063235E-02  1.807279E-04  1.200969E-04  1.780795E-01  0.000000E+00
  1.344203E-01 -6.755801E-03  3.666667E-01  1.371477E-01 -1.674860E-02  0.000000E+00  3.024168E-02  5.034132E-04  1.238368E-04  1.688128E-01  0.000000E+00
  1.539027E-01 -6.333916E-03  3.666667E-01  1.570281E-01 -1.631810E-02  3.064490E-14  2.970181E-02  7.810627E-04  1.279733E-04  1.638046E-01  0.000000E+00
  1.746592E-01 -5.691392E-03  3.666667E-01  1.782084E-01 -1.566245E-02  3.109806E-14  2.908959E-02  1.000474E-03  1.326456E-04  1.618769E-01  0.000000E+00
  1.966815E-01 -4.857466E-03  3.666667E-01  2.006805E-01 -1.481149E-02 -1.132898E-16  2.853870E-02  1.145694E-03  1.381430E-04  1.630402E-01  0.000000E+00
  2.199461E-01 -3.871032E-03  3.666667E-01  2.244203E-01 -1.380491E-02 -1.699347E-16  2.818186E-02  1.228339E-03  1.448341E-04  1.648551E-01  0.000000E+00
  2.444131E-01 -2.776675E-03  3.666667E-01  2.493870E-01 -1.268820E-02  3.092812E-14  2.812919E-02  1.252956E-03  1.532594E-04  1.655514E-01  0.000000E+00
  7.047326E-01  3.169941E-02  3.666667E-01  7.191081E-01  2.249202E-02 -5.664491E-17  1.559875E-02  5.136777E-04  3.535545E-04  3.709555E-01  0.000000E+00