 Title = "ADflow Slice Data"
Variables =  "CoordinateX"  "CoordinateY"  "CoordinateZ"  "XoC"  "YoC"  "ZoC" "VelocityX" "VelocityY" "VelocityZ" "CoefPressure" "Mach" 
Zone T= "Slice_0001 None Relative Regular z = 0.10000000"
 Nodes =          114  Elements=          106  ZONETYPE=FELINESEG
 DATAPACKING=POINT
  7.301402E-01  6.671563E-02  1.000000E-01  7.450350E-01  5.820029E-02  1.416124E-17  2.513407E-02 -4.219327E-03 -1.328460E-04 -4.287392E-01  0.000000E+00
  7.043967E-01  7.089526E-02  1.000000E-01  7.187657E-01  6.246529E-02 -4.248371E-17  2.650059E-02 -4.162150E-03 -1.287994E-04 -4.651041E-01  0.000000E+00
  6.775455E-01  7.496533E-02  1.000000E-01  6.913661E-01  6.661849E-02  3.965146E-16  2.771965E-02 -4.063699E-03 -1.257173E-04 -5.002458E-01  0.000000E+00
  6.496792E-01  7.890511E-02  1.000000E-01  6.629306E-01  7.063874E-02  4.248371E-17  2.882258E-02 -3.947659E-03 -1.243641E-04 -5.367166E-01  0.000000E+00
  6.209097E-01  8.271155E-02  1.000000E-01  6.335735E-01  7.452293E-02 -2.832247E-17  2.989733E-02 -3.821237E-03 -1.252098E-04 -5.761453E-01  0.000000E+00
  5.913667E-01  8.635029E-02  1.000000E-01  6.034271E-01  7.823599E-02 -2.832247E-17  3.104948E-02 -3.676214E-03 -1.281923E-04 -6.187903E-01  0.000000E+00
  5.611982E-01  8.977672E-02  1.000000E-01  5.726425E-01  8.173240E-02  0.000000E+00  3.236129E-02 -3.506350E-03 -1.326820E-04 -6.655294E-01  0.000000E+00
  5.305654E-01  9.293681E-02  1.000000E-01  5.413839E-01  8.495703E-02 -5.664494E-17  3.389958E-02 -3.303346E-03 -1.376813E-04 -7.180698E-01  0.000000E+00
  4.996398E-01  9.577725E-02  1.000000E-01  5.098267E-01  8.785548E-02  0.000000E+00  3.573222E-02 -3.044193E-03 -1.420630E-04 -7.774999E-01  0.000000E+00
  4.685986E-01  9.822259E-02  1.000000E-01  4.781515E-01  9.035076E-02  1.416124E-17  3.791450E-02 -2.684086E-03 -1.447507E-04 -8.422353E-01  0.000000E+00
  4.376215E-01  1.001795E-01  1.000000E-01  4.465418E-01  9.234763E-02 -8.496742E-17  4.043070E-02 -2.175156E-03 -1.447515E-04 -9.085153E-01  0.000000E+00
  4.068895E-01  1.015590E-01  1.000000E-01  4.151821E-01  9.375532E-02  0.000000E+00  4.316511E-02 -1.481939E-03 -1.413020E-04 -9.717716E-01  0.000000E+00
  3.765814E-01  1.022932E-01  1.000000E-01  3.842549E-01  9.450451E-02 -5.664494E-17  4.592171E-02 -6.090253E-04 -1.340981E-04 -1.029558E+00  0.000000E+00
  3.468696E-01  1.023709E-01  1.000000E-01  3.539363E-01  9.458382E-02 -5.664494E-17  4.854041E-02  4.218003E-04 -1.236549E-04 -1.080834E+00  0.000000E+00
  3.179133E-01  1.017971E-01  1.000000E-01  3.243886E-01  9.399827E-02 -2.832247E-17  5.096923E-02  1.599619E-03 -1.112466E-04 -1.125322E+00  0.000000E+00
  2.898519E-01  1.005921E-01  1.000000E-01  2.957540E-01  9.276868E-02 -4.248371E-17  5.322333E-02  2.902295E-03 -9.821746E-05 -1.166223E+00  0.000000E+00
  2.628044E-01  9.879896E-02  1.000000E-01  2.681541E-01  9.093891E-02  0.000000E+00  5.537848E-02  4.318349E-03 -8.551556E-05 -1.207638E+00  0.000000E+00
  9.800000E-01  1.158549E-02  1.000000E-01  9.999981E-01  1.944142E-03 -2.832247E-17  1.056452E-02 -1.311739E-02 -1.769212E-04 -5.549708E-02  0.000000E+00
  9.720124E-01  1.369719E-02  1.000000E-01  9.918474E-01  4.098976E-03 -2.832247E-17  1.212672E-02 -3.278354E-03 -1.705834E-04  7.001332E-02  0.000000E+00
  9.632634E-01  1.602404E-02  1.000000E-01  9.829197E-01  6.473343E-03 -2.832247E-17  9.122847E-03 -2.364474E-03 -1.449922E-04  2.329203E-02  0.000000E+00
  9.536907E-01  1.855432E-02  1.000000E-01  9.731515E-01  9.055305E-03 -2.832247E-17  7.234565E-03 -1.902413E-03 -1.271457E-04  5.519770E-03  0.000000E+00
  9.432303E-01  2.127221E-02  1.000000E-01  9.624774E-01  1.182871E-02  1.416124E-17  6.800910E-03 -1.752143E-03 -1.205584E-04 -1.409357E-02  0.000000E+00
  9.318220E-01  2.418121E-02  1.000000E-01  9.508361E-01  1.479713E-02  1.416124E-17  7.499955E-03 -1.892174E-03 -1.218208E-04 -3.959634E-02  0.000000E+00
  9.194070E-01  2.728467E-02  1.000000E-01  9.381675E-01  1.796397E-02 -8.496742E-17  8.839147E-03 -2.184611E-03 -1.267289E-04 -6.696244E-02  0.000000E+00
  9.059278E-01  3.058109E-02  1.000000E-01  9.244130E-01  2.132772E-02 -5.664494E-17  1.040968E-02 -2.514522E-03 -1.323701E-04 -9.604380E-02  0.000000E+00
  8.913299E-01  3.406517E-02  1.000000E-01  9.095169E-01  2.488296E-02  0.000000E+00  1.200716E-02 -2.829340E-03 -1.372622E-04 -1.273775E-01  0.000000E+00
  8.755643E-01  3.773246E-02  1.000000E-01  8.934294E-01  2.862516E-02 -2.832247E-17  1.359714E-02 -3.119999E-03 -1.409300E-04 -1.610898E-01  0.000000E+00
  8.585885E-01  4.157341E-02  1.000000E-01  8.761068E-01  3.254455E-02  4.106758E-16  1.522259E-02 -3.390714E-03 -1.434172E-04 -1.967780E-01  0.000000E+00
  8.403666E-01  4.556725E-02  1.000000E-01  8.575127E-01  3.661996E-02  3.965146E-16  1.690817E-02 -3.639748E-03 -1.447474E-04 -2.338753E-01  0.000000E+00
  8.208730E-01  4.968632E-02  1.000000E-01  8.376210E-01  4.082317E-02 -8.496742E-17  1.862842E-02 -3.857722E-03 -1.447601E-04 -2.721149E-01  0.000000E+00
  8.000947E-01  5.390031E-02  1.000000E-01  8.164184E-01  4.512323E-02 -2.832247E-17  2.034318E-02 -4.033386E-03 -1.433686E-04 -3.113020E-01  0.000000E+00
  7.780326E-01  5.817250E-02  1.000000E-01  7.939056E-01  4.948267E-02 -2.832247E-17  2.202037E-02 -4.156795E-03 -1.406934E-04 -3.510372E-01  0.000000E+00
  7.547032E-01  6.246033E-02  1.000000E-01  7.700997E-01  5.385808E-02  4.389983E-16  2.362951E-02 -4.219705E-03 -1.370314E-04 -3.905154E-01  0.000000E+00
  7.301402E-01  6.671563E-02  1.000000E-01  7.450350E-01  5.820029E-02  2.832247E-17  2.513407E-02 -4.219327E-03 -1.328460E-04 -4.287392E-01  0.000000E+00
  2.444131E-01 -2.571925E-03  1.000000E-01  2.493871E-01 -1.250243E-02  3.681921E-16  2.780805E-02  1.272790E-03  6.068527E-05  1.679911E-01  0.000000E+00
  2.700250E-01 -1.405298E-03  1.000000E-01  2.755222E-01 -1.131198E-02 -4.248371E-17  2.804975E-02  1.259080E-03  6.485781E-05  1.665517E-01  0.000000E+00
  2.967058E-01 -2.305918E-04  1.000000E-01  3.027479E-01 -1.011328E-02 -2.832247E-17  2.841258E-02  1.289327E-03  6.960387E-05  1.590068E-01  0.000000E+00
  3.243554E-01  1.054735E-03  1.000000E-01  3.309622E-01 -8.801699E-03  4.248371E-16  2.854259E-02  1.440369E-03  7.457353E-05  1.465809E-01  0.000000E+00
  3.528511E-01  2.600006E-03  1.000000E-01  3.600400E-01 -7.224867E-03 -4.248371E-17  2.804447E-02  1.730860E-03  7.911263E-05  1.355487E-01  0.000000E+00
  3.820469E-01  4.620446E-03  1.000000E-01  3.898320E-01 -5.163160E-03  5.664494E-17  2.666251E-02  2.110455E-03  8.238920E-05  1.336090E-01  0.000000E+00
  4.117740E-01  7.283062E-03  1.000000E-01  4.201663E-01 -2.446161E-03 -5.664494E-17  2.447384E-02  2.461509E-03  8.377616E-05  1.477288E-01  0.000000E+00
  4.418498E-01  1.066191E-02  1.000000E-01  4.508564E-01  1.001698E-03 -2.832247E-17  2.191810E-02  2.648458E-03  8.323197E-05  1.781087E-01  0.000000E+00
  4.721105E-01  1.460329E-02  1.000000E-01  4.817352E-01  5.023583E-03 -5.664494E-17  1.976560E-02  2.477541E-03  8.176723E-05  2.302049E-01  0.000000E+00
  5.024968E-01  1.824070E-02  1.000000E-01  5.127421E-01  8.735277E-03  1.416124E-17  1.847678E-02  2.033229E-03  8.013517E-05  2.850655E-01  0.000000E+00
  5.328693E-01  2.124581E-02  1.000000E-01  5.437349E-01  1.180177E-02 -4.248371E-17  1.785187E-02  1.629102E-03  7.831622E-05  3.116828E-01  0.000000E+00
  5.630297E-01  2.374513E-02  1.000000E-01  5.745114E-01  1.435213E-02  1.416124E-17  1.753496E-02  1.354603E-03  7.660238E-05  3.185272E-01  0.000000E+00
  5.927917E-01  2.586981E-02  1.000000E-01  6.048812E-01  1.652021E-02  5.664494E-17  1.725536E-02  1.172496E-03  7.526352E-05  3.236726E-01  0.000000E+00
  6.219828E-01  2.774459E-02  1.000000E-01  6.346686E-01  1.843329E-02 -4.248371E-17  1.687009E-02  1.034906E-03  7.441531E-05  3.323672E-01  0.000000E+00
  6.504533E-01  2.940147E-02  1.000000E-01  6.637205E-01  2.012400E-02  5.664494E-17  1.638775E-02  8.844239E-04  7.429133E-05  3.450676E-01  0.000000E+00
  6.780742E-01  3.076766E-02  1.000000E-01  6.919056E-01  2.151810E-02  4.531595E-16  1.590573E-02  6.908313E-04  7.509621E-05  3.598325E-01  0.000000E+00
  7.047326E-01  3.175623E-02  1.000000E-01  7.191085E-01  2.252686E-02  0.000000E+00  1.553118E-02  4.588826E-04  7.682914E-05  3.732562E-01  0.000000E+00
  1.215943E-04  9.342497E-03  1.000000E-01  1.060954E-04 -3.446628E-04 -5.664494E-17 -4.424665E-02  7.893392E-02  7.192422E-05  7.591262E-01  0.000000E+00
  4.902502E-03  3.675019E-03  1.000000E-01  4.984651E-03 -6.127897E-03 -8.496742E-17 -1.598615E-02  1.882038E-02  5.700574E-05  9.354324E-01  0.000000E+00
  1.254908E-02  3.541583E-05  1.000000E-01  1.278741E-02 -9.841837E-03 -2.832247E-17  8.285930E-03 -2.225741E-03  4.320667E-05  5.380844E-01  0.000000E+00
  2.163699E-02 -2.351382E-03  1.000000E-01  2.206094E-02 -1.227738E-02  1.416124E-17  2.176932E-02 -4.489594E-03  3.756768E-05  3.376340E-01  0.000000E+00
  3.184423E-02 -4.026098E-03  1.000000E-01  3.247665E-02 -1.398631E-02 -2.832247E-17  2.739959E-02 -3.594333E-03  3.730341E-05  3.044807E-01  0.000000E+00
  4.311596E-02 -5.198919E-03  1.000000E-01  4.397860E-02 -1.518308E-02 -8.496742E-17  2.955575E-02 -2.375259E-03  3.836749E-05  2.696909E-01  0.000000E+00
  5.546913E-02 -5.913050E-03  1.000000E-01  5.658408E-02 -1.591180E-02  1.416124E-17  3.021091E-02 -1.402599E-03  3.969081E-05  2.374821E-01  0.000000E+00
  6.891473E-02 -6.382203E-03  1.000000E-01  7.030430E-02 -1.639053E-02 -8.496742E-17  3.044649E-02 -8.715497E-04  4.116287E-05  2.258200E-01  0.000000E+00
  8.348882E-02 -6.713033E-03  1.000000E-01  8.517606E-02 -1.672812E-02  5.664494E-17  3.057267E-02 -5.228279E-04  4.264549E-05  2.140646E-01  0.000000E+00
  9.923792E-02 -6.899464E-03  1.000000E-01  1.012468E-01 -1.691836E-02 -9.912865E-17  3.054470E-02 -1.652763E-04  4.416046E-05  1.954172E-01  0.000000E+00
  1.162051E-01 -6.883780E-03  1.000000E-01  1.185605E-01 -1.690235E-02 -8.496742E-17  3.032518E-02  2.015195E-04  4.581108E-05  1.788166E-01  0.000000E+00
  1.344203E-01 -6.658487E-03  1.000000E-01  1.371478E-01 -1.667246E-02 -8.496742E-17  2.993768E-02  5.226295E-04  4.763206E-05  1.697590E-01  0.000000E+00
  1.539027E-01 -6.220787E-03  1.000000E-01  1.570281E-01 -1.622582E-02  4.389983E-16  2.940213E-02  7.991345E-04  4.960375E-05  1.649767E-01  0.000000E+00
  1.746592E-01 -5.559908E-03  1.000000E-01  1.782085E-01 -1.555144E-02  3.257084E-16  2.879326E-02  1.017957E-03  5.178035E-05  1.633007E-01  0.000000E+00
  1.966815E-01 -4.704775E-03  1.000000E-01  2.006806E-01 -1.467884E-02 -2.832247E-17  2.824159E-02  1.163312E-03  5.426977E-05  1.647511E-01  0.000000E+00
  2.199461E-01 -3.693995E-03  1.000000E-01  2.244204E-01 -1.364742E-02 -4.248371E-17  2.787711E-02  1.246725E-03  5.718955E-05  1.668998E-01  0.000000E+00
  2.444131E-01 -2.571925E-03  1.000000E-01  2.493871E-01 -1.250243E-02  3.823534E-16  2.780805E-02  1.272790E-03  6.068527E-05  1.679911E-01  0.000000E+00
  7.047326E-01  3.175623E-02  1.000000E-01  7.191085E-01  2.252686E-02 -2.832247E-17  1.553118E-02  4.588826E-04  7.682914E-05  3.732562E-01  0.000000E+00
  7.303325E-01  3.231237E-02  1.000000E-01  7.452312E-01  2.309436E-02 -2.832247E-17  1.535212E-02  2.003449E-04  7.936072E-05  3.832157E-01  0.000000E+00
  7.547951E-01  3.241606E-02  1.000000E-01  7.701935E-01  2.320017E-02  4.389983E-16  1.544390E-02 -8.851039E-05  8.258133E-05  3.895518E-01  0.000000E+00
  7.780600E-01  3.205202E-02  1.000000E-01  7.939336E-01  2.282869E-02  1.416124E-17  1.586366E-02 -4.221887E-04  8.642371E-05  3.919588E-01  0.000000E+00
  8.000833E-01  3.123072E-02  1.000000E-01  8.164067E-01  2.199062E-02 -4.248371E-17  1.662595E-02 -8.142214E-04  9.081854E-05  3.896798E-01  0.000000E+00
  8.208376E-01  2.998225E-02  1.000000E-01  8.375849E-01  2.071665E-02 -2.832247E-17  1.766615E-02 -1.247730E-03  9.558227E-05  3.816169E-01  0.000000E+00
  8.403144E-01  2.841174E-02  1.000000E-01  8.574595E-01  1.911406E-02  4.389983E-16  1.882492E-02 -1.656800E-03  1.003417E-04  3.669182E-01  0.000000E+00
  8.585258E-01  2.667948E-02  1.000000E-01  8.760428E-01  1.734642E-02  3.965146E-16  1.990631E-02 -1.974756E-03  1.046411E-04  3.480867E-01  0.000000E+00
  8.754993E-01  2.492707E-02  1.000000E-01  8.933630E-01  1.555822E-02 -2.832247E-17  2.076650E-02 -2.184471E-03  1.080457E-04  3.293717E-01  0.000000E+00
  8.912718E-01  2.323605E-02  1.000000E-01  9.094577E-01  1.383266E-02 -2.832247E-17  2.139099E-02 -2.344933E-03  1.103084E-04  3.144801E-01  0.000000E+00
  9.058836E-01  2.159801E-02  1.000000E-01  9.243679E-01  1.216116E-02 -4.248371E-17  2.190612E-02 -2.542615E-03  1.115411E-04  3.040130E-01  0.000000E+00
  9.193796E-01  1.997581E-02  1.000000E-01  9.381396E-01  1.050583E-02 -5.664494E-17  2.250544E-02 -2.805288E-03  1.123500E-04  2.932610E-01  0.000000E+00
  9.318118E-01  1.836896E-02  1.000000E-01  9.508257E-01  8.866161E-03  4.248371E-17  2.339288E-02 -3.148634E-03  1.139882E-04  2.795198E-01  0.000000E+00
  9.432349E-01  1.677117E-02  1.000000E-01  9.624821E-01  7.235734E-03 -2.832247E-17  2.460960E-02 -3.588937E-03  1.173975E-04  2.633332E-01  0.000000E+00
  9.537058E-01  1.518150E-02  1.000000E-01  9.731669E-01  5.613597E-03  0.000000E+00  2.552185E-02 -4.027952E-03  1.204993E-04  2.391634E-01  0.000000E+00
  9.632829E-01  1.360381E-02  1.000000E-01  9.829396E-01  4.003681E-03 -2.832247E-17  2.454127E-02 -4.218812E-03  1.164641E-04  2.048915E-01  0.000000E+00
  9.720275E-01  1.207055E-02  1.000000E-01  9.918628E-01  2.439110E-03  0.000000E+00  2.087375E-02 -3.680576E-03  1.000985E-04  2.028570E-01  0.000000E+00
  9.800000E-01  1.060371E-02  1.000000E-01  9.999981E-01  9.423136E-04  1.416124E-17  1.385157E-02  4.358161E-03  5.879450E-05 -9.847937E-03  0.000000E+00
  1.215943E-04  1.002318E-02  1.000000E-01  1.060954E-04  3.499215E-04 -9.912865E-17  2.285974E-02  5.314906E-02  3.222429E-05  4.699324E-01  0.000000E+00
  7.278129E-05  9.908517E-03  1.000000E-01  5.628537E-05  2.329182E-04  1.416124E-17  1.556511E-02  7.601283E-02  4.673749E-05  3.124370E-01  0.000000E+00
  1.762252E-05  9.680261E-03  1.000000E-01  0.000000E+00  0.000000E+00  0.000000E+00 -1.174429E-02  1.205473E-01  6.903597E-05  3.535269E-01  0.000000E+00
  8.694958E-05  9.455091E-03  1.000000E-01  7.074303E-05 -2.297691E-04  0.000000E+00 -4.979161E-02  1.293786E-01  7.896635E-05  4.023429E-01  0.000000E+00
  1.215943E-04  9.342497E-03  1.000000E-01  1.060954E-04 -3.446628E-04 -4.248371E-17 -4.424665E-02  7.893392E-02  7.192422E-05  7.591262E-01  0.000000E+00
  9.800000E-01  1.060371E-02  1.000000E-01  9.999981E-01  9.423136E-04  0.000000E+00  1.385157E-02  4.358161E-03  5.879450E-05 -9.847937E-03  0.000000E+00
  9.800000E-01  1.076734E-02  1.000000E-01  9.999981E-01  1.109285E-03  0.000000E+00  4.459220E-03 -1.604270E-03 -1.644112E-05 -2.101164E-01  0.000000E+00
  9.800000E-01  1.109460E-02  1.000000E-01  9.999981E-01  1.443228E-03 -2.832247E-17 -4.447833E-04 -1.600758E-02 -9.802121E-05 -1.743923E-01  0.000000E+00
  9.800000E-01  1.142186E-02  1.000000E-01  9.999981E-01  1.777171E-03 -5.664494E-17  3.399259E-03 -1.964170E-02 -1.519662E-04 -1.926783E-01  0.000000E+00
  9.800000E-01  1.158549E-02  1.000000E-01  9.999981E-01  1.944142E-03  0.000000E+00  1.056452E-02 -1.311739E-02 -1.769212E-04 -5.549708E-02  0.000000E+00
  2.628044E-01  9.879896E-02  1.000000E-01  2.681541E-01  9.093891E-02 -2.832247E-17  5.537848E-02  4.318349E-03 -8.551556E-05 -1.207638E+00  0.000000E+00
  2.368706E-01  9.646730E-02  1.000000E-01  2.416906E-01  8.855963E-02  3.681921E-16  5.758833E-02  5.932574E-03 -7.373995E-05 -1.246576E+00  0.000000E+00
  2.121362E-01  9.358984E-02  1.000000E-01  2.164510E-01  8.562340E-02  1.416124E-17  5.987845E-02  7.820336E-03 -6.312505E-05 -1.276238E+00  0.000000E+00
  1.886687E-01  9.018432E-02  1.000000E-01  1.925042E-01  8.214832E-02 -4.248371E-17  6.206857E-02  9.959728E-03 -5.362289E-05 -1.291749E+00  0.000000E+00
  1.665185E-01  8.628295E-02  1.000000E-01  1.699015E-01  7.816726E-02  4.814820E-16  6.393042E-02  1.228423E-02 -4.515424E-05 -1.290645E+00  0.000000E+00
  1.457161E-01  8.194269E-02  1.000000E-01  1.486743E-01  7.373835E-02  4.531595E-16  6.531117E-02  1.472031E-02 -3.764353E-05 -1.274490E+00  0.000000E+00
  1.262764E-01  7.722327E-02  1.000000E-01  1.288376E-01  6.892255E-02  0.000000E+00  6.619373E-02  1.723159E-02 -3.097945E-05 -1.248460E+00  0.000000E+00
  1.081990E-01  7.218443E-02  1.000000E-01  1.103909E-01  6.378079E-02  0.000000E+00  6.661440E-02  1.979444E-02 -2.495578E-05 -1.219649E+00  0.000000E+00
  9.146971E-02  6.688853E-02  1.000000E-01  9.331996E-02  5.837672E-02  0.000000E+00  6.668184E-02  2.256338E-02 -1.940855E-05 -1.183285E+00  0.000000E+00
  7.608258E-02  6.133123E-02  1.000000E-01  7.761855E-02  5.270592E-02  0.000000E+00  6.635384E-02  2.570955E-02 -1.428564E-05 -1.121072E+00  0.000000E+00
  6.202881E-02  5.550187E-02  1.000000E-01  6.327774E-02  4.675750E-02 -5.664494E-17  6.529396E-02  2.909404E-02 -9.603210E-06 -1.015829E+00  0.000000E+00
  4.929579E-02  4.941732E-02  1.000000E-01  5.028465E-02  4.054867E-02 -8.496742E-17  6.314571E-02  3.216891E-02 -5.359372E-06 -8.724882E-01  0.000000E+00
  3.782553E-02  4.318829E-02  1.000000E-01  3.858012E-02  3.419241E-02  4.248371E-17  6.004236E-02  3.471504E-02 -1.470289E-06 -7.176950E-01  0.000000E+00
  2.757469E-02  3.686858E-02  1.000000E-01  2.811991E-02  2.774363E-02 -2.832247E-17  5.648067E-02  3.696753E-02  2.440255E-06 -5.991270E-01  0.000000E+00
  1.848362E-02  3.053490E-02  1.000000E-01  1.884316E-02  2.128059E-02  5.664494E-17  5.313037E-02  4.036923E-02  7.259690E-06 -5.012703E-01  0.000000E+00
  1.064273E-02  2.406133E-02  1.000000E-01  1.084212E-02  1.467480E-02  1.416124E-17  4.935174E-02  4.654992E-02  1.435003E-05 -2.613910E-01  0.000000E+00
  4.262692E-03  1.729791E-02  1.000000E-01  4.331773E-03  7.773232E-03  1.416124E-17  4.001448E-02  5.378602E-02  2.386343E-05  2.517098E-01  0.000000E+00
  1.215943E-04  1.002318E-02  1.000000E-01  1.060954E-04  3.499215E-04 -8.496742E-17  2.285974E-02  5.314906E-02  3.222429E-05  4.699324E-01  0.000000E+00
    1    2
    2    3
    3    4
    4    5
    5    6
    6    7
    7    8
    8    9
    9   10
   10   11
   11   12
   12   13
   13   14
   14   15
   15   16
   16   17
   18   19
   19   20
   20   21
   21   22
   22   23
   23   24
   24   25
   25   26
   26   27
   27   28
   28   29
   29   30
   30   31
   31   32
   32   33
   33   34
   35   36
   36   37
   37   38
   38   39
   39   40
   40   41
   41   42
   42   43
   43   44
   44   45
   45   46
   46   47
   47   48
   48   49
   49   50
   50   51
   52   53
   53   54
   54   55
   55   56
   56   57
   57   58
   58   59
   59   60
   60   61
   61   62
   62   63
   63   64
   64   65
   65   66
   66   67
   67   68
   69   70
   70   71
   71   72
   72   73
   73   74
   74   75
   75   76
   76   77
   77   78
   78   79
   79   80
   80   81
   81   82
   82   83
   83   84
   84   85
   85   86
   87   88
   88   89
   89   90
   90   91
   92   93
   93   94
   94   95
   95   96
   97   98
   98   99
   99  100
  100  101
  101  102
  102  103
  103  104
  104  105
  105  106
  106  107
  107  108
  108  109
  109  110
  110  111
  111  112
  112  113
  113  114
Zone T= "Slice_0002 None Relative Regular z = 0.36666667"
 Nodes =          114  Elements=          106  ZONETYPE=FELINESEG
 DATAPACKING=POINT
  7.301402E-01  6.669265E-02  3.666667E-01  7.450352E-01  5.820639E-02 -5.664496E-17  2.517018E-02 -4.258792E-03 -4.697563E-04 -4.249626E-01  0.000000E+00
  7.043967E-01  7.091023E-02  3.666667E-01  7.187658E-01  6.251011E-02 -1.132899E-16  2.658072E-02 -4.209964E-03 -4.568891E-04 -4.621185E-01  0.000000E+00
  6.775455E-01  7.501778E-02  3.666667E-01  6.913662E-01  6.670156E-02  3.058828E-14  2.786029E-02 -4.117140E-03 -4.455012E-04 -4.982439E-01  0.000000E+00
  6.496792E-01  7.898929E-02  3.666667E-01  6.629308E-01  7.075418E-02 -1.699349E-16  2.903494E-02 -4.001068E-03 -4.377520E-04 -5.355271E-01  0.000000E+00
  6.209097E-01  8.281462E-02  3.666667E-01  6.335737E-01  7.465764E-02  0.000000E+00  3.018150E-02 -3.868077E-03 -4.350225E-04 -5.752953E-01  0.000000E+00
  5.913667E-01  8.645587E-02  3.666667E-01  6.034273E-01  7.837327E-02  1.132899E-16  3.139297E-02 -3.711758E-03 -4.372281E-04 -6.177626E-01  0.000000E+00
  5.611982E-01  8.986893E-02  3.666667E-01  5.726426E-01  8.185604E-02  2.265798E-16  3.274484E-02 -3.527812E-03 -4.427349E-04 -6.638159E-01  0.000000E+00
  5.305654E-01  9.300191E-02  3.666667E-01  5.413841E-01  8.505301E-02  1.132899E-16  3.430388E-02 -3.309724E-03 -4.489199E-04 -7.151827E-01  0.000000E+00
  4.996398E-01  9.580522E-02  3.666667E-01  5.098268E-01  8.791357E-02 -1.699349E-16  3.614086E-02 -3.036481E-03 -4.528386E-04 -7.730274E-01  0.000000E+00
  4.685986E-01  9.820834E-02  3.666667E-01  4.781516E-01  9.036578E-02  1.132899E-16  3.831302E-02 -2.664892E-03 -4.517214E-04 -8.358940E-01  0.000000E+00
  4.376215E-01  1.001233E-01  3.666667E-01  4.465419E-01  9.231983E-02 -5.664496E-17  4.080460E-02 -2.148472E-03 -4.430844E-04 -9.002349E-01  0.000000E+00
  4.068895E-01  1.014661E-01  3.666667E-01  4.151822E-01  9.369004E-02 -5.664496E-17  4.350234E-02 -1.453169E-03 -4.251463E-04 -9.617975E-01  0.000000E+00
  3.765814E-01  1.021726E-01  3.666667E-01  3.842550E-01  9.441100E-02  5.664496E-17  4.621927E-02 -5.845382E-04 -3.974331E-04 -1.018490E+00  0.000000E+00
  3.468696E-01  1.022341E-01  3.666667E-01  3.539364E-01  9.447376E-02 -5.664496E-17  4.880946E-02  4.376432E-04 -3.616517E-04 -1.069417E+00  0.000000E+00
  3.179133E-01  1.016546E-01  3.666667E-01  3.243887E-01  9.388247E-02  0.000000E+00  5.123239E-02  1.607571E-03 -3.214307E-04 -1.114117E+00  0.000000E+00
  2.898519E-01  1.004514E-01  3.666667E-01  2.957541E-01  9.265463E-02  5.664496E-17  5.350343E-02  2.906676E-03 -2.804588E-04 -1.155529E+00  0.000000E+00
  2.628044E-01  9.866452E-02  3.666667E-01  2.681542E-01  9.083127E-02  5.664496E-17  5.568993E-02  4.324136E-03 -2.412616E-04 -1.197582E+00  0.000000E+00
  9.800000E-01  1.144334E-02  3.666667E-01  9.999983E-01  1.828619E-03  5.664496E-17  1.056968E-02 -1.304153E-02 -6.022653E-04 -5.618785E-02  0.000000E+00
  9.720124E-01  1.354899E-02  3.666667E-01  9.918476E-01  3.977276E-03  0.000000E+00  1.215371E-02 -3.275001E-03 -5.708627E-04  7.057784E-02  0.000000E+00
  9.632634E-01  1.586996E-02  3.666667E-01  9.829199E-01  6.345652E-03  1.132899E-16  9.206781E-03 -2.379370E-03 -4.858337E-04  2.408351E-02  0.000000E+00
  9.536907E-01  1.839475E-02  3.666667E-01  9.731517E-01  8.922011E-03 -5.664496E-17  7.353445E-03 -1.928372E-03 -4.267139E-04  6.543947E-03  0.000000E+00
  9.432303E-01  2.110778E-02  3.666667E-01  9.624776E-01  1.169045E-02 -1.699349E-16  6.927591E-03 -1.780659E-03 -4.050160E-04 -1.280461E-02  0.000000E+00
  9.318220E-01  2.401283E-02  3.666667E-01  9.508363E-01  1.465484E-02 -5.664496E-17  7.618051E-03 -1.918494E-03 -4.096253E-04 -3.798700E-02  0.000000E+00
  9.194070E-01  2.711358E-02  3.666667E-01  9.381677E-01  1.781892E-02  0.000000E+00  8.940168E-03 -2.206756E-03 -4.265970E-04 -6.497977E-02  0.000000E+00
  9.059278E-01  3.040895E-02  3.666667E-01  9.244132E-01  2.118160E-02 -1.132899E-16  1.049014E-02 -2.532202E-03 -4.463179E-04 -9.366020E-02  0.000000E+00
  8.913299E-01  3.389411E-02  3.666667E-01  9.095171E-01  2.473794E-02  0.000000E+00  1.206809E-02 -2.843577E-03 -4.639841E-04 -1.245774E-01  0.000000E+00
  8.755643E-01  3.756513E-02  3.666667E-01  8.934296E-01  2.848394E-02 -1.132899E-16  1.364253E-02 -3.132579E-03 -4.781008E-04 -1.578669E-01  0.000000E+00
  8.585885E-01  4.141302E-02  3.666667E-01  8.761070E-01  3.241043E-02  3.098479E-14  1.525554E-02 -3.403207E-03 -4.887768E-04 -1.931501E-01  0.000000E+00
  8.403666E-01  4.541765E-02  3.666667E-01  8.575129E-01  3.649685E-02  3.098479E-14  1.692840E-02 -3.653011E-03 -4.959465E-04 -2.298888E-01  0.000000E+00
  8.208730E-01  4.955194E-02  3.666667E-01  8.376212E-01  4.071558E-02 -5.664496E-17  1.863573E-02 -3.872641E-03 -4.989464E-04 -2.678483E-01  0.000000E+00
  8.000947E-01  5.378610E-02  3.666667E-01  8.164185E-01  4.503622E-02 -5.664496E-17  2.034151E-02 -4.051564E-03 -4.973738E-04 -3.068692E-01  0.000000E+00
  7.780326E-01  5.808371E-02  3.666667E-01  7.939058E-01  4.942161E-02 -1.132899E-16  2.201812E-02 -4.180310E-03 -4.914431E-04 -3.465923E-01  0.000000E+00
  7.547032E-01  6.240219E-02  3.666667E-01  7.700999E-01  5.382829E-02  3.075821E-14  2.363881E-02 -4.250560E-03 -4.818525E-04 -3.862654E-01  0.000000E+00
  7.301402E-01  6.669265E-02  3.666667E-01  7.450352E-01  5.820639E-02 -5.664496E-17  2.517018E-02 -4.258792E-03 -4.697563E-04 -4.249626E-01  0.000000E+00
  2.444131E-01 -2.702348E-03  3.666667E-01  2.493872E-01 -1.260599E-02  3.092815E-14  2.808863E-02  1.275666E-03  1.822908E-04  1.642249E-01  0.000000E+00
  2.700250E-01 -1.542362E-03  3.666667E-01  2.755222E-01 -1.142231E-02  5.664496E-17  2.834544E-02  1.265084E-03  1.955264E-04  1.625638E-01  0.000000E+00
  2.967058E-01 -3.711102E-04  3.666667E-01  3.027480E-01 -1.022714E-02 -5.664496E-17  2.872178E-02  1.300252E-03  2.108283E-04  1.547825E-01  0.000000E+00
  3.243554E-01  9.158789E-04  3.666667E-01  3.309623E-01 -8.913863E-03  3.070157E-14  2.885457E-02  1.459089E-03  2.273356E-04  1.421473E-01  0.000000E+00
  3.528511E-01  2.470406E-03  3.666667E-01  3.600401E-01 -7.327585E-03 -5.664496E-17  2.834064E-02  1.759984E-03  2.432386E-04  1.310067E-01  0.000000E+00
  3.820469E-01  4.510265E-03  3.666667E-01  3.898321E-01 -5.246062E-03 -1.132899E-16  2.692437E-02  2.149787E-03  2.560845E-04  1.291943E-01  0.000000E+00
  4.117740E-01  7.202299E-03  3.666667E-01  4.201664E-01 -2.499044E-03  1.132899E-16  2.468996E-02  2.506821E-03  2.638285E-04  1.437574E-01  0.000000E+00
  4.418498E-01  1.061802E-02  3.666667E-01  4.508565E-01  9.864424E-04 -1.699349E-16  2.208576E-02  2.693631E-03  2.660057E-04  1.748085E-01  0.000000E+00
  4.721105E-01  1.460003E-02  3.666667E-01  4.817353E-01  5.049787E-03 -1.132899E-16  1.989204E-02  2.516999E-03  2.651933E-04  2.276576E-01  0.000000E+00
  5.024968E-01  1.827746E-02  3.666667E-01  5.127422E-01  8.802327E-03  5.664496E-17  1.857602E-02  2.064527E-03  2.637009E-04  2.832426E-01  0.000000E+00
  5.328693E-01  2.131716E-02  3.666667E-01  5.437350E-01  1.190412E-02 -2.265798E-16  1.793855E-02  1.652479E-03  2.619212E-04  3.104824E-01  0.000000E+00
  5.630297E-01  2.384106E-02  3.666667E-01  5.745115E-01  1.447956E-02  1.132899E-16  1.762225E-02  1.370235E-03  2.607533E-04  3.177922E-01  0.000000E+00
  5.927917E-01  2.597687E-02  3.666667E-01  6.048813E-01  1.665899E-02  0.000000E+00  1.735489E-02  1.180199E-03  2.607111E-04  3.232182E-01  0.000000E+00
  6.219828E-01  2.784736E-02  3.666667E-01  6.346687E-01  1.856768E-02  5.664496E-17  1.699134E-02  1.034662E-03  2.617930E-04  3.320038E-01  0.000000E+00
  6.504533E-01  2.948410E-02  3.666667E-01  6.637207E-01  2.023786E-02 -1.132899E-16  1.653632E-02  8.770212E-04  2.644190E-04  3.445710E-01  0.000000E+00
  6.780742E-01  3.081802E-02  3.666667E-01  6.919058E-01  2.159902E-02  3.092815E-14  1.608176E-02  6.782044E-04  2.691159E-04  3.589660E-01  0.000000E+00
  7.047326E-01  3.176922E-02  3.666667E-01  7.191087E-01  2.256965E-02 -5.664496E-17  1.573042E-02  4.428425E-04  2.759925E-04  3.719286E-01  0.000000E+00
  1.215943E-04  9.313528E-03  3.666667E-01  1.060954E-04 -3.446935E-04 -2.265798E-16 -4.315516E-02  7.702614E-02  2.204651E-04  7.643444E-01  0.000000E+00
  4.902502E-03  3.644463E-03  3.666667E-01  4.984652E-03 -6.129548E-03  5.664496E-17 -1.519508E-02  1.809955E-02  1.722139E-04  9.326478E-01  0.000000E+00
  1.254908E-02  2.137096E-06  3.666667E-01  1.278741E-02 -9.846268E-03  2.265798E-16  8.745616E-03 -2.415024E-03  1.288134E-04  5.328361E-01  0.000000E+00
  2.163699E-02 -2.388039E-03  3.666667E-01  2.206094E-02 -1.228526E-02  5.664496E-17  2.204122E-02 -4.558022E-03  1.111962E-04  3.328899E-01  0.000000E+00
  3.184423E-02 -4.066687E-03  3.666667E-01  3.247666E-02 -1.399820E-02  0.000000E+00  2.763313E-02 -3.636736E-03  1.102179E-04  3.004940E-01  0.000000E+00
  4.311596E-02 -5.243995E-03  3.666667E-01  4.397861E-02 -1.519955E-02 -1.132899E-16  2.979734E-02 -2.407299E-03  1.133267E-04  2.660871E-01  0.000000E+00
  5.546913E-02 -5.963189E-03  3.666667E-01  5.658409E-02 -1.593343E-02 -5.664496E-17  3.046189E-02 -1.427557E-03  1.171811E-04  2.340355E-01  0.000000E+00
  6.891473E-02 -6.438012E-03  3.666667E-01  7.030432E-02 -1.641796E-02  1.699349E-16  3.070431E-02 -8.927317E-04  1.214847E-04  2.225183E-01  0.000000E+00
  8.348882E-02 -6.775149E-03  3.666667E-01  8.517608E-02 -1.676198E-02  2.832248E-16  3.083678E-02 -5.415397E-04  1.258798E-04  2.108884E-01  0.000000E+00
  9.923792E-02 -6.968553E-03  3.666667E-01  1.012468E-01 -1.695933E-02 -1.132899E-16  3.081368E-02 -1.812152E-04  1.304556E-04  1.922974E-01  0.000000E+00
  1.162051E-01 -6.960514E-03  3.666667E-01  1.185606E-01 -1.695113E-02  5.664496E-17  3.059629E-02  1.886893E-04  1.355219E-04  1.756922E-01  0.000000E+00
  1.344203E-01 -6.743514E-03  3.666667E-01  1.371478E-01 -1.672970E-02  0.000000E+00  3.020802E-02  5.127518E-04  1.411779E-04  1.666008E-01  0.000000E+00
  1.539027E-01 -6.314684E-03  3.666667E-01  1.570282E-01 -1.629211E-02  3.064492E-14  2.966950E-02  7.920802E-04  1.473602E-04  1.617635E-01  0.000000E+00
  1.746592E-01 -5.663112E-03  3.666667E-01  1.782086E-01 -1.562723E-02  3.109808E-14  2.905762E-02  1.013521E-03  1.542189E-04  1.600022E-01  0.000000E+00
  1.966815E-01 -4.817476E-03  3.666667E-01  2.006807E-01 -1.476432E-02 -1.132899E-16  2.850595E-02  1.161247E-03  1.620678E-04  1.613326E-01  0.000000E+00
  2.199461E-01 -3.815979E-03  3.666667E-01  2.244205E-01 -1.374237E-02 -1.699349E-16  2.814669E-02  1.247037E-03  1.712678E-04  1.633252E-01  0.000000E+00
  2.444131E-01 -2.702348E-03  3.666667E-01  2.493872E-01 -1.260599E-02  3.092815E-14  2.808863E-02  1.275666E-03  1.822908E-04  1.642249E-01  0.000000E+00
  7.047326E-01  3.176922E-02  3.666667E-01  7.191087E-01  2.256965E-02 -5.664496E-17  1.573042E-02  4.428425E-04  2.759925E-04  3.719286E-01  0.000000E+00