 Title= "ADflow Lift Distribution Data"
Variables = "eta" "CoordinateX" "CoordinateY" "CoordinateZ" "Lift" "Drag" "Moment" "Normalized Lift" "Normalized Drag" "Normalized Moment" "CL" "CD" "CM" "CLp" "CDp" "CMp" "CLv" "CDv" "CMv" "Elliptical" "thickness" "twist" "chord" "fx" "fy" "fz" 
Zone T= "LiftDist_01 allWalls: : z normal"
 I=          150
 DATAPACKING=BLOCK
  0.000000E+00
  6.711405E-03
  1.342281E-02
  2.013422E-02
  2.684563E-02
  3.355704E-02
  4.026845E-02
  4.697986E-02
  5.369127E-02
  6.040268E-02
  6.711409E-02
  7.382550E-02
  8.053691E-02
  8.724832E-02
  9.395973E-02
  1.006711E-01
  1.073825E-01
  1.140940E-01
  1.208054E-01
  1.275168E-01
  1.342282E-01
  1.409396E-01
  1.476510E-01
  1.543624E-01
  1.610738E-01
  1.677852E-01
  1.744966E-01
  1.812081E-01
  1.879195E-01
  1.946309E-01
  2.013423E-01
  2.080537E-01
  2.147651E-01
  2.214765E-01
  2.281879E-01
  2.348993E-01
  2.416107E-01
  2.483221E-01
  2.550336E-01
  2.617450E-01
  2.684564E-01
  2.751678E-01
  2.818792E-01
  2.885906E-01
  2.953020E-01
  3.020134E-01
  3.087248E-01
  3.154362E-01
  3.221476E-01
  3.288591E-01
  3.355705E-01
  3.422819E-01
  3.489933E-01
  3.557047E-01
  3.624161E-01
  3.691275E-01
  3.758389E-01
  3.825503E-01
  3.892617E-01
  3.959732E-01
  4.026846E-01
  4.093960E-01
  4.161074E-01
  4.228188E-01
  4.295302E-01
  4.362416E-01
  4.429530E-01
  4.496644E-01
  4.563758E-01
  4.630872E-01
  4.697987E-01
  4.765101E-01
  4.832215E-01
  4.899329E-01
  4.966443E-01
  5.033557E-01
  5.100671E-01
  5.167785E-01
  5.234899E-01
  5.302013E-01
  5.369128E-01
  5.436242E-01
  5.503356E-01
  5.570470E-01
  5.637584E-01
  5.704698E-01
  5.771812E-01
  5.838926E-01
  5.906040E-01
  5.973154E-01
  6.040268E-01
  6.107383E-01
  6.174497E-01
  6.241611E-01
  6.308725E-01
  6.375839E-01
  6.442953E-01
  6.510067E-01
  6.577181E-01
  6.644295E-01
  6.711409E-01
  6.778524E-01
  6.845638E-01
  6.912752E-01
  6.979866E-01
  7.046980E-01
  7.114094E-01
  7.181208E-01
  7.248322E-01
  7.315436E-01
  7.382550E-01
  7.449664E-01
  7.516779E-01
  7.583893E-01
  7.651007E-01
  7.718121E-01
  7.785235E-01
  7.852349E-01
  7.919463E-01
  7.986577E-01
  8.053691E-01
  8.120805E-01
  8.187919E-01
  8.255034E-01
  8.322148E-01
  8.389262E-01
  8.456376E-01
  8.523490E-01
  8.590604E-01
  8.657718E-01
  8.724832E-01
  8.791946E-01
  8.859060E-01
  8.926175E-01
  8.993289E-01
  9.060403E-01
  9.127517E-01
  9.194631E-01
  9.261745E-01
  9.328859E-01
  9.395973E-01
  9.463087E-01
  9.530201E-01
  9.597315E-01
  9.664430E-01
  9.731544E-01
  9.798658E-01
  9.865772E-01
  9.932886E-01
  1.000000E+00
  0.000000E+00
  0.000000E+00
  0.000000E+00
  0.000000E+00
  0.000000E+00
  0.000000E+00
  0.000000E+00
  0.000000E+00
  0.000000E+00
  0.000000E+00
  0.000000E+00
  0.000000E+00
  0.000000E+00
  0.000000E+00
  0.000000E+00
  0.000000E+00
  0.000000E+00
  0.000000E+00
  0.000000E+00
  0.000000E+00
  0.000000E+00
  0.000000E+00
  0.000000E+00
  0.000000E+00
  0.000000E+00
  0.000000E+00
  0.000000E+00
  0.000000E+00
  0.000000E+00
  0.000000E+00
  0.000000E+00
  0.000000E+00
  0.000000E+00
  0.000000E+00
  0.000000E+00
  0.000000E+00
  0.000000E+00
  0.000000E+00
  0.000000E+00
  0.000000E+00
  0.000000E+00
  0.000000E+00
  0.000000E+00
  0.000000E+00
  0.000000E+00
  0.000000E+00
  0.000000E+00
  0.000000E+00
  0.000000E+00
  0.000000E+00
  0.000000E+00
  0.000000E+00
  0.000000E+00
  0.000000E+00
  0.000000E+00
  0.000000E+00
  0.000000E+00
  0.000000E+00
  0.000000E+00
  0.000000E+00
  0.000000E+00
  0.000000E+00
  0.000000E+00
  0.000000E+00
  0.000000E+00
  0.000000E+00
  0.000000E+00
  0.000000E+00
  0.000000E+00
  0.000000E+00
  0.000000E+00
  0.000000E+00
  0.000000E+00
  0.000000E+00
  0.000000E+00
  0.000000E+00
  0.000000E+00
  0.000000E+00
  0.000000E+00
  0.000000E+00
  0.000000E+00
  0.000000E+00
  0.000000E+00
  0.000000E+00
  0.000000E+00
  0.000000E+00
  0.000000E+00
  0.000000E+00
  0.000000E+00
  0.000000E+00
  0.000000E+00
  0.000000E+00
  0.000000E+00
  0.000000E+00
  0.000000E+00
  0.000000E+00
  0.000000E+00
  0.000000E+00
  0.000000E+00
  0.000000E+00
  0.000000E+00
  0.000000E+00
  0.000000E+00
  0.000000E+00
  0.000000E+00
  0.000000E+00
  0.000000E+00
  0.000000E+00
  0.000000E+00
  0.000000E+00
  0.000000E+00
  0.000000E+00
  0.000000E+00
  0.000000E+00
  0.000000E+00
  0.000000E+00
  0.000000E+00
  0.000000E+00
  0.000000E+00
  0.000000E+00
  0.000000E+00
  0.000000E+00
  0.000000E+00
  0.000000E+00
  0.000000E+00
  0.000000E+00
  0.000000E+00
  0.000000E+00
  0.000000E+00
  0.000000E+00
  0.000000E+00
  0.000000E+00
  0.000000E+00
  0.000000E+00
  0.000000E+00
  0.000000E+00
  0.000000E+00
  0.000000E+00
  0.000000E+00
  0.000000E+00
  0.000000E+00
  0.000000E+00
  0.000000E+00
  0.000000E+00
  0.000000E+00
  0.000000E+00
  0.000000E+00
  0.000000E+00
  0.000000E+00
  0.000000E+00
  0.000000E+00
  0.000000E+00
  0.000000E+00
  0.000000E+00
  0.000000E+00
  0.000000E+00
  0.000000E+00
  0.000000E+00
  0.000000E+00
  0.000000E+00
  0.000000E+00
  0.000000E+00
  0.000000E+00
  0.000000E+00
  0.000000E+00
  0.000000E+00
  0.000000E+00
  0.000000E+00
  0.000000E+00
  0.000000E+00
  0.000000E+00
  0.000000E+00
  0.000000E+00
  0.000000E+00
  0.000000E+00
  0.000000E+00
  0.000000E+00
  0.000000E+00
  0.000000E+00
  0.000000E+00
  0.000000E+00
  0.000000E+00
  0.000000E+00
  0.000000E+00
  0.000000E+00
  0.000000E+00
  0.000000E+00
  0.000000E+00
  0.000000E+00
  0.000000E+00
  0.000000E+00
  0.000000E+00
  0.000000E+00
  0.000000E+00
  0.000000E+00
  0.000000E+00
  0.000000E+00
  0.000000E+00
  0.000000E+00
  0.000000E+00
  0.000000E+00
  0.000000E+00
  0.000000E+00
  0.000000E+00
  0.000000E+00
  0.000000E+00
  0.000000E+00
  0.000000E+00
  0.000000E+00
  0.000000E+00
  0.000000E+00
  0.000000E+00
  0.000000E+00
  0.000000E+00
  0.000000E+00
  0.000000E+00
  0.000000E+00
  0.000000E+00
  0.000000E+00
  0.000000E+00
  0.000000E+00
  0.000000E+00
  0.000000E+00
  0.000000E+00
  0.000000E+00
  0.000000E+00
  0.000000E+00
  0.000000E+00
  0.000000E+00
  0.000000E+00
  0.000000E+00
  0.000000E+00
  0.000000E+00
  0.000000E+00
  0.000000E+00
  0.000000E+00
  0.000000E+00
  0.000000E+00
  0.000000E+00
  0.000000E+00
  0.000000E+00
  0.000000E+00
  0.000000E+00
  0.000000E+00
  0.000000E+00
  0.000000E+00
  0.000000E+00
  0.000000E+00
  0.000000E+00
  0.000000E+00
  0.000000E+00
  0.000000E+00
  0.000000E+00
  0.000000E+00
  0.000000E+00
  0.000000E+00
  0.000000E+00
  0.000000E+00
  0.000000E+00
  0.000000E+00
  0.000000E+00
  0.000000E+00
  0.000000E+00
  0.000000E+00
  0.000000E+00
  0.000000E+00
  0.000000E+00
  0.000000E+00
  0.000000E+00
  0.000000E+00
  0.000000E+00
  0.000000E+00
  0.000000E+00
  0.000000E+00
  0.000000E+00
  0.000000E+00
  0.000000E+00
  0.000000E+00
  0.000000E+00
  0.000000E+00
  0.000000E+00
  0.000000E+00
  0.000000E+00
  0.000000E+00
  0.000000E+00
  0.000000E+00
  0.000000E+00
  0.000000E+00
  0.000000E+00
  0.000000E+00
  0.000000E+00
  0.000000E+00
  0.000000E+00
  0.000000E+00
  0.000000E+00
  0.000000E+00
  0.000000E+00
  0.000000E+00
  0.000000E+00
  0.000000E+00
  1.000000E-08
  1.695085E-02
  3.390169E-02
  5.085254E-02
  6.780338E-02
  8.475423E-02
  1.017051E-01
  1.186559E-01
  1.356068E-01
  1.525576E-01
  1.695085E-01
  1.864593E-01
  2.034101E-01
  2.203610E-01
  2.373118E-01
  2.542627E-01
  2.712135E-01
  2.881644E-01
  3.051152E-01
  3.220661E-01
  3.390169E-01
  3.559678E-01
  3.729186E-01
  3.898694E-01
  4.068203E-01
  4.237711E-01
  4.407220E-01
  4.576728E-01
  4.746237E-01
  4.915745E-01
  5.085254E-01
  5.254762E-01
  5.424271E-01
  5.593779E-01
  5.763287E-01
  5.932796E-01
  6.102304E-01
  6.271813E-01
  6.441321E-01
  6.610830E-01
  6.780338E-01
  6.949847E-01
  7.119355E-01
  7.288864E-01
  7.458372E-01
  7.627880E-01
  7.797389E-01
  7.966897E-01
  8.136406E-01
  8.305914E-01
  8.475423E-01
  8.644931E-01
  8.814440E-01
  8.983948E-01
  9.153457E-01
  9.322965E-01
  9.492473E-01
  9.661982E-01
  9.831490E-01
  1.000100E+00
  1.017051E+00
  1.034002E+00
  1.050952E+00
  1.067903E+00
  1.084854E+00
  1.101805E+00
  1.118756E+00
  1.135707E+00
  1.152657E+00
  1.169608E+00
  1.186559E+00
  1.203510E+00
  1.220461E+00
  1.237412E+00
  1.254363E+00
  1.271313E+00
  1.288264E+00
  1.305215E+00
  1.322166E+00
  1.339117E+00
  1.356068E+00
  1.373018E+00
  1.389969E+00
  1.406920E+00
  1.423871E+00
  1.440822E+00
  1.457773E+00
  1.474724E+00
  1.491674E+00
  1.508625E+00
  1.525576E+00
  1.542527E+00
  1.559478E+00
  1.576429E+00
  1.593379E+00
  1.610330E+00
  1.627281E+00
  1.644232E+00
  1.661183E+00
  1.678134E+00
  1.695085E+00
  1.712035E+00
  1.728986E+00
  1.745937E+00
  1.762888E+00
  1.779839E+00
  1.796790E+00
  1.813740E+00
  1.830691E+00
  1.847642E+00
  1.864593E+00
  1.881544E+00
  1.898495E+00
  1.915446E+00
  1.932396E+00
  1.949347E+00
  1.966298E+00
  1.983249E+00
  2.000200E+00
  2.017151E+00
  2.034101E+00
  2.051052E+00
  2.068003E+00
  2.084954E+00
  2.101905E+00
  2.118856E+00
  2.135807E+00
  2.152757E+00
  2.169708E+00
  2.186659E+00
  2.203610E+00
  2.220561E+00
  2.237512E+00
  2.254462E+00
  2.271413E+00
  2.288364E+00
  2.305315E+00
  2.322266E+00
  2.339217E+00
  2.356168E+00
  2.373118E+00
  2.390069E+00
  2.407020E+00
  2.423971E+00
  2.440922E+00
  2.457873E+00
  2.474823E+00
  2.491774E+00
  2.508725E+00
  2.525676E+00
  1.105728E+04
  1.105557E+04
  1.105386E+04
  1.105215E+04
  1.105044E+04
  1.104873E+04
  1.104702E+04
  1.104531E+04
  1.104360E+04
  1.103870E+04
  1.103372E+04
  1.102874E+04
  1.102376E+04
  1.101878E+04
  1.101381E+04
  1.100883E+04
  1.100280E+04
  1.099484E+04
  1.098688E+04
  1.097892E+04
  1.097096E+04
  1.096300E+04
  1.095504E+04
  1.094671E+04
  1.093544E+04
  1.092417E+04
  1.091290E+04
  1.090163E+04
  1.089036E+04
  1.087909E+04
  1.086699E+04
  1.085211E+04
  1.083724E+04
  1.082236E+04
  1.080748E+04
  1.079261E+04
  1.077773E+04
  1.076029E+04
  1.074172E+04
  1.072315E+04
  1.070458E+04
  1.068601E+04
  1.066744E+04
  1.064710E+04
  1.062488E+04
  1.060267E+04
  1.058045E+04
  1.055824E+04
  1.053602E+04
  1.051167E+04
  1.048583E+04
  1.045999E+04
  1.043415E+04
  1.040831E+04
  1.038247E+04
  1.035308E+04
  1.032363E+04
  1.029418E+04
  1.026473E+04
  1.023529E+04
  1.020355E+04
  1.017062E+04
  1.013770E+04
  1.010478E+04
  1.007187E+04
  1.003689E+04
  1.000057E+04
  9.964250E+03
  9.927933E+03
  9.891620E+03
  9.852481E+03
  9.812636E+03
  9.772795E+03
  9.732957E+03
  9.692257E+03
  9.648752E+03
  9.605248E+03
  9.561747E+03
  9.518248E+03
  9.471446E+03
  9.424275E+03
  9.377106E+03
  9.329939E+03
  9.280004E+03
  9.229290E+03
  9.178578E+03
  9.127867E+03
  9.074415E+03
  9.020544E+03
  8.966675E+03
  8.912411E+03
  8.855888E+03
  8.799370E+03
  8.742858E+03
  8.684840E+03
  8.625900E+03
  8.566973E+03
  8.507415E+03
  8.446074E+03
  8.384762E+03
  8.323303E+03
  8.259735E+03
  8.196213E+03
  8.132609E+03
  8.066536E+03
  8.000517E+03
  7.933963E+03
  7.864611E+03
  7.795313E+03
  7.724276E+03
  7.650993E+03
  7.577755E+03
  7.500855E+03
  7.423296E+03
  7.344092E+03
  7.262126E+03
  7.180042E+03
  7.093725E+03
  7.007428E+03
  6.917710E+03
  6.827187E+03
  6.733796E+03
  6.639139E+03
  6.541654E+03
  6.442870E+03
  6.340958E+03
  6.238149E+03
  6.131716E+03
  6.024329E+03
  5.914341E+03
  5.802478E+03
  5.689241E+03
  5.573245E+03
  5.455611E+03
  5.336245E+03
  5.214399E+03
  5.089903E+03
  4.963112E+03
  4.834233E+03
  4.704592E+03
  4.578529E+03
  4.466392E+03
  4.385831E+03
  4.372079E+03
  4.462533E+03
  4.426717E+03
  3.989269E+03
  4.488837E+03
  1.341322E+03
 -1.039924E-04
  6.286971E+02
  6.286076E+02
  6.285181E+02
  6.284286E+02
  6.283391E+02
  6.282496E+02
  6.281601E+02
  6.280706E+02
  6.279811E+02
  6.277974E+02
  6.276114E+02
  6.274253E+02
  6.272393E+02
  6.270533E+02
  6.268672E+02
  6.266812E+02
  6.265021E+02
  6.263356E+02
  6.261691E+02
  6.260026E+02
  6.258361E+02
  6.256696E+02
  6.255030E+02
  6.253347E+02
  6.251523E+02
  6.249699E+02
  6.247874E+02
  6.246049E+02
  6.244224E+02
  6.242399E+02
  6.240377E+02
  6.237700E+02
  6.235024E+02
  6.232347E+02
  6.229669E+02
  6.226991E+02
  6.224313E+02
  6.220966E+02
  6.217326E+02
  6.213685E+02
  6.210044E+02
  6.206403E+02
  6.202760E+02
  6.198669E+02
  6.194102E+02
  6.189535E+02
  6.184967E+02
  6.180398E+02
  6.175829E+02
  6.170449E+02
  6.164501E+02
  6.158552E+02
  6.152602E+02
  6.146651E+02
  6.140699E+02
  6.132721E+02
  6.124711E+02
  6.116699E+02
  6.108687E+02
  6.100673E+02
  6.091222E+02
  6.081033E+02
  6.070842E+02
  6.060651E+02
  6.050458E+02
  6.039012E+02
  6.026742E+02
  6.014471E+02
  6.002198E+02
  5.989923E+02
  5.976055E+02
  5.961785E+02
  5.947512E+02
  5.933237E+02
  5.918612E+02
  5.902860E+02
  5.887104E+02
  5.871345E+02
  5.855583E+02
  5.838265E+02
  5.820770E+02
  5.803272E+02
  5.785771E+02
  5.765798E+02
  5.745125E+02
  5.724449E+02
  5.703770E+02
  5.679604E+02
  5.654901E+02
  5.630196E+02
  5.604848E+02
  5.575859E+02
  5.546876E+02
  5.517898E+02
  5.485199E+02
  5.450221E+02
  5.415271E+02
  5.378383E+02
  5.336035E+02
  5.293760E+02
  5.251133E+02
  5.203423E+02
  5.155826E+02
  5.108206E+02
  5.058044E+02
  5.008007E+02
  4.957902E+02
  4.906998E+02
  4.856206E+02
  4.805774E+02
  4.755758E+02
  4.705826E+02
  4.657897E+02
  4.610385E+02
  4.564258E+02
  4.520379E+02
  4.476667E+02
  4.437248E+02
  4.397825E+02
  4.362707E+02
  4.328594E+02
  4.298472E+02
  4.270092E+02
  4.245531E+02
  4.222711E+02
  4.204186E+02
  4.186884E+02
  4.175188E+02
  4.165235E+02
  4.160141E+02
  4.159405E+02
  4.161991E+02
  4.172485E+02
  4.188596E+02
  4.210878E+02
  4.242637E+02
  4.285765E+02
  4.340863E+02
  4.411943E+02
  4.506327E+02
  4.638670E+02
  4.837161E+02
  5.147955E+02
  5.652424E+02
  6.430475E+02
  7.118880E+02
  7.257908E+02
  8.773170E+02
  2.104303E+02
  3.892666E-04
  1.798336E+03
  1.798176E+03
  1.798016E+03
  1.797856E+03
  1.797696E+03
  1.797536E+03
  1.797376E+03
  1.797216E+03
  1.797056E+03
  1.796434E+03
  1.795801E+03
  1.795168E+03
  1.794535E+03
  1.793902E+03
  1.793269E+03
  1.792636E+03
  1.791766E+03
  1.790465E+03
  1.789163E+03
  1.787861E+03
  1.786559E+03
  1.785257E+03
  1.783956E+03
  1.782565E+03
  1.780460E+03
  1.778356E+03
  1.776252E+03
  1.774148E+03
  1.772044E+03
  1.769939E+03
  1.767614E+03
  1.764551E+03
  1.761488E+03
  1.758425E+03
  1.755363E+03
  1.752300E+03
  1.749237E+03
  1.745441E+03
  1.741325E+03
  1.737208E+03
  1.733092E+03
  1.728976E+03
  1.724859E+03
  1.720219E+03
  1.715027E+03
  1.709835E+03
  1.704643E+03
  1.699451E+03
  1.694259E+03
  1.688478E+03
  1.682284E+03
  1.676090E+03
  1.669896E+03
  1.663769E+03
  1.657575E+03
  1.650587E+03
  1.643586E+03
  1.636586E+03
  1.629586E+03
  1.622588E+03
  1.615210E+03
  1.607638E+03
  1.600068E+03
  1.592498E+03
  1.584929E+03
  1.577096E+03
  1.569090E+03
  1.561085E+03
  1.553081E+03
  1.545078E+03
  1.536846E+03
  1.528558E+03
  1.520270E+03
  1.511983E+03
  1.503714E+03
  1.495500E+03
  1.487288E+03
  1.479075E+03
  1.470863E+03
  1.462920E+03
  1.455008E+03
  1.447096E+03
  1.439184E+03
  1.431400E+03
  1.423652E+03
  1.415905E+03
  1.408157E+03
  1.400581E+03
  1.393031E+03
  1.385483E+03
  1.378005E+03
  1.370932E+03
  1.363860E+03
  1.356790E+03
  1.349936E+03
  1.343219E+03
  1.336462E+03
  1.329722E+03
  1.322897E+03
  1.316084E+03
  1.309261E+03
  1.302214E+03
  1.295184E+03
  1.288155E+03
  1.280806E+03
  1.273479E+03
  1.266027E+03
  1.257880E+03
  1.249755E+03
  1.241052E+03
  1.231599E+03
  1.222166E+03
  1.211392E+03
  1.200379E+03
  1.188742E+03
  1.176055E+03
  1.163323E+03
  1.148946E+03
  1.134575E+03
  1.118940E+03
  1.103004E+03
  1.086184E+03
  1.068972E+03
  1.051109E+03
  1.032947E+03
  1.014309E+03
  9.955362E+02
  9.765446E+02
  9.575937E+02
  9.387906E+02
  9.203586E+02
  9.022219E+02
  8.850215E+02
  8.685594E+02
  8.529070E+02
  8.385123E+02
  8.255880E+02
  8.142176E+02
  8.050588E+02
  7.995481E+02
  8.009924E+02
  8.164943E+02
  8.579536E+02
  9.438993E+02
  1.088937E+03
  1.200529E+03
  1.134582E+03
  1.288208E+03
  2.090713E+02
 -7.401599E-11
  1.244312E+00
  1.244119E+00
  1.243927E+00
  1.243734E+00
  1.243542E+00
  1.243349E+00
  1.243157E+00
  1.242964E+00
  1.242772E+00
  1.242220E+00
  1.241660E+00
  1.241100E+00
  1.240540E+00
  1.239979E+00
  1.239419E+00
  1.238859E+00
  1.238180E+00
  1.237285E+00
  1.236389E+00
  1.235493E+00
  1.234597E+00
  1.233702E+00
  1.232806E+00
  1.231869E+00
  1.230600E+00
  1.229332E+00
  1.228064E+00
  1.226796E+00
  1.225528E+00
  1.224260E+00
  1.222897E+00
  1.221223E+00
  1.219549E+00
  1.217875E+00
  1.216201E+00
  1.214527E+00
  1.212853E+00
  1.210890E+00
  1.208800E+00
  1.206710E+00
  1.204621E+00
  1.202531E+00
  1.200442E+00
  1.198152E+00
  1.195652E+00
  1.193152E+00
  1.190652E+00
  1.188152E+00
  1.185653E+00
  1.182913E+00
  1.180004E+00
  1.177096E+00
  1.174188E+00
  1.171281E+00
  1.168373E+00
  1.165065E+00
  1.161751E+00
  1.158437E+00
  1.155124E+00
  1.151810E+00
  1.148238E+00
  1.144533E+00
  1.140828E+00
  1.137124E+00
  1.133420E+00
  1.129484E+00
  1.125396E+00
  1.121309E+00
  1.117222E+00
  1.113136E+00
  1.108732E+00
  1.104248E+00
  1.099764E+00
  1.095281E+00
  1.090701E+00
  1.085805E+00
  1.080910E+00
  1.076014E+00
  1.071119E+00
  1.065852E+00
  1.060544E+00
  1.055236E+00
  1.049928E+00
  1.044309E+00
  1.038602E+00
  1.032895E+00
  1.027188E+00
  1.021173E+00
  1.015111E+00
  1.009049E+00
  1.002942E+00
  9.965817E-01
  9.902215E-01
  9.838621E-01
  9.773331E-01
  9.707004E-01
  9.640691E-01
  9.573668E-01
  9.504639E-01
  9.435643E-01
  9.366482E-01
  9.294947E-01
  9.223463E-01
  9.151888E-01
  9.077534E-01
  9.003240E-01
  8.928345E-01
  8.850301E-01
  8.772317E-01
  8.692377E-01
  8.609909E-01
  8.527493E-01
  8.440954E-01
  8.353675E-01
  8.264544E-01
  8.172305E-01
  8.079933E-01
  7.982798E-01
  7.885685E-01
  7.784723E-01
  7.682854E-01
  7.577758E-01
  7.471237E-01
  7.361535E-01
  7.250369E-01
  7.135684E-01
  7.019990E-01
  6.900218E-01
  6.779372E-01
  6.655599E-01
  6.529716E-01
  6.402287E-01
  6.271752E-01
  6.139375E-01
  6.005049E-01
  5.867931E-01
  5.727832E-01
  5.585150E-01
  5.440119E-01
  5.294229E-01
  5.152366E-01
  5.026176E-01
  4.935518E-01
  4.920042E-01
  5.021833E-01
  4.981528E-01
  4.489253E-01
  5.051433E-01
  1.509433E-01
 -1.170260E-08
  1.122481E+00
  1.122321E+00
  1.122162E+00
  1.122002E+00
  1.121842E+00
  1.121682E+00
  1.121522E+00
  1.121363E+00
  1.121203E+00
  1.120875E+00
  1.120543E+00
  1.120211E+00
  1.119878E+00
  1.119546E+00
  1.119214E+00
  1.118882E+00
  1.118562E+00
  1.118265E+00
  1.117968E+00
  1.117670E+00
  1.117373E+00
  1.117076E+00
  1.116778E+00
  1.116478E+00
  1.116152E+00
  1.115827E+00
  1.115501E+00
  1.115175E+00
  1.114849E+00
  1.114523E+00
  1.114162E+00
  1.113684E+00
  1.113206E+00
  1.112728E+00
  1.112250E+00
  1.111772E+00
  1.111294E+00
  1.110697E+00
  1.110047E+00
  1.109397E+00
  1.108747E+00
  1.108096E+00
  1.107446E+00
  1.106716E+00
  1.105900E+00
  1.105085E+00
  1.104269E+00
  1.103454E+00
  1.102638E+00
  1.101677E+00
  1.100615E+00
  1.099553E+00
  1.098491E+00
  1.097428E+00
  1.096366E+00
  1.094941E+00
  1.093511E+00
  1.092081E+00
  1.090650E+00
  1.089219E+00
  1.087532E+00
  1.085713E+00
  1.083893E+00
  1.082074E+00
  1.080254E+00
  1.078210E+00
  1.076020E+00
  1.073829E+00
  1.071638E+00
  1.069446E+00
  1.066970E+00
  1.064422E+00
  1.061874E+00
  1.059325E+00
  1.056714E+00
  1.053902E+00
  1.051089E+00
  1.048275E+00
  1.045461E+00
  1.042369E+00
  1.039245E+00
  1.036121E+00
  1.032996E+00
  1.029430E+00
  1.025740E+00
  1.022048E+00
  1.018356E+00
  1.014041E+00
  1.009631E+00
  1.005220E+00
  1.000694E+00
  9.955186E-01
  9.903439E-01
  9.851702E-01
  9.793322E-01
  9.730870E-01
  9.668471E-01
  9.602611E-01
  9.527003E-01
  9.451524E-01
  9.375417E-01
  9.290236E-01
  9.205256E-01
  9.120234E-01
  9.030675E-01
  8.941338E-01
  8.851880E-01
  8.760996E-01
  8.670311E-01
  8.580270E-01
  8.490971E-01
  8.401822E-01
  8.316250E-01
  8.231420E-01
  8.149066E-01
  8.070723E-01
  7.992680E-01
  7.922301E-01
  7.851914E-01
  7.789215E-01
  7.728309E-01
  7.674528E-01
  7.623859E-01
  7.580007E-01
  7.539264E-01
  7.506189E-01
  7.475299E-01
  7.454415E-01
  7.436647E-01
  7.427552E-01
  7.426236E-01
  7.430855E-01
  7.449590E-01
  7.478355E-01
  7.518137E-01
  7.574841E-01
  7.651841E-01
  7.750215E-01
  7.877120E-01
  8.045634E-01
  8.281921E-01
  8.636309E-01
  9.191203E-01
  1.009189E+00
  1.148102E+00
  1.271011E+00
  1.295833E+00
  1.566369E+00
  3.757041E-01
  6.949999E-07
  1.251630E+00
  1.251518E+00
  1.251407E+00
  1.251295E+00
  1.251184E+00
  1.251073E+00
  1.250961E+00
  1.250850E+00
  1.250738E+00
  1.250306E+00
  1.249865E+00
  1.249424E+00
  1.248984E+00
  1.248543E+00
  1.248102E+00
  1.247662E+00
  1.247057E+00
  1.246151E+00
  1.245245E+00
  1.244339E+00
  1.243433E+00
  1.242527E+00
  1.241621E+00
  1.240652E+00
  1.239188E+00
  1.237723E+00
  1.236259E+00
  1.234794E+00
  1.233330E+00
  1.231865E+00
  1.230247E+00
  1.228115E+00
  1.225983E+00
  1.223852E+00
  1.221720E+00
  1.219588E+00
  1.217457E+00
  1.214815E+00
  1.211950E+00
  1.209085E+00
  1.206220E+00
  1.203355E+00
  1.200490E+00
  1.197261E+00
  1.193647E+00
  1.190033E+00
  1.186419E+00
  1.182806E+00
  1.179193E+00
  1.175169E+00
  1.170858E+00
  1.166547E+00
  1.162236E+00
  1.157971E+00
  1.153661E+00
  1.148797E+00
  1.143924E+00
  1.139052E+00
  1.134181E+00
  1.129310E+00
  1.124175E+00
  1.118905E+00
  1.113636E+00
  1.108367E+00
  1.103099E+00
  1.097648E+00
  1.092076E+00
  1.086504E+00
  1.080933E+00
  1.075363E+00
  1.069634E+00
  1.063865E+00
  1.058097E+00
  1.052329E+00
  1.046574E+00
  1.040858E+00
  1.035142E+00
  1.029426E+00
  1.023710E+00
  1.018182E+00
  1.012675E+00
  1.007169E+00
  1.001662E+00
  9.962444E-01
  9.908519E-01
  9.854596E-01
  9.800675E-01
  9.747945E-01
  9.695401E-01
  9.642862E-01
  9.590820E-01
  9.541588E-01
  9.492369E-01
  9.443162E-01
  9.395461E-01
  9.348713E-01
  9.301682E-01
  9.254772E-01
  9.207274E-01
  9.159851E-01
  9.112366E-01
  9.063315E-01
  9.014388E-01
  8.965466E-01
  8.914319E-01
  8.863327E-01
  8.811457E-01
  8.754754E-01
  8.698209E-01
  8.637635E-01
  8.571842E-01
  8.506188E-01
  8.431202E-01
  8.354553E-01
  8.273560E-01
  8.185261E-01
  8.096645E-01
  7.996582E-01
  7.896566E-01
  7.787742E-01
  7.676830E-01
  7.559763E-01
  7.439968E-01
  7.315645E-01
  7.189236E-01
  7.059520E-01
  6.928862E-01
  6.796682E-01
  6.664785E-01
  6.533917E-01
  6.405631E-01
  6.279401E-01
  6.159688E-01
  6.045113E-01
  5.936173E-01
  5.835987E-01
  5.746035E-01
  5.666897E-01
  5.603153E-01
  5.564799E-01
  5.574851E-01
  5.682743E-01
  5.971297E-01
  6.569473E-01
  7.578925E-01
  8.355596E-01
  7.896611E-01
  8.965838E-01
  1.455122E-01
 -5.151461E-14
  9.886925E-01
  9.885396E-01
  9.883866E-01
  9.882336E-01
  9.880807E-01
  9.879277E-01
  9.877747E-01
  9.876218E-01
  9.874688E-01
  9.870308E-01
  9.865856E-01
  9.861405E-01
  9.856954E-01
  9.852502E-01
  9.848051E-01
  9.843600E-01
  9.838208E-01
  9.831090E-01
  9.823973E-01
  9.816856E-01
  9.809739E-01
  9.802622E-01
  9.795505E-01
  9.788059E-01
  9.777983E-01
  9.767906E-01
  9.757830E-01
  9.747754E-01
  9.737678E-01
  9.727602E-01
  9.716780E-01
  9.703478E-01
  9.690176E-01
  9.676875E-01
  9.663574E-01
  9.650273E-01
  9.636972E-01
  9.621374E-01
  9.604770E-01
  9.588167E-01
  9.571564E-01
  9.554962E-01
  9.538360E-01
  9.520170E-01
  9.500305E-01
  9.480441E-01
  9.460577E-01
  9.440715E-01
  9.420854E-01
  9.399083E-01
  9.375974E-01
  9.352868E-01
  9.329763E-01
  9.306659E-01
  9.283557E-01
  9.257271E-01
  9.230938E-01
  9.204607E-01
  9.178278E-01
  9.151952E-01
  9.123566E-01
  9.094126E-01
  9.064689E-01
  9.035256E-01
  9.005825E-01
  8.974552E-01
  8.942072E-01
  8.909595E-01
  8.877122E-01
  8.844652E-01
  8.809656E-01
  8.774028E-01
  8.738403E-01
  8.702781E-01
  8.666389E-01
  8.627488E-01
  8.588588E-01
  8.549691E-01
  8.510795E-01
  8.468946E-01
  8.426768E-01
  8.384591E-01
  8.342415E-01
  8.297765E-01
  8.252419E-01
  8.207074E-01
  8.161730E-01
  8.113936E-01
  8.065768E-01
  8.017602E-01
  7.969082E-01
  7.918544E-01
  7.868010E-01
  7.817481E-01
  7.765606E-01
  7.712905E-01
  7.660214E-01
  7.606957E-01
  7.552104E-01
  7.497275E-01
  7.442313E-01
  7.385460E-01
  7.328646E-01
  7.271757E-01
  7.212656E-01
  7.153600E-01
  7.094063E-01
  7.032024E-01
  6.970029E-01
  6.906480E-01
  6.840922E-01
  6.775404E-01
  6.706614E-01
  6.637237E-01
  6.566390E-01
  6.493079E-01
  6.419662E-01
  6.342470E-01
  6.265296E-01
  6.185071E-01
  6.104128E-01
  6.020629E-01
  5.936000E-01
  5.848851E-01
  5.760541E-01
  5.669442E-01
  5.577541E-01
  5.482406E-01
  5.386416E-01
  5.288104E-01
  5.188115E-01
  5.086897E-01
  4.983211E-01
  4.878058E-01
  4.771354E-01
  4.662429E-01
  4.551132E-01
  4.437778E-01
  4.322552E-01
  4.206640E-01
  4.093921E-01
  3.993646E-01
  3.921600E-01
  3.909285E-01
  3.990140E-01
  3.958084E-01
  3.566911E-01
  4.013541E-01
  1.647332E-01
 -2.261957E-03
  5.621528E-02
  5.620727E-02
  5.619927E-02
  5.619126E-02
  5.618326E-02
  5.617525E-02
  5.616725E-02
  5.615925E-02
  5.615125E-02
  5.613482E-02
  5.611819E-02
  5.610155E-02
  5.608492E-02
  5.606829E-02
  5.605165E-02
  5.603502E-02
  5.601900E-02
  5.600412E-02
  5.598923E-02
  5.597435E-02
  5.595946E-02
  5.594457E-02
  5.592968E-02
  5.591463E-02
  5.589833E-02
  5.588202E-02
  5.586571E-02
  5.584939E-02
  5.583307E-02
  5.581676E-02
  5.579868E-02
  5.577475E-02
  5.575082E-02
  5.572688E-02
  5.570294E-02
  5.567900E-02
  5.565506E-02
  5.562513E-02
  5.559259E-02
  5.556004E-02
  5.552749E-02
  5.549493E-02
  5.546237E-02
  5.542578E-02
  5.538496E-02
  5.534412E-02
  5.530328E-02
  5.526243E-02
  5.522157E-02
  5.517347E-02
  5.512029E-02
  5.506710E-02
  5.501390E-02
  5.496068E-02
  5.490746E-02
  5.483613E-02
  5.476450E-02
  5.469286E-02
  5.462122E-02
  5.454956E-02
  5.446505E-02
  5.437394E-02
  5.428282E-02
  5.419169E-02
  5.410055E-02
  5.399820E-02
  5.388849E-02
  5.377876E-02
  5.366902E-02
  5.355926E-02
  5.343526E-02
  5.330766E-02
  5.318003E-02
  5.305239E-02
  5.292162E-02
  5.278077E-02
  5.263989E-02
  5.249897E-02
  5.235803E-02
  5.220317E-02
  5.204674E-02
  5.189028E-02
  5.173378E-02
  5.155519E-02
  5.137034E-02
  5.118547E-02
  5.100056E-02
  5.078448E-02
  5.056361E-02
  5.034271E-02
  5.011606E-02
  4.985687E-02
  4.959772E-02
  4.933863E-02
  4.904626E-02
  4.873351E-02
  4.842100E-02
  4.809115E-02
  4.771246E-02
  4.733441E-02
  4.695320E-02
  4.652652E-02
  4.610084E-02
  4.567493E-02
  4.522626E-02
  4.477870E-02
  4.433052E-02
  4.387518E-02
  4.342083E-02
  4.296970E-02
  4.252229E-02
  4.207561E-02
  4.164688E-02
  4.122187E-02
  4.080927E-02
  4.041678E-02
  4.002580E-02
  3.967325E-02
  3.932067E-02
  3.900663E-02
  3.870159E-02
  3.843227E-02
  3.817855E-02
  3.795902E-02
  3.775507E-02
  3.758957E-02
  3.743501E-02
  3.733061E-02
  3.724181E-02
  3.719647E-02
  3.719009E-02
  3.721343E-02
  3.730748E-02
  3.745174E-02
  3.765117E-02
  3.793533E-02
  3.832112E-02
  3.881393E-02
  3.944959E-02
  4.029360E-02
  4.147696E-02
  4.325171E-02
  4.603055E-02
  5.054103E-02
  5.749760E-02
  6.365242E-02
  6.489488E-02
  7.844233E-02
  2.584380E-02
  8.467012E-03
  1.607992E-01
  1.607849E-01
  1.607705E-01
  1.607562E-01
  1.607419E-01
  1.607276E-01
  1.607133E-01
  1.606990E-01
  1.606847E-01
  1.606291E-01
  1.605725E-01
  1.605159E-01
  1.604593E-01
  1.604026E-01
  1.603460E-01
  1.602894E-01
  1.602117E-01
  1.600953E-01
  1.599789E-01
  1.598625E-01
  1.597461E-01
  1.596297E-01
  1.595133E-01
  1.593890E-01
  1.592008E-01
  1.590127E-01
  1.588245E-01
  1.586364E-01
  1.584483E-01
  1.582601E-01
  1.580521E-01
  1.577783E-01
  1.575045E-01
  1.572306E-01
  1.569568E-01
  1.566829E-01
  1.564091E-01
  1.560697E-01
  1.557016E-01
  1.553335E-01
  1.549655E-01
  1.545974E-01
  1.542294E-01
  1.538145E-01
  1.533502E-01
  1.528860E-01
  1.524217E-01
  1.519575E-01
  1.514933E-01
  1.509764E-01
  1.504225E-01
  1.498687E-01
  1.493149E-01
  1.487670E-01
  1.482132E-01
  1.475883E-01
  1.469623E-01
  1.463364E-01
  1.457105E-01
  1.450847E-01
  1.444250E-01
  1.437480E-01
  1.430711E-01
  1.423942E-01
  1.417174E-01
  1.410170E-01
  1.403011E-01
  1.395854E-01
  1.388697E-01
  1.381541E-01
  1.374180E-01
  1.366769E-01
  1.359358E-01
  1.351948E-01
  1.344554E-01
  1.337210E-01
  1.329867E-01
  1.322523E-01
  1.315181E-01
  1.308079E-01
  1.301004E-01
  1.293929E-01
  1.286854E-01
  1.279894E-01
  1.272966E-01
  1.266039E-01
  1.259111E-01
  1.252337E-01
  1.245587E-01
  1.238837E-01
  1.232151E-01
  1.225826E-01
  1.219503E-01
  1.213182E-01
  1.207054E-01
  1.201049E-01
  1.195006E-01
  1.188979E-01
  1.182876E-01
  1.176783E-01
  1.170681E-01
  1.164377E-01
  1.158089E-01
  1.151801E-01
  1.145227E-01
  1.138672E-01
  1.132003E-01
  1.124714E-01
  1.117445E-01
  1.109657E-01
  1.101200E-01
  1.092760E-01
  1.083122E-01
  1.073270E-01
  1.062860E-01
  1.051513E-01
  1.040125E-01
  1.027268E-01
  1.014416E-01
  1.000435E-01
  9.861862E-02
  9.711475E-02
  9.557590E-02
  9.397898E-02
  9.235530E-02
  9.068924E-02
  8.901108E-02
  8.731346E-02
  8.561947E-02
  8.393872E-02
  8.229116E-02
  8.066998E-02
  7.913252E-02
  7.766103E-02
  7.626189E-02
  7.497517E-02
  7.381987E-02
  7.280345E-02
  7.198470E-02
  7.149209E-02
  7.162124E-02
  7.300723E-02
  7.671409E-02
  8.439856E-02
  9.736646E-02
  1.073435E-01
  1.014460E-01
  1.151808E-01
  2.567689E-02
 -1.609936E-09
  9.888208E-01
  9.886678E-01
  9.885148E-01
  9.883619E-01
  9.882089E-01
  9.880560E-01
  9.879030E-01
  9.877500E-01
  9.875971E-01
  9.871591E-01
  9.867140E-01
  9.862689E-01
  9.858238E-01
  9.853787E-01
  9.849337E-01
  9.844886E-01
  9.839495E-01
  9.832380E-01
  9.825264E-01
  9.818149E-01
  9.811034E-01
  9.803918E-01
  9.796803E-01
  9.789360E-01
  9.779287E-01