 Title = "ADflow Slice Data"
Variables =  "CoordinateX"  "CoordinateY"  "CoordinateZ"  "XoC"  "YoC"  "ZoC" "VelocityX" "VelocityY" "VelocityZ" "CoefPressure" "Mach" 
Zone T= "Slice_0001 None Relative Regular z = 0.10000000"
 Nodes =          114  Elements=          106  ZONETYPE=FELINESEG
 DATAPACKING=POINT
  7.301402E-01  6.709130E-02  1.000000E-01  7.450337E-01  5.863707E-02  1.416121E-17  2.599302E-02 -4.177935E-03 -1.414840E-04 -4.364622E-01  0.000000E+00
  7.043967E-01  7.107051E-02  1.000000E-01  7.187644E-01  6.269754E-02 -4.248363E-17  2.729948E-02 -4.072181E-03 -1.227199E-04 -4.692330E-01  0.000000E+00
  6.775455E-01  7.491360E-02  1.000000E-01  6.913648E-01  6.661912E-02  3.965139E-16  2.840033E-02 -3.928028E-03 -1.056978E-04 -4.997037E-01  0.000000E+00
  6.496792E-01  7.861225E-02  1.000000E-01  6.629294E-01  7.039331E-02  4.248363E-17  2.932907E-02 -3.777812E-03 -9.316165E-05 -5.311853E-01  0.000000E+00
  6.209097E-01  8.218322E-02  1.000000E-01  6.335724E-01  7.403721E-02 -2.832242E-17  3.019063E-02 -3.632030E-03 -8.690224E-05 -5.659235E-01  0.000000E+00
  5.913667E-01  8.560664E-02  1.000000E-01  6.034260E-01  7.753054E-02 -2.832242E-17  3.111420E-02 -3.479716E-03 -8.708742E-05 -6.042321E-01  0.000000E+00
  5.611982E-01  8.884600E-02  1.000000E-01  5.726415E-01  8.083606E-02  0.000000E+00  3.219681E-02 -3.313652E-03 -9.253153E-05 -6.470260E-01  0.000000E+00
  5.305654E-01  9.185471E-02  1.000000E-01  5.413830E-01  8.390621E-02 -5.664484E-17  3.351060E-02 -3.126443E-03 -1.012725E-04 -6.961452E-01  0.000000E+00
  4.996398E-01  9.458523E-02  1.000000E-01  5.098258E-01  8.669249E-02  0.000000E+00  3.512489E-02 -2.895528E-03 -1.110496E-04 -7.528027E-01  0.000000E+00
  4.685986E-01  9.696532E-02  1.000000E-01  4.781506E-01  8.912120E-02  1.416121E-17  3.709872E-02 -2.576745E-03 -1.196355E-04 -8.155875E-01  0.000000E+00
  4.376215E-01  9.890173E-02  1.000000E-01  4.465410E-01  9.109716E-02 -8.496726E-17  3.943027E-02 -2.123093E-03 -1.249767E-04 -8.809975E-01  0.000000E+00
  4.068895E-01  1.003026E-01  1.000000E-01  4.151813E-01  9.252667E-02  0.000000E+00  4.202715E-02 -1.498472E-03 -1.254280E-04 -9.448400E-01  0.000000E+00
  3.765814E-01  1.010949E-01  1.000000E-01  3.842542E-01  9.333512E-02 -5.664484E-17  4.471685E-02 -7.028017E-04 -1.201869E-04 -1.005050E+00  0.000000E+00
  3.468696E-01  1.012608E-01  1.000000E-01  3.539357E-01  9.350439E-02 -5.664484E-17  4.735450E-02  2.525824E-04 -1.098687E-04 -1.060528E+00  0.000000E+00
  3.179133E-01  1.007948E-01  1.000000E-01  3.243880E-01  9.302886E-02 -2.832242E-17  4.988742E-02  1.369983E-03 -9.640589E-05 -1.110334E+00  0.000000E+00
  2.898519E-01  9.970489E-02  1.000000E-01  2.957535E-01  9.191671E-02 -4.248363E-17  5.230889E-02  2.634671E-03 -8.199996E-05 -1.156967E+00  0.000000E+00
  2.628044E-01  9.802527E-02  1.000000E-01  2.681536E-01  9.020279E-02  0.000000E+00  5.466248E-02  4.034512E-03 -6.826534E-05 -1.204098E+00  0.000000E+00
  9.800000E-01  1.229581E-02  1.000000E-01  9.999963E-01  2.722500E-03 -2.832242E-17  1.053939E-02 -1.318823E-02 -2.627972E-04 -5.750020E-02  0.000000E+00
  9.720124E-01  1.444381E-02  1.000000E-01  9.918456E-01  4.914375E-03 -2.832242E-17  1.209417E-02 -3.318627E-03 -2.275724E-04  6.736440E-02  0.000000E+00
  9.632634E-01  1.680724E-02  1.000000E-01  9.829179E-01  7.326071E-03 -2.832242E-17  9.069883E-03 -2.383508E-03 -1.934613E-04  2.001679E-02  0.000000E+00
  9.536907E-01  1.937355E-02  1.000000E-01  9.731497E-01  9.944794E-03 -2.832242E-17  7.196538E-03 -1.915539E-03 -1.704302E-04  1.660869E-03  0.000000E+00
  9.432303E-01  2.212587E-02  1.000000E-01  9.624756E-01  1.275332E-02  1.416121E-17  6.805570E-03 -1.771651E-03 -1.628361E-04 -1.871413E-02  0.000000E+00
  9.318220E-01  2.506648E-02  1.000000E-01  9.508343E-01  1.575399E-02  1.416121E-17  7.565187E-03 -1.924931E-03 -1.660900E-04 -4.510712E-02  0.000000E+00
  9.194070E-01  2.819722E-02  1.000000E-01  9.381658E-01  1.894866E-02 -8.496726E-17  8.975074E-03 -2.232414E-03 -1.741890E-04 -7.345643E-02  0.000000E+00
  9.059278E-01  3.151478E-02  1.000000E-01  9.244113E-01  2.233397E-02 -5.664484E-17  1.062260E-02 -2.576128E-03 -1.829537E-04 -1.035908E-01  0.000000E+00
  8.913299E-01  3.501166E-02  1.000000E-01  9.095153E-01  2.590227E-02  0.000000E+00  1.230566E-02 -2.903010E-03 -1.902795E-04 -1.360044E-01  0.000000E+00
  8.755643E-01  3.868086E-02  1.000000E-01  8.934278E-01  2.964640E-02 -2.832242E-17  1.399501E-02 -3.204528E-03 -1.954168E-04 -1.707698E-01  0.000000E+00
  8.585885E-01  4.250983E-02  1.000000E-01  8.761052E-01  3.355358E-02  4.106751E-16  1.573053E-02 -3.483306E-03 -1.981129E-04 -2.074102E-01  0.000000E+00
  8.403666E-01  4.647448E-02  1.000000E-01  8.575112E-01  3.759919E-02  3.965139E-16  1.752248E-02 -3.733546E-03 -1.979010E-04 -2.452664E-01  0.000000E+00
  8.208730E-01  5.054343E-02  1.000000E-01  8.376195E-01  4.175125E-02 -8.496726E-17  1.933478E-02 -3.943231E-03 -1.941330E-04 -2.839669E-01  0.000000E+00
  8.000947E-01  5.468255E-02  1.000000E-01  8.164169E-01  4.597490E-02 -2.832242E-17  2.112529E-02 -4.100902E-03 -1.864079E-04 -3.231955E-01  0.000000E+00
  7.780326E-01  5.885137E-02  1.000000E-01  7.939042E-01  5.022885E-02 -2.832242E-17  2.285908E-02 -4.196802E-03 -1.747030E-04 -3.624032E-01  0.000000E+00
  7.547032E-01  6.300423E-02  1.000000E-01  7.700983E-01  5.446653E-02  4.389975E-16  2.449775E-02 -4.222930E-03 -1.594059E-04 -4.005805E-01  0.000000E+00
  7.301402E-01  6.709130E-02  1.000000E-01  7.450337E-01  5.863707E-02  2.832242E-17  2.599302E-02 -4.177935E-03 -1.414840E-04 -4.364622E-01  0.000000E+00
  2.444131E-01 -3.270450E-03  1.000000E-01  2.493867E-01 -1.316166E-02  3.681915E-16  2.814693E-02  1.172486E-03  5.171165E-05  1.679039E-01  0.000000E+00
  2.700250E-01 -2.209718E-03  1.000000E-01  2.755217E-01 -1.207927E-02 -4.248363E-17  2.846338E-02  1.157811E-03  5.589663E-05  1.646851E-01  0.000000E+00
  2.967058E-01 -1.146171E-03  1.000000E-01  3.027474E-01 -1.099400E-02 -2.832242E-17  2.890725E-02  1.192247E-03  6.093398E-05  1.551022E-01  0.000000E+00
  3.243554E-01  2.867555E-05  1.000000E-01  3.309616E-01 -9.795159E-03  4.248363E-16  2.911052E-02  1.358252E-03  6.642325E-05  1.404292E-01  0.000000E+00
  3.528511E-01  1.473439E-03  1.000000E-01  3.600394E-01 -8.320890E-03 -4.248363E-17  2.865946E-02  1.678713E-03  7.150029E-05  1.271052E-01  0.000000E+00
  3.820469E-01  3.415434E-03  1.000000E-01  3.898313E-01 -6.339234E-03  5.664484E-17  2.728736E-02  2.100290E-03  7.500288E-05  1.232426E-01  0.000000E+00
  4.117740E-01  6.030154E-03  1.000000E-01  4.201656E-01 -3.671114E-03 -5.664484E-17  2.507178E-02  2.495368E-03  7.600942E-05  1.362488E-01  0.000000E+00
  4.418498E-01  9.396923E-03  1.000000E-01  4.508556E-01 -2.355865E-04 -2.832242E-17  2.245920E-02  2.718416E-03  7.440104E-05  1.664050E-01  0.000000E+00
  4.721105E-01  1.336586E-02  1.000000E-01  4.817343E-01  3.814412E-03 -5.664484E-17  2.023532E-02  2.567801E-03  7.121170E-05  2.191004E-01  0.000000E+00
  5.024968E-01  1.707268E-02  1.000000E-01  5.127412E-01  7.596934E-03  1.416121E-17  1.886902E-02  2.131643E-03  6.753008E-05  2.749918E-01  0.000000E+00
  5.328693E-01  2.018895E-02  1.000000E-01  5.437339E-01  1.077684E-02 -4.248363E-17  1.815569E-02  1.733996E-03  6.392619E-05  3.026031E-01  0.000000E+00
  5.630297E-01  2.283808E-02  1.000000E-01  5.745104E-01  1.348008E-02  1.416121E-17  1.773689E-02  1.466982E-03  6.115948E-05  3.104780E-01  0.000000E+00
  5.927917E-01  2.514588E-02  1.000000E-01  6.048801E-01  1.583501E-02  5.664484E-17  1.734435E-02  1.291478E-03  5.996381E-05  3.169465E-01  0.000000E+00
  6.219828E-01  2.723028E-02  1.000000E-01  6.346675E-01  1.796198E-02 -4.248363E-17  1.684153E-02  1.157808E-03  6.085483E-05  3.272989E-01  0.000000E+00
  6.504533E-01  2.911595E-02  1.000000E-01  6.637193E-01  1.988615E-02  5.664484E-17  1.624814E-02  1.006956E-03  6.419518E-05  3.419543E-01  0.000000E+00
  6.780742E-01  3.071590E-02  1.000000E-01  6.919043E-01  2.151878E-02  4.531587E-16  1.567471E-02  8.077122E-04  6.997274E-05  3.589161E-01  0.000000E+00
  7.047326E-01  3.192399E-02  1.000000E-01  7.191072E-01  2.275155E-02  0.000000E+00  1.523594E-02  5.668396E-04  7.763072E-05  3.744295E-01  0.000000E+00
  1.215943E-04  9.289923E-03  1.000000E-01  1.060952E-04 -3.447718E-04 -5.664484E-17 -4.803789E-02  8.574762E-02  7.322537E-05  7.345196E-01  0.000000E+00
  4.902502E-03  3.617213E-03  1.000000E-01  4.984642E-03 -6.133334E-03 -8.496726E-17 -1.872802E-02  2.135708E-02  5.576103E-05  9.453688E-01  0.000000E+00
  1.254908E-02 -3.141909E-05  1.000000E-01  1.278738E-02 -9.856481E-03 -2.832242E-17  6.858484E-03 -1.634116E-03  4.092918E-05  5.566409E-01  0.000000E+00
  2.163699E-02 -2.429905E-03  1.000000E-01  2.206090E-02 -1.230395E-02  1.416121E-17  2.131358E-02 -4.408789E-03  3.480028E-05  3.533753E-01  0.000000E+00
  3.184423E-02 -4.118978E-03  1.000000E-01  3.247659E-02 -1.402752E-02 -2.832242E-17  2.734982E-02 -3.626054E-03  3.399915E-05  3.176924E-01  0.000000E+00
  4.311596E-02 -5.309181E-03  1.000000E-01  4.397852E-02 -1.524203E-02 -8.496726E-17  2.963559E-02 -2.429628E-03  3.458299E-05  2.814921E-01  0.000000E+00
  5.546913E-02 -6.044223E-03  1.000000E-01  5.658398E-02 -1.599208E-02  1.416121E-17  3.032613E-02 -1.462323E-03  3.544827E-05  2.482566E-01  0.000000E+00
  6.891473E-02 -6.538382E-03  1.000000E-01  7.030417E-02 -1.649633E-02 -8.496726E-17  3.056781E-02 -9.354777E-04  3.643024E-05  2.355196E-01  0.000000E+00
  8.348882E-02 -6.899000E-03  1.000000E-01  8.517591E-02 -1.686432E-02  5.664484E-17  3.069295E-02 -5.916133E-04  3.741296E-05  2.227591E-01  0.000000E+00
  9.923792E-02 -7.120800E-03  1.000000E-01  1.012466E-01 -1.709065E-02 -9.912847E-17  3.066607E-02 -2.391060E-04  3.842500E-05  2.032414E-01  0.000000E+00
  1.162051E-01 -7.146959E-03  1.000000E-01  1.185603E-01 -1.711734E-02 -8.496726E-17  3.045347E-02  1.226614E-04  3.955064E-05  1.858050E-01  0.000000E+00
  1.344203E-01 -6.970922E-03  1.000000E-01  1.371475E-01 -1.693771E-02 -8.496726E-17  3.007955E-02  4.388649E-04  4.082013E-05  1.758505E-01  0.000000E+00
  1.539027E-01 -6.590851E-03  1.000000E-01  1.570279E-01 -1.654987E-02  4.389975E-16  2.956443E-02  7.109969E-04  4.223915E-05  1.700827E-01  0.000000E+00
  1.746592E-01 -5.996883E-03  1.000000E-01  1.782082E-01 -1.594378E-02  3.257078E-16  2.898365E-02  9.260836E-04  4.388190E-05  1.673234E-01  0.000000E+00
  1.966815E-01 -5.218674E-03  1.000000E-01  2.006803E-01 -1.514967E-02 -2.832242E-17  2.846941E-02  1.068176E-03  4.588577E-05  1.675706E-01  0.000000E+00
  2.199461E-01 -4.295187E-03  1.000000E-01  2.244200E-01 -1.420733E-02 -4.248363E-17  2.815387E-02  1.148768E-03  4.842685E-05  1.683620E-01  0.000000E+00
  2.444131E-01 -3.270450E-03  1.000000E-01  2.493867E-01 -1.316166E-02  3.823527E-16  2.814693E-02  1.172486E-03  5.171165E-05  1.679039E-01  0.000000E+00
  7.047326E-01  3.192399E-02  1.000000E-01  7.191072E-01  2.275155E-02 -2.832242E-17  1.523594E-02  5.668396E-04  7.763072E-05  3.744295E-01  0.000000E+00
  7.303325E-01  3.267369E-02  1.000000E-01  7.452299E-01  2.351655E-02 -2.832242E-17  1.501893E-02  2.993190E-04  8.638112E-05  3.860328E-01  0.000000E+00
  7.547951E-01  3.293981E-02  1.000000E-01  7.701921E-01  2.378811E-02  4.389975E-16  1.509335E-02  2.981460E-06  9.562378E-05  3.935779E-01  0.000000E+00
  7.780600E-01  3.270618E-02  1.000000E-01  7.939321E-01  2.354971E-02  1.416121E-17  1.551027E-02 -3.365761E-04  1.050370E-04  3.968872E-01  0.000000E+00
  8.000833E-01  3.198495E-02  1.000000E-01  8.164052E-01  2.281375E-02 -4.248363E-17  1.627970E-02 -7.338069E-04  1.144580E-04  3.952957E-01  0.000000E+00
  8.208376E-01  3.080914E-02  1.000000E-01  8.375834E-01  2.161392E-02 -2.832242E-17  1.733418E-02 -1.173611E-03  1.237222E-04  3.877649E-01  0.000000E+00
  8.403144E-01  2.928746E-02  1.000000E-01  8.574580E-01  2.006117E-02  4.389975E-16  1.851288E-02 -1.592058E-03  1.325568E-04  3.734780E-01  0.000000E+00
  8.585258E-01  2.758407E-02  1.000000E-01  8.760412E-01  1.832299E-02  3.965139E-16  1.961895E-02 -1.923099E-03  1.405399E-04  3.549252E-01  0.000000E+00
  8.754993E-01  2.584431E-02  1.000000E-01  8.933614E-01  1.654770E-02 -2.832242E-17  2.050792E-02 -2.148591E-03  1.471158E-04  3.363189E-01  0.000000E+00
  8.912718E-01  2.415308E-02  1.000000E-01  9.094561E-01  1.482194E-02 -2.832242E-17  2.116436E-02 -2.325724E-03  1.517758E-04  3.213506E-01  0.000000E+00
  9.058836E-01  2.250478E-02  1.000000E-01  9.243662E-01  1.313997E-02 -4.248363E-17  2.171378E-02 -2.539837E-03  1.544452E-04  3.106498E-01  0.000000E+00
  9.193796E-01  2.086452E-02  1.000000E-01  9.381379E-01  1.146621E-02 -5.664484E-17  2.235017E-02 -2.819100E-03  1.559136E-04  2.995535E-01  0.000000E+00
  9.318118E-01  1.923378E-02  1.000000E-01  9.508239E-01  9.802167E-03  4.248363E-17  2.327885E-02 -3.180382E-03  1.578480E-04  2.853815E-01  0.000000E+00
  9.432349E-01  1.760790E-02  1.000000E-01  9.624803E-01  8.143080E-03 -2.832242E-17  2.454043E-02 -3.640652E-03  1.614145E-04  2.686596E-01  0.000000E+00
  9.537058E-01  1.598726E-02  1.000000E-01  9.731651E-01  6.489346E-03  0.000000E+00  2.549179E-02 -4.098951E-03  1.639252E-04  2.437390E-01  0.000000E+00
  9.632829E-01  1.437681E-02  1.000000E-01  9.829378E-01  4.846006E-03 -2.832242E-17  2.452391E-02 -4.299107E-03  1.569258E-04  2.085290E-01  0.000000E+00
  9.720275E-01  1.280999E-02  1.000000E-01  9.918610E-01  3.247185E-03  0.000000E+00  2.083891E-02 -3.752825E-03  1.366665E-04  2.057266E-01  0.000000E+00
  9.800000E-01  1.130955E-02  1.000000E-01  9.999963E-01  1.716102E-03  1.416121E-17  1.383867E-02  4.461604E-03  1.064453E-04 -9.490557E-03  0.000000E+00
  1.215943E-04  9.970594E-03  1.000000E-01  1.060952E-04  3.498006E-04 -9.912847E-17  2.288682E-02  5.267545E-02  3.446552E-05  4.324406E-01  0.000000E+00
  7.278129E-05  9.855987E-03  1.000000E-01  5.628526E-05  2.328532E-04  1.416121E-17  1.548591E-02  7.597129E-02  4.744045E-05  2.670036E-01  0.000000E+00
  1.762252E-05  9.627794E-03  1.000000E-01  0.000000E+00  0.000000E+00  0.000000E+00 -1.302045E-02  1.250007E-01  7.022879E-05  3.042781E-01  0.000000E+00
  8.694958E-05  9.402553E-03  1.000000E-01  7.074290E-05 -2.298417E-04  0.000000E+00 -5.318953E-02  1.379689E-01  8.146778E-05  3.541122E-01  0.000000E+00
  1.215943E-04  9.289923E-03  1.000000E-01  1.060952E-04 -3.447718E-04 -4.248363E-17 -4.803789E-02  8.574762E-02  7.322537E-05  7.345196E-01  0.000000E+00
  9.800000E-01  1.130955E-02  1.000000E-01  9.999963E-01  1.716102E-03  0.000000E+00  1.383867E-02  4.461604E-03  1.064453E-04 -9.490557E-03  0.000000E+00
  9.800000E-01  1.147393E-02  1.000000E-01  9.999963E-01  1.883835E-03  0.000000E+00  4.474161E-03 -1.452917E-03 -1.153986E-05 -2.122136E-01  0.000000E+00
  9.800000E-01  1.180268E-02  1.000000E-01  9.999963E-01  2.219301E-03 -2.832242E-17 -4.420575E-04 -1.608904E-02 -1.626207E-04 -1.764460E-01  0.000000E+00
  9.800000E-01  1.213143E-02  1.000000E-01  9.999963E-01  2.554767E-03 -5.664484E-17  3.379959E-03 -1.978263E-02 -2.462811E-04 -1.944418E-01  0.000000E+00
  9.800000E-01  1.229581E-02  1.000000E-01  9.999963E-01  2.722500E-03  0.000000E+00  1.053939E-02 -1.318823E-02 -2.627972E-04 -5.750020E-02  0.000000E+00
  2.628044E-01  9.802527E-02  1.000000E-01  2.681536E-01  9.020279E-02 -2.832242E-17  5.466248E-02  4.034512E-03 -6.826534E-05 -1.204098E+00  0.000000E+00
  2.368706E-01  9.580019E-02  1.000000E-01  2.416902E-01  8.793228E-02  3.681915E-16  5.707352E-02  5.649474E-03 -5.606722E-05 -1.248461E+00  0.000000E+00
  2.121362E-01  9.301954E-02  1.000000E-01  2.164506E-01  8.509483E-02  1.416121E-17  5.954894E-02  7.550463E-03 -4.562921E-05 -1.283042E+00  0.000000E+00
  1.886687E-01  8.969992E-02  1.000000E-01  1.925039E-01  8.170742E-02 -4.248363E-17  6.190008E-02  9.713077E-03 -3.679980E-05 -1.302786E+00  0.000000E+00
  1.665185E-01  8.587353E-02  1.000000E-01  1.699012E-01  7.780288E-02  4.814811E-16  6.389550E-02  1.206833E-02 -2.935197E-05 -1.305154E+00  0.000000E+00
  1.457161E-01  8.159789E-02  1.000000E-01  1.486741E-01  7.343992E-02  4.531587E-16  6.538163E-02  1.453986E-02 -2.307281E-05 -1.291791E+00  0.000000E+00
  1.262764E-01  7.693361E-02  1.000000E-01  1.288373E-01  6.868039E-02  0.000000E+00  6.634365E-02  1.708863E-02 -1.774567E-05 -1.268052E+00  0.000000E+00
  1.081990E-01  7.194147E-02  1.000000E-01  1.103907E-01  6.358629E-02  0.000000E+00  6.682341E-02  1.968957E-02 -1.312212E-05 -1.241124E+00  0.000000E+00
  9.146971E-02  6.668487E-02  1.000000E-01  9.331979E-02  5.822234E-02  0.000000E+00  6.693695E-02  2.249766E-02 -8.981074E-06 -1.206128E+00  0.000000E+00
  7.608258E-02  6.116044E-02  1.000000E-01  7.761841E-02  5.258508E-02  0.000000E+00  6.664586E-02  2.568507E-02 -5.188978E-06 -1.144559E+00  0.000000E+00
  6.202881E-02  5.535838E-02  1.000000E-01  6.327762E-02  4.666453E-02 -5.664484E-17  6.561085E-02  2.911174E-02 -1.703014E-06 -1.039258E+00  0.000000E+00
  4.929579E-02  4.929637E-02  1.000000E-01  5.028456E-02  4.047871E-02 -8.496726E-17  6.347209E-02  3.222582E-02  1.490315E-06 -8.956557E-01  0.000000E+00
  3.782553E-02  4.308589E-02  1.000000E-01  3.858005E-02  3.414140E-02  4.248363E-17  6.037254E-02  3.481086E-02  4.488172E-06 -7.410732E-01  0.000000E+00
  2.757469E-02  3.678139E-02  1.000000E-01  2.811986E-02  2.770815E-02 -2.832242E-17  5.683237E-02  3.711702E-02  7.633712E-06 -6.231726E-01  0.000000E+00
  1.848362E-02  3.046013E-02  1.000000E-01  1.884313E-02  2.125779E-02  5.664484E-17  5.354650E-02  4.061909E-02  1.180901E-05 -5.253444E-01  0.000000E+00
  1.064273E-02  2.399649E-02  1.000000E-01  1.084210E-02  1.466214E-02  1.416121E-17  4.984136E-02  4.695147E-02  1.844981E-05 -2.854370E-01  0.000000E+00
  4.262692E-03  1.724062E-02  1.000000E-01  4.331766E-03  7.768304E-03  1.416121E-17  4.040478E-02  5.424144E-02  2.757140E-05  2.217891E-01  0.000000E+00
  1.215943E-04  9.970594E-03  1.000000E-01  1.060952E-04  3.498006E-04 -8.496726E-17  2.288682E-02  5.267545E-02  3.446552E-05  4.324406E-01  0.000000E+00
    1    2
    2    3
    3    4
    4    5
    5    6
    6    7
    7    8
    8    9
    9   10
   10   11
   11   12
   12   13
   13   14
   14   15
   15   16
   16   17
   18   19
   19   20
   20   21
   21   22
   22   23
   23   24
   24   25
   25   26
   26   27
   27   28
   28   29
   29   30
   30   31
   31   32
   32   33
   33   34
   35   36
   36   37
   37   38
   38   39
   39   40
   40   41
   41   42
   42   43
   43   44
   44   45
   45   46
   46   47
   47   48
   48   49
   49   50
   50   51
   52   53
   53   54
   54   55
   55   56
   56   57
   57   58
   58   59
   59   60
   60   61
   61   62
   62   63
   63   64
   64   65
   65   66
   66   67
   67   68
   69   70
   70   71
   71   72
   72   73
   73   74
   74   75
   75   76
   76   77
   77   78
   78   79
   79   80
   80   81
   81   82
   82   83
   83   84
   84   85
   85   86
   87   88
   88   89
   89   90
   90   91
   92   93
   93   94
   94   95
   95   96
   97   98
   98   99
   99  100
  100  101
  101  102
  102  103
  103  104
  104  105
  105  106
  106  107
  107  108
  108  109
  109  110
  110  111
  111  112
  112  113
  113  114
Zone T= "Slice_0002 None Relative Regular z = 0.36666667"
 Nodes =          114  Elements=          106  ZONETYPE=FELINESEG
 DATAPACKING=POINT
  7.301402E-01  6.617932E-02  3.666667E-01  7.450351E-01  5.774131E-02 -5.664495E-17  2.564719E-02 -4.234781E-03 -5.251280E-04 -4.273056E-01  0.000000E+00
  7.043967E-01  7.029525E-02  3.666667E-01  7.187658E-01  6.194131E-02 -1.132899E-16  2.700110E-02 -4.159651E-03 -4.877710E-04 -4.628989E-01  0.000000E+00
  6.775455E-01  7.429062E-02  3.666667E-01  6.913662E-01  6.601828E-02  3.058827E-14  2.819996E-02 -4.040251E-03 -4.509088E-04 -4.969458E-01  0.000000E+00
  6.496792E-01  7.814103E-02  3.666667E-01  6.629307E-01  6.994734E-02 -1.699349E-16  2.927032E-02 -3.899387E-03 -4.190906E-04 -5.316314E-01  0.000000E+00
  6.209097E-01  8.183912E-02  3.666667E-01  6.335736E-01  7.372096E-02  0.000000E+00  3.029096E-02 -3.745243E-03 -3.956077E-04 -5.683204E-01  0.000000E+00
  5.913667E-01  8.535166E-02  3.666667E-01  6.034272E-01  7.730524E-02  1.132899E-16  3.135751E-02 -3.573436E-03 -3.813194E-04 -6.073184E-01  0.000000E+00
  5.611982E-01  8.864136E-02  3.666667E-01  5.726426E-01  8.066213E-02  2.265798E-16  3.254782E-02 -3.382159E-03 -3.747877E-04 -6.496722E-01  0.000000E+00
  5.305654E-01  9.166458E-02  3.666667E-01  5.413840E-01  8.374710E-02  1.132899E-16  3.393048E-02 -3.167368E-03 -3.731772E-04 -6.973235E-01  0.000000E+00
  4.996398E-01  9.438055E-02  3.666667E-01  5.098268E-01  8.651854E-02 -1.699349E-16  3.557858E-02 -2.910430E-03 -3.731437E-04 -7.516932E-01  0.000000E+00
  4.685986E-01  9.672687E-02  3.666667E-01  4.781516E-01  8.891278E-02  1.132899E-16  3.755607E-02 -2.570744E-03 -3.714532E-04 -8.116367E-01  0.000000E+00
  4.376215E-01  9.862169E-02  3.666667E-01  4.465418E-01  9.084631E-02 -5.664495E-17  3.986351E-02 -2.104241E-03 -3.651506E-04 -8.740347E-01  0.000000E+00
  4.068895E-01  9.998431E-02  3.666667E-01  4.151821E-01  9.223676E-02 -5.664495E-17  4.241205E-02 -1.477322E-03 -3.518913E-04 -9.352527E-01  0.000000E+00
  3.765814E-01  1.007508E-01  3.666667E-01  3.842550E-01  9.301888E-02  5.664495E-17  4.504091E-02 -6.914604E-04 -3.305303E-04 -9.938623E-01  0.000000E+00
  3.468696E-01  1.009095E-01  3.666667E-01  3.539363E-01  9.318088E-02 -5.664495E-17  4.762739E-02  2.457492E-04 -3.020584E-04 -1.049003E+00  0.000000E+00
  3.179133E-01  1.004540E-01  3.666667E-01  3.243886E-01  9.271609E-02  0.000000E+00  5.014004E-02  1.345938E-03 -2.694642E-04 -1.099357E+00  0.000000E+00
  2.898519E-01  9.938590E-02  3.666667E-01  2.957540E-01  9.162613E-02  5.664495E-17  5.257591E-02  2.600578E-03 -2.359880E-04 -1.146946E+00  0.000000E+00
  2.628044E-01  9.773396E-02  3.666667E-01  2.681541E-01  8.994045E-02  5.664495E-17  5.496619E-02  3.998277E-03 -2.038639E-04 -1.195158E+00  0.000000E+00
  9.800000E-01  1.143161E-02  3.666667E-01  9.999982E-01  1.875395E-03  5.664495E-17  1.054399E-02 -1.303648E-02 -7.473100E-04 -5.644578E-02  0.000000E+00
  9.720124E-01  1.353774E-02  3.666667E-01  9.918475E-01  4.024540E-03  0.000000E+00  1.215401E-02 -3.274639E-03 -6.921891E-04  7.006250E-02  0.000000E+00
  9.632634E-01  1.585798E-02  3.666667E-01  9.829198E-01  6.392168E-03  1.132899E-16  9.237339E-03 -2.385310E-03 -5.901507E-04  2.326609E-02  0.000000E+00
  9.536907E-01  1.838033E-02  3.666667E-01  9.731516E-01  8.966045E-03 -5.664495E-17  7.423889E-03 -1.943358E-03 -5.202741E-04  5.374849E-03  0.000000E+00
  9.432303E-01  2.108867E-02  3.666667E-01  9.624775E-01  1.172970E-02 -1.699349E-16  7.045471E-03 -1.806028E-03 -4.963144E-04 -1.438441E-02  0.000000E+00
  9.318220E-01  2.398623E-02  3.666667E-01  9.508362E-01  1.468644E-02 -5.664495E-17  7.785739E-03 -1.953618E-03 -5.046396E-04 -4.000809E-02  0.000000E+00
  9.194070E-01  2.707609E-02  3.666667E-01  9.381676E-01  1.783941E-02  0.000000E+00  9.155758E-03 -2.249533E-03 -5.278886E-04 -6.747291E-02  0.000000E+00
  9.059278E-01  3.035647E-02  3.666667E-01  9.244131E-01  2.118679E-02 -1.132899E-16  1.075178E-02 -2.580479E-03 -5.541223E-04 -9.663921E-02  0.000000E+00
  8.913299E-01  3.382176E-02  3.666667E-01  9.095171E-01  2.472286E-02  0.000000E+00  1.237855E-02 -2.896349E-03 -5.774298E-04 -1.280307E-01  0.000000E+00
  8.755643E-01  3.746721E-02  3.666667E-01  8.934295E-01  2.844276E-02 -1.132899E-16  1.400906E-02 -3.189747E-03 -5.958449E-04 -1.617559E-01  0.000000E+00
  8.585885E-01  4.128292E-02  3.666667E-01  8.761069E-01  3.233641E-02  3.098479E-14  1.568054E-02 -3.463178E-03 -6.088975E-04 -1.974013E-01  0.000000E+00
  8.403666E-01  4.524780E-02  3.666667E-01  8.575129E-01  3.638227E-02  3.098479E-14  1.740175E-02 -3.711170E-03 -6.155849E-04 -2.343884E-01  0.000000E+00
  8.208730E-01  4.933381E-02  3.666667E-01  8.376212E-01  4.055174E-02 -5.664495E-17  1.914105E-02 -3.923238E-03 -6.144152E-04 -2.724412E-01  0.000000E+00
  8.000947E-01  5.351022E-02  3.666667E-01  8.164185E-01  4.481345E-02 -5.664495E-17  2.086373E-02 -4.089576E-03 -6.044916E-04 -3.113547E-01  0.000000E+00
  7.780326E-01  5.773978E-02  3.666667E-01  7.939057E-01  4.912940E-02 -1.132899E-16  2.254288E-02 -4.201403E-03 -5.857250E-04 -3.507141E-01  0.000000E+00
  7.547032E-01  6.197923E-02  3.666667E-01  7.700998E-01  5.345544E-02  3.075821E-14  2.414965E-02 -4.250771E-03 -5.587471E-04 -3.896988E-01  0.000000E+00
  7.301402E-01  6.617932E-02  3.666667E-01  7.450351E-01  5.774131E-02 -5.664495E-17  2.564719E-02 -4.234781E-03 -5.251280E-04 -4.273056E-01  0.000000E+00
  2.444131E-01 -3.542250E-03  3.666667E-01  2.493871E-01 -1.340430E-02  3.092814E-14  2.842788E-02  1.151453E-03  1.634867E-04  1.646907E-01  0.000000E+00
  2.700250E-01 -2.510777E-03  3.666667E-01  2.755222E-01 -1.235176E-02  5.664495E-17  2.876469E-02  1.139514E-03  1.738774E-04  1.610537E-01  0.000000E+00
  2.967058E-01 -1.473740E-03  3.666667E-01  3.027480E-01 -1.129354E-02 -5.664495E-17  2.922676E-02  1.179693E-03  1.863934E-04  1.510028E-01  0.000000E+00
  3.243554E-01 -3.189101E-04  3.666667E-01  3.309622E-01 -1.011513E-02  3.070156E-14  2.943409E-02  1.356488E-03  2.003878E-04  1.358832E-01  0.000000E+00
  3.528511E-01  1.117555E-03  3.666667E-01  3.600401E-01 -8.649322E-03 -5.664495E-17  2.896228E-02  1.692959E-03  2.142597E-04  1.222559E-01  0.000000E+00
  3.820469E-01  3.068751E-03  3.666667E-01  3.898321E-01 -6.658273E-03 -1.132899E-16  2.754588E-02  2.130953E-03  2.257334E-04  1.184996E-01  0.000000E+00
  4.117740E-01  5.709592E-03  3.666667E-01  4.201664E-01 -3.963494E-03  1.132899E-16  2.527466E-02  2.535718E-03  2.328482E-04  1.322099E-01  0.000000E+00
  4.418498E-01  9.113340E-03  3.666667E-01  4.508564E-01 -4.902257E-04 -1.699349E-16  2.260780E-02  2.758869E-03  2.350859E-04  1.634998E-01  0.000000E+00
  4.721105E-01  1.312156E-02  3.666667E-01  4.817353E-01  3.599859E-03 -1.132899E-16  2.034243E-02  2.600144E-03  2.346490E-04  2.174560E-01  0.000000E+00
  5.024968E-01  1.685975E-02  3.666667E-01  5.127422E-01  7.414405E-03  5.664495E-17  1.895521E-02  2.151421E-03  2.340268E-04  2.745247E-01  0.000000E+00
  5.328693E-01  1.998884E-02  3.666667E-01  5.437350E-01  1.060740E-02 -2.265798E-16  1.824358E-02  1.739457E-03  2.344699E-04  3.031140E-01  0.000000E+00
  5.630297E-01  2.262289E-02  3.666667E-01  5.745115E-01  1.329525E-02  1.132899E-16  1.784895E-02  1.456693E-03  2.374178E-04  3.116553E-01  0.000000E+00
  5.927917E-01  2.488118E-02  3.666667E-01  6.048813E-01  1.559967E-02  0.000000E+00  1.750152E-02  1.264583E-03  2.436621E-04  3.183614E-01  0.000000E+00
  6.219828E-01  2.687861E-02  3.666667E-01  6.346687E-01  1.763789E-02  5.664495E-17  1.706030E-02  1.114672E-03  2.532355E-04  3.284713E-01  0.000000E+00
  6.504533E-01  2.864033E-02  3.666667E-01  6.637206E-01  1.943560E-02 -1.132899E-16  1.653499E-02  9.506889E-04  2.661967E-04  3.423014E-01  0.000000E+00
  6.780742E-01  3.009245E-02  3.666667E-01  6.919057E-01  2.091738E-02  3.092814E-14  1.602172E-02  7.449299E-04  2.824086E-04  3.577971E-01  0.000000E+00
  7.047326E-01  3.115196E-02  3.666667E-01  7.191086E-01  2.199852E-02 -5.664495E-17  1.562521E-02  5.035801E-04  3.011524E-04  3.716356E-01  0.000000E+00
  1.215943E-04  9.255826E-03  3.666667E-01  1.060954E-04 -3.448291E-04 -2.265798E-16 -4.704214E-02  8.402577E-02  2.263605E-04  7.390366E-01  0.000000E+00
  4.902502E-03  3.580504E-03  3.666667E-01  4.984651E-03 -6.136068E-03  5.664495E-17 -1.802560E-02  2.071877E-02  1.767113E-04  9.431186E-01  0.000000E+00
  1.254908E-02 -7.250648E-05  3.666667E-01  1.278741E-02 -9.863690E-03  2.265798E-16  7.263580E-03 -1.802384E-03  1.308366E-04  5.524222E-01  0.000000E+00
  2.163699E-02 -2.476509E-03  3.666667E-01  2.206094E-02 -1.231679E-02  5.664495E-17  2.156207E-02 -4.476638E-03  1.113590E-04  3.496538E-01  0.000000E+00
  3.184423E-02 -4.172182E-03  3.666667E-01  3.247665E-02 -1.404710E-02  0.000000E+00  2.757378E-02 -3.674068E-03  1.092345E-04  3.146744E-01  0.000000E+00
  4.311596E-02 -5.370167E-03  3.666667E-01  4.397861E-02 -1.526955E-02 -1.132899E-16  2.987139E-02 -2.469701E-03  1.115937E-04  2.788414E-01  0.000000E+00
  5.546913E-02 -6.114330E-03  3.666667E-01  5.658409E-02 -1.602892E-02 -5.664495E-17  3.057130E-02 -1.496825E-03  1.147890E-04  2.457695E-01  0.000000E+00
  6.891473E-02 -6.619119E-03  3.666667E-01  7.030431E-02 -1.654402E-02  1.699349E-16  3.081847E-02 -9.675873E-04  1.183608E-04  2.331802E-01  0.000000E+00
  8.348882E-02 -6.992074E-03  3.666667E-01  8.517607E-02 -1.692459E-02  2.832248E-16  3.094830E-02 -6.227300E-04  1.219007E-04  2.205481E-01  0.000000E+00
  9.923792E-02 -7.228141E-03  3.666667E-01  1.012468E-01 -1.716548E-02 -1.132899E-16  3.092506E-02 -2.690473E-04  1.254595E-04  2.010944E-01  0.000000E+00
  1.162051E-01 -7.270718E-03  3.666667E-01  1.185605E-01 -1.720892E-02  5.664495E-17  3.071395E-02  9.416171E-05  1.293018E-04  1.836585E-01  0.000000E+00
  1.344203E-01 -7.113453E-03  3.666667E-01  1.371478E-01 -1.704845E-02  0.000000E+00  3.033923E-02  4.116517E-04  1.334989E-04  1.736624E-01  0.000000E+00
  1.539027E-01 -6.754659E-03  3.666667E-01  1.570282E-01 -1.668232E-02  3.064492E-14  2.982173E-02  6.850100E-04  1.379776E-04  1.678132E-01  0.000000E+00
  1.746592E-01 -6.184527E-03  3.666667E-01  1.782086E-01 -1.610055E-02  3.109808E-14  2.923915E-02  9.012304E-04  1.428700E-04  1.649198E-01  0.000000E+00
  1.966815E-01 -5.432598E-03  3.666667E-01  2.006807E-01 -1.533326E-02 -1.132899E-16  2.872686E-02  1.044338E-03  1.484785E-04  1.649696E-01  0.000000E+00
  2.199461E-01 -4.537441E-03  3.666667E-01  2.244205E-01 -1.441982E-02 -1.699349E-16  2.841951E-02  1.126110E-03  1.551802E-04  1.654929E-01  0.000000E+00
  2.444131E-01 -3.542250E-03  3.666667E-01  2.493871E-01 -1.340430E-02  3.092814E-14  2.842788E-02  1.151453E-03  1.634867E-04  1.646907E-01  0.000000E+00
  7.047326E-01  3.115196E-02  3.666667E-01  7.191086E-01  2.199852E-02 -5.664495E-17  1.562521E-02  5.035801E-04  3.011524E-04  3.716356E-01  0.000000E+00