 Title = "ADflow Slice Data"
Variables =  "CoordinateX"  "CoordinateY"  "CoordinateZ"  "XoC"  "YoC"  "ZoC" "VelocityX" "VelocityY" "VelocityZ" "CoefPressure" "Mach" 
Zone T= "Slice_0001 None Relative Regular z = 0.10000000"
 Nodes =          114  Elements=          106  ZONETYPE=FELINESEG
 DATAPACKING=POINT
  7.301402E-01  4.784245E-02  1.000000E-01  7.450319E-01  4.875946E-02  1.416118E-17  2.667465E-02 -3.865369E-03 -5.281062E-05 -3.056002E-01  0.000000E+00
  7.043967E-01  5.147958E-02  1.000000E-01  7.187626E-01  5.247087E-02 -4.248353E-17  2.783823E-02 -3.828682E-03 -5.300883E-05 -3.357796E-01  0.000000E+00
  6.775455E-01  5.506940E-02  1.000000E-01  6.913631E-01  5.613399E-02  3.965129E-16  2.900428E-02 -3.761164E-03 -5.305047E-05 -3.666265E-01  0.000000E+00
  6.496792E-01  5.856875E-02  1.000000E-01  6.629278E-01  5.970479E-02  4.248353E-17  3.017907E-02 -3.659632E-03 -5.293246E-05 -3.979794E-01  0.000000E+00
  6.209097E-01  6.193166E-02  1.000000E-01  6.335708E-01  6.313637E-02 -2.832235E-17  3.137165E-02 -3.519517E-03 -5.266114E-05 -4.291631E-01  0.000000E+00
  5.913667E-01  6.510569E-02  1.000000E-01  6.034245E-01  6.637522E-02 -2.832235E-17  3.259023E-02 -3.344941E-03 -5.223705E-05 -4.603099E-01  0.000000E+00
  5.611982E-01  6.805577E-02  1.000000E-01  5.726400E-01  6.938554E-02  0.000000E+00  3.386228E-02 -3.140359E-03 -5.166682E-05 -4.923232E-01  0.000000E+00
  5.305654E-01  7.074065E-02  1.000000E-01  5.413816E-01  7.212525E-02 -5.664470E-17  3.524152E-02 -2.901794E-03 -5.096367E-05 -5.266101E-01  0.000000E+00
  4.996398E-01  7.312153E-02  1.000000E-01  5.098245E-01  7.455474E-02  0.000000E+00  3.679250E-02 -2.611117E-03 -5.013518E-05 -5.643113E-01  0.000000E+00
  4.685986E-01  7.513741E-02  1.000000E-01  4.781495E-01  7.661179E-02  1.416118E-17  3.855762E-02 -2.228194E-03 -4.918286E-05 -6.042908E-01  0.000000E+00
  4.376215E-01  7.670739E-02  1.000000E-01  4.465399E-01  7.821383E-02 -8.496705E-17  4.049600E-02 -1.711886E-03 -4.807767E-05 -6.431122E-01  0.000000E+00
  4.068895E-01  7.775135E-02  1.000000E-01  4.151803E-01  7.927911E-02  0.000000E+00  4.246775E-02 -1.037112E-03 -4.677846E-05 -6.751178E-01  0.000000E+00
  3.765814E-01  7.820585E-02  1.000000E-01  3.842533E-01  7.974288E-02 -5.664470E-17  4.425939E-02 -2.241573E-04 -4.524797E-05 -6.953608E-01  0.000000E+00
  3.468696E-01  7.806213E-02  1.000000E-01  3.539348E-01  7.959623E-02 -5.664470E-17  4.566910E-02  6.477045E-04 -4.346147E-05 -7.038037E-01  0.000000E+00
  3.179133E-01  7.737655E-02  1.000000E-01  3.243872E-01  7.889665E-02 -2.832235E-17  4.663566E-02  1.483854E-03 -4.143089E-05 -7.060859E-01  0.000000E+00
  2.898519E-01  7.624683E-02  1.000000E-01  2.957527E-01  7.774386E-02 -4.248353E-17  4.731163E-02  2.255603E-03 -3.922633E-05 -7.094722E-01  0.000000E+00
  2.628044E-01  7.474638E-02  1.000000E-01  2.681530E-01  7.621277E-02  0.000000E+00  4.797613E-02  3.011745E-03 -3.692490E-05 -7.191343E-01  0.000000E+00
  9.800000E-01  3.499881E-03  1.000000E-01  9.999938E-01  3.511407E-03 -2.832235E-17  1.140560E-02 -1.047929E-02 -5.004558E-05 -2.512009E-02  0.000000E+00
  9.720124E-01  5.119113E-03  1.000000E-01  9.918431E-01  5.163703E-03 -2.832235E-17  1.506811E-02 -3.138043E-03 -5.243408E-05  9.551047E-02  0.000000E+00
  9.632634E-01  6.916354E-03  1.000000E-01  9.829155E-01  6.997644E-03 -2.832235E-17  1.377691E-02 -2.776929E-03 -4.709148E-05  4.888579E-02  0.000000E+00
  9.536907E-01  8.879308E-03  1.000000E-01  9.731473E-01  9.000683E-03 -2.832235E-17  1.283637E-02 -2.619311E-03 -4.298313E-05  2.974906E-02  0.000000E+00
  9.432303E-01  1.099213E-02  1.000000E-01  9.624732E-01  1.115664E-02  1.416118E-17  1.280357E-02 -2.568055E-03 -4.137978E-05  1.006283E-02  0.000000E+00
  9.318220E-01  1.325918E-02  1.000000E-01  9.508320E-01  1.346999E-02  1.416118E-17  1.354662E-02 -2.670640E-03 -4.166526E-05 -1.321106E-02  0.000000E+00
  9.194070E-01  1.568563E-02  1.000000E-01  9.381635E-01  1.594600E-02 -8.496705E-17  1.472872E-02 -2.854263E-03 -4.300821E-05 -3.662115E-02  0.000000E+00
  9.059278E-01  1.827298E-02  1.000000E-01  9.244090E-01  1.858618E-02 -5.664470E-17  1.605121E-02 -3.052449E-03 -4.473977E-05 -6.012654E-02  0.000000E+00
  8.913299E-01  2.102023E-02  1.000000E-01  9.095130E-01  2.138953E-02  0.000000E+00  1.734918E-02 -3.234674E-03 -4.641126E-05 -8.432389E-02  0.000000E+00
  8.755643E-01  2.392883E-02  1.000000E-01  8.934256E-01  2.435752E-02 -2.832235E-17  1.857570E-02 -3.393935E-03 -4.781875E-05 -1.095641E-01  0.000000E+00
  8.585885E-01  2.699684E-02  1.000000E-01  8.761030E-01  2.748818E-02  4.106741E-16  1.974972E-02 -3.529275E-03 -4.895587E-05 -1.356848E-01  0.000000E+00
  8.403666E-01  3.021298E-02  1.000000E-01  8.575091E-01  3.077000E-02  3.965129E-16  2.090151E-02 -3.641098E-03 -4.989609E-05 -1.623709E-01  0.000000E+00
  8.208730E-01  3.356094E-02  1.000000E-01  8.376175E-01  3.418631E-02 -8.496705E-17  2.204797E-02 -3.732051E-03 -5.070110E-05 -1.896782E-01  0.000000E+00
  8.000947E-01  3.702346E-02  1.000000E-01  8.164149E-01  3.771954E-02 -2.832235E-17  2.319638E-02 -3.803016E-03 -5.139813E-05 -2.177672E-01  0.000000E+00
  7.780326E-01  4.057805E-02  1.000000E-01  7.939022E-01  4.134672E-02 -2.832235E-17  2.435039E-02 -3.851447E-03 -5.198927E-05 -2.466168E-01  0.000000E+00
  7.547032E-01  4.419639E-02  1.000000E-01  7.700964E-01  4.503895E-02  4.389964E-16  2.551089E-02 -3.873016E-03 -5.246519E-05 -2.759482E-01  0.000000E+00
  7.301402E-01  4.784245E-02  1.000000E-01  7.450319E-01  4.875946E-02  2.832235E-17  2.667465E-02 -3.865369E-03 -5.281062E-05 -3.056002E-01  0.000000E+00
  2.444131E-01 -2.628960E-02  1.000000E-01  2.493860E-01 -2.688638E-02  3.681906E-16  3.148458E-02  7.743970E-04  3.293571E-05 -1.221592E-01  0.000000E+00
  2.700250E-01 -2.555808E-02  1.000000E-01  2.755210E-01 -2.613992E-02 -4.248353E-17  3.129322E-02  1.005401E-03  3.382801E-05 -1.127997E-01  0.000000E+00
  2.967058E-01 -2.461214E-02  1.000000E-01  3.027466E-01 -2.517467E-02 -2.832235E-17  3.113294E-02  1.265520E-03  3.467039E-05 -1.076729E-01  0.000000E+00
  3.243554E-01 -2.335054E-02  1.000000E-01  3.309608E-01 -2.388731E-02  4.248353E-16  3.064379E-02  1.607642E-03  3.537562E-05 -1.051372E-01  0.000000E+00
  3.528511E-01 -2.166171E-02  1.000000E-01  3.600385E-01 -2.216399E-02 -4.248353E-17  2.946129E-02  2.005844E-03  3.584082E-05 -9.808812E-02  0.000000E+00
  3.820469E-01 -1.940793E-02  1.000000E-01  3.898304E-01 -1.986419E-02  5.664470E-17  2.735297E-02  2.401663E-03  3.593516E-05 -8.059129E-02  0.000000E+00
  4.117740E-01 -1.645700E-02  1.000000E-01  4.201645E-01 -1.685299E-02 -5.664470E-17  2.441663E-02  2.705408E-03  3.558819E-05 -4.821714E-02  0.000000E+00
  4.418498E-01 -1.273751E-02  1.000000E-01  4.508545E-01 -1.305755E-02 -2.832235E-17  2.116978E-02  2.806897E-03  3.490544E-05 -9.486764E-05  0.000000E+00
  4.721105E-01 -8.409133E-03  1.000000E-01  4.817331E-01 -8.640792E-03 -5.664470E-17  1.848920E-02  2.564593E-03  3.430184E-05  6.978515E-02  0.000000E+00
  5.024968E-01 -4.346204E-03  1.000000E-01  5.127399E-01 -4.494898E-03  1.416118E-17  1.688987E-02  2.103747E-03  3.402990E-05  1.403023E-01  0.000000E+00
  5.328693E-01 -8.885906E-04  1.000000E-01  5.437326E-01 -9.666789E-04 -4.248353E-17  1.614968E-02  1.718488E-03  3.400810E-05  1.783722E-01  0.000000E+00
  5.630297E-01  2.076042E-03  1.000000E-01  5.745090E-01  2.058492E-03  1.416118E-17  1.585446E-02  1.470005E-03  3.419941E-05  1.929246E-01  0.000000E+00
  5.927917E-01  4.665036E-03  1.000000E-01  6.048786E-01  4.700354E-03  5.664470E-17  1.568634E-02  1.309238E-03  3.450174E-05  2.037495E-01  0.000000E+00
  6.219828E-01  6.991245E-03  1.000000E-01  6.346659E-01  7.074065E-03 -4.248353E-17  1.547206E-02  1.186081E-03  3.475311E-05  2.170804E-01  0.000000E+00
  6.504533E-01  9.078396E-03  1.000000E-01  6.637177E-01  9.203836E-03  5.664470E-17  1.518609E-02  1.053556E-03  3.489330E-05  2.330897E-01  0.000000E+00
  6.780742E-01  1.087504E-02  1.000000E-01  6.919026E-01  1.103717E-02  4.531576E-16  1.488176E-02  8.958037E-04  3.495179E-05  2.494283E-01  0.000000E+00
  7.047326E-01  1.233873E-02  1.000000E-01  7.191054E-01  1.253075E-02  0.000000E+00  1.463236E-02  7.184397E-04  3.499087E-05  2.638202E-01  0.000000E+00
  1.215943E-04 -2.881100E-04  1.000000E-01  1.060950E-04 -3.539364E-04 -5.664470E-17  2.704825E-02 -5.685799E-02  3.558263E-05  1.071151E+00  0.000000E+00
  4.902502E-03 -6.371455E-03  1.000000E-01  4.984629E-03 -6.561505E-03 -8.496705E-17  4.614522E-02 -4.076652E-02  2.251589E-05  6.451017E-01  0.000000E+00
  1.254908E-02 -1.066705E-02  1.000000E-01  1.278735E-02 -1.094482E-02 -2.832235E-17  4.723448E-02 -2.209144E-02  1.749533E-05  1.398731E-02  0.000000E+00
  2.163699E-02 -1.381844E-02  1.000000E-01  2.206084E-02 -1.416056E-02  1.416118E-17  4.178200E-02 -1.248825E-02  1.769490E-05 -1.262196E-01  0.000000E+00
  3.184423E-02 -1.633190E-02  1.000000E-01  3.247651E-02 -1.672534E-02 -2.832235E-17  3.879451E-02 -8.320964E-03  1.949085E-05 -9.412905E-02  0.000000E+00
  4.311596E-02 -1.840554E-02  1.000000E-01  4.397841E-02 -1.884133E-02 -8.496705E-17  3.740936E-02 -5.973391E-03  2.102721E-05 -9.609531E-02  0.000000E+00
  5.546913E-02 -2.007530E-02  1.000000E-01  5.658384E-02 -2.054519E-02  1.416118E-17  3.639777E-02 -4.459458E-03  2.233470E-05 -1.143403E-01  0.000000E+00
  6.891473E-02 -2.154561E-02  1.000000E-01  7.030400E-02 -2.204552E-02 -8.496705E-17  3.582656E-02 -3.634940E-03  2.364878E-05 -1.138992E-01  0.000000E+00
  8.348882E-02 -2.291388E-02  1.000000E-01  8.517570E-02 -2.344173E-02  5.664470E-17  3.561401E-02 -3.076282E-03  2.490781E-05 -1.153328E-01  0.000000E+00
  9.923792E-02 -2.416312E-02  1.000000E-01  1.012464E-01 -2.471648E-02 -9.912823E-17  3.546851E-02 -2.509432E-03  2.608308E-05 -1.285318E-01  0.000000E+00
  1.162051E-01 -2.522155E-02  1.000000E-01  1.185600E-01 -2.579652E-02 -8.496705E-17  3.520682E-02 -1.910536E-03  2.722013E-05 -1.428473E-01  0.000000E+00
  1.344203E-01 -2.606351E-02  1.000000E-01  1.371472E-01 -2.665568E-02 -8.496705E-17  3.477710E-02 -1.337273E-03  2.832375E-05 -1.496075E-01  0.000000E+00
  1.539027E-01 -2.666387E-02  1.000000E-01  1.570275E-01 -2.726830E-02  4.389964E-16  3.414840E-02 -7.891504E-04  2.934737E-05 -1.510819E-01  0.000000E+00
  1.746592E-01 -2.698525E-02  1.000000E-01  1.782078E-01 -2.759624E-02  3.257070E-16  3.337347E-02 -2.886090E-04  3.028938E-05 -1.484153E-01  0.000000E+00
  1.966815E-01 -2.702590E-02  1.000000E-01  2.006798E-01 -2.763772E-02 -2.832235E-17  3.258484E-02  1.359443E-04  3.118341E-05 -1.413689E-01  0.000000E+00
  2.199461E-01 -2.679073E-02  1.000000E-01  2.244195E-01 -2.739775E-02 -4.248353E-17  3.191809E-02  4.900903E-04  3.205613E-05 -1.321215E-01  0.000000E+00
  2.444131E-01 -2.628960E-02  1.000000E-01  2.493860E-01 -2.688638E-02  3.823517E-16  3.148458E-02  7.743970E-04  3.293571E-05 -1.221592E-01  0.000000E+00
  7.047326E-01  1.233873E-02  1.000000E-01  7.191054E-01  1.253075E-02 -2.832235E-17  1.463236E-02  7.184397E-04  3.499087E-05  2.638202E-01  0.000000E+00
  7.303325E-01  1.343670E-02  1.000000E-01  7.452281E-01  1.365113E-02 -2.832235E-17  1.451484E-02  5.258276E-04  3.507957E-05  2.755096E-01  0.000000E+00
  7.547951E-01  1.415232E-02  1.000000E-01  7.701902E-01  1.438137E-02  4.389964E-16  1.460957E-02  3.123727E-04  3.528763E-05  2.844264E-01  0.000000E+00
  7.780600E-01  1.446251E-02  1.000000E-01  7.939302E-01  1.469789E-02  1.416118E-17  1.498754E-02  6.635672E-05  3.567774E-05  2.899374E-01  0.000000E+00
  8.000833E-01  1.436443E-02  1.000000E-01  8.164032E-01  1.459781E-02 -4.248353E-17  1.567888E-02 -2.223323E-04  3.628334E-05  2.911185E-01  0.000000E+00
  8.208376E-01  1.387297E-02  1.000000E-01  8.375813E-01  1.409632E-02 -2.832235E-17  1.662847E-02 -5.378061E-04  3.706261E-05  2.868507E-01  0.000000E+00
  8.403144E-01  1.307840E-02  1.000000E-01  8.574559E-01  1.328552E-02  4.389964E-16  1.767656E-02 -8.224370E-04  3.787986E-05  2.763166E-01  0.000000E+00
  8.585258E-01  1.212761E-02  1.000000E-01  8.760391E-01  1.231531E-02  3.965129E-16  1.862101E-02 -1.020835E-03  3.856696E-05  2.620487E-01  0.000000E+00
  8.754993E-01  1.115070E-02  1.000000E-01  8.933592E-01  1.131846E-02 -2.832235E-17  1.931441E-02 -1.124157E-03  3.898063E-05  2.483171E-01  0.000000E+00
  8.912718E-01  1.021967E-02  1.000000E-01  9.094538E-01  1.036842E-02 -2.832235E-17  1.974383E-02 -1.190113E-03  3.905555E-05  2.387883E-01  0.000000E+00
  9.058836E-01  9.318496E-03  1.000000E-01  9.243640E-01  9.448839E-03 -4.248353E-17  2.003417E-02 -1.293910E-03  3.883807E-05  2.340188E-01  0.000000E+00
  9.193796E-01  8.404273E-03  1.000000E-01  9.381356E-01  8.515947E-03 -5.664470E-17  2.036281E-02 -1.450521E-03  3.850615E-05  2.294540E-01  0.000000E+00
  9.318118E-01  7.472353E-03  1.000000E-01  9.508216E-01  7.564997E-03  4.248353E-17  2.090149E-02 -1.660259E-03  3.841245E-05  2.225629E-01  0.000000E+00
  9.432349E-01  6.513678E-03  1.000000E-01  9.624779E-01  6.586745E-03 -2.832235E-17  2.169087E-02 -1.932592E-03  3.883957E-05  2.142249E-01  0.000000E+00
  9.537058E-01  5.525673E-03  1.000000E-01  9.731627E-01  5.578565E-03  0.000000E+00  2.227306E-02 -2.219434E-03  3.931743E-05  2.001263E-01  0.000000E+00
  9.632829E-01  4.511481E-03  1.000000E-01  9.829354E-01  4.543664E-03 -2.832235E-17  2.149588E-02 -2.422237E-03  3.823600E-05  1.777242E-01  0.000000E+00
  9.720275E-01  3.503606E-03  1.000000E-01  9.918586E-01  3.515208E-03  0.000000E+00  1.870367E-02 -2.161138E-03  3.449211E-05  1.864372E-01  0.000000E+00
  9.800000E-01  2.524666E-03  1.000000E-01  9.999938E-01  2.516277E-03  1.416118E-17  1.252887E-02  4.779597E-03  2.423712E-05  8.206367E-03  0.000000E+00
  1.215943E-04  3.925613E-04  1.000000E-01  1.060950E-04  3.406344E-04 -9.912823E-17  2.820270E-02  6.659941E-02  2.978676E-05  1.011493E+00  0.000000E+00
  7.278129E-05  2.821711E-04  1.000000E-01  5.628513E-05  2.279901E-04  1.416118E-17  1.927713E-02  6.972522E-02  5.678910E-05  1.005910E+00  0.000000E+00
  1.762252E-05  5.874351E-05  1.000000E-01  0.000000E+00  0.000000E+00  0.000000E+00  1.430664E-02  1.817142E-02  7.352375E-05  1.088591E+00  0.000000E+00
  8.694958E-05 -1.724875E-04  1.000000E-01  7.074273E-05 -2.359528E-04  0.000000E+00  1.161931E-02 -4.485812E-02  5.905641E-05  1.057984E+00  0.000000E+00
  1.215943E-04 -2.881100E-04  1.000000E-01  1.060950E-04 -3.539364E-04 -4.248353E-17  2.704825E-02 -5.685799E-02  3.558263E-05  1.071151E+00  0.000000E+00
  9.800000E-01  2.524666E-03  1.000000E-01  9.999938E-01  2.516277E-03  0.000000E+00  1.252887E-02  4.779597E-03  2.423712E-05  8.206367E-03  0.000000E+00
  9.800000E-01  2.687202E-03  1.000000E-01  9.999938E-01  2.682132E-03  0.000000E+00  3.883471E-03  1.312065E-03  5.227330E-06 -1.628109E-01  0.000000E+00
  9.800000E-01  3.012274E-03  1.000000E-01  9.999938E-01  3.013842E-03 -2.832235E-17 -5.031205E-04 -8.483434E-03 -1.718614E-05 -1.311082E-01  0.000000E+00
  9.800000E-01  3.337345E-03  1.000000E-01  9.999938E-01  3.345552E-03 -5.664470E-17  3.301827E-03 -1.287200E-02 -3.666972E-05 -1.547851E-01  0.000000E+00
  9.800000E-01  3.499881E-03  1.000000E-01  9.999938E-01  3.511407E-03  0.000000E+00  1.140560E-02 -1.047929E-02 -5.004558E-05 -2.512009E-02  0.000000E+00
  2.628044E-01  7.474638E-02  1.000000E-01  2.681530E-01  7.621277E-02 -2.832235E-17  4.797613E-02  3.011745E-03 -3.692490E-05 -7.191343E-01  0.000000E+00
  2.368706E-01  7.291975E-02  1.000000E-01  2.416896E-01  7.434885E-02  3.681906E-16  4.890517E-02  3.876914E-03 -3.459826E-05 -7.333541E-01  0.000000E+00
  2.121362E-01  7.073401E-02  1.000000E-01  2.164501E-01  7.211847E-02  1.416118E-17  5.018610E-02  4.952260E-03 -3.226081E-05 -7.467703E-01  0.000000E+00
  1.886687E-01  6.817176E-02  1.000000E-01  1.925034E-01  6.950390E-02 -4.248353E-17  5.168026E-02  6.251694E-03 -2.985783E-05 -7.552925E-01  0.000000E+00
  1.665185E-01  6.522764E-02  1.000000E-01  1.699008E-01  6.649966E-02  4.814800E-16  5.317558E-02  7.752991E-03 -2.735273E-05 -7.556037E-01  0.000000E+00
  1.457161E-01  6.192267E-02  1.000000E-01  1.486737E-01  6.312720E-02  4.531576E-16  5.449476E-02  9.421956E-03 -2.474472E-05 -7.463552E-01  0.000000E+00
  1.262764E-01  5.828419E-02  1.000000E-01  1.288370E-01  5.941442E-02  0.000000E+00  5.554614E-02  1.124040E-02 -2.205319E-05 -7.288606E-01  0.000000E+00
  1.081990E-01  5.434398E-02  1.000000E-01  1.103905E-01  5.539375E-02  0.000000E+00  5.627499E-02  1.318724E-02 -1.926497E-05 -7.079640E-01  0.000000E+00
  9.146971E-02  5.014109E-02  1.000000E-01  9.331956E-02  5.110504E-02  0.000000E+00  5.668773E-02  1.537729E-02 -1.640322E-05 -6.802510E-01  0.000000E+00
  7.608258E-02  4.565086E-02  1.000000E-01  7.761822E-02  4.652312E-02  0.000000E+00  5.668266E-02  1.794366E-02 -1.353671E-05 -6.311199E-01  0.000000E+00
  6.202881E-02  4.084554E-02  1.000000E-01  6.327747E-02  4.161967E-02 -5.664470E-17  5.592694E-02  2.076939E-02 -1.073425E-05 -5.447710E-01  0.000000E+00
  4.929579E-02  3.572790E-02  1.000000E-01  5.028444E-02  3.639753E-02 -8.496705E-17  5.406570E-02  2.337478E-02 -8.044639E-06 -4.199847E-01  0.000000E+00
  3.782553E-02  3.040058E-02  1.000000E-01  3.857996E-02  3.096142E-02  4.248353E-17  5.117336E-02  2.551161E-02 -5.545436E-06 -2.700564E-01  0.000000E+00
  2.757469E-02  2.491051E-02  1.000000E-01  2.811979E-02  2.535924E-02 -2.832235E-17  4.786769E-02  2.740813E-02 -3.164075E-06 -1.372213E-01  0.000000E+00
  1.848362E-02  1.933084E-02  1.000000E-01  1.884308E-02  1.966563E-02  5.664470E-17  4.544087E-02  3.073465E-02 -3.927149E-07 -2.751851E-02  0.000000E+00
  1.064273E-02  1.352101E-02  1.000000E-01  1.084208E-02  1.373717E-02  1.416118E-17  4.439150E-02  3.829776E-02  4.288907E-06  1.993452E-01  0.000000E+00
  4.262692E-03  7.306641E-03  1.000000E-01  4.331755E-03  7.395901E-03  1.416118E-17  3.981236E-02  5.109388E-02  1.333138E-05  7.332821E-01  0.000000E+00
  1.215943E-04  3.925613E-04  1.000000E-01  1.060950E-04  3.406344E-04 -8.496705E-17  2.820270E-02  6.659941E-02  2.978676E-05  1.011493E+00  0.000000E+00
    1    2
    2    3
    3    4
    4    5
    5    6
    6    7
    7    8
    8    9
    9   10
   10   11
   11   12
   12   13
   13   14
   14   15
   15   16
   16   17
   18   19
   19   20
   20   21
   21   22
   22   23
   23   24
   24   25
   25   26
   26   27
   27   28
   28   29
   29   30
   30   31
   31   32
   32   33
   33   34
   35   36
   36   37
   37   38
   38   39
   39   40
   40   41
   41   42
   42   43
   43   44
   44   45
   45   46
   46   47
   47   48
   48   49
   49   50
   50   51
   52   53
   53   54
   54   55
   55   56
   56   57
   57   58
   58   59
   59   60
   60   61
   61   62
   62   63
   63   64
   64   65
   65   66
   66   67
   67   68
   69   70
   70   71
   71   72
   72   73
   73   74
   74   75
   75   76
   76   77
   77   78
   78   79
   79   80
   80   81
   81   82
   82   83
   83   84
   84   85
   85   86
   87   88
   88   89
   89   90
   90   91
   92   93
   93   94
   94   95
   95   96
   97   98
   98   99
   99  100
  100  101
  101  102
  102  103
  103  104
  104  105
  105  106
  106  107
  107  108
  108  109
  109  110
  110  111
  111  112
  112  113
  113  114
Zone T= "Slice_0002 None Relative Regular z = 0.36666667"
 Nodes =          114  Elements=          106  ZONETYPE=FELINESEG
 DATAPACKING=POINT
  7.301402E-01  4.784245E-02  3.666667E-01  7.450319E-01  4.875946E-02 -5.664470E-17  2.688134E-02 -3.895253E-03 -1.697820E-04 -3.045082E-01  0.000000E+00
  7.043967E-01  5.147958E-02  3.666667E-01  7.187626E-01  5.247087E-02 -1.132894E-16  2.805105E-02 -3.857885E-03 -1.703530E-04 -3.345990E-01  0.000000E+00
  6.775455E-01  5.506940E-02  3.666667E-01  6.913631E-01  5.613399E-02  3.058814E-14  2.922366E-02 -3.789546E-03 -1.704161E-04 -3.653543E-01  0.000000E+00
  6.496792E-01  5.856875E-02  3.666667E-01  6.629278E-01  5.970479E-02 -1.699341E-16  3.040599E-02 -3.687087E-03 -1.699617E-04 -3.966120E-01  0.000000E+00
  6.209097E-01  6.193166E-02  3.666667E-01  6.335708E-01  6.313637E-02  0.000000E+00  3.160799E-02 -3.545973E-03 -1.690126E-04 -4.276976E-01  0.000000E+00
  5.913667E-01  6.510569E-02  3.666667E-01  6.034245E-01  6.637522E-02  1.132894E-16  3.283872E-02 -3.370396E-03 -1.675746E-04 -4.587440E-01  0.000000E+00
  5.611982E-01  6.805577E-02  3.666667E-01  5.726400E-01  6.938554E-02  2.265788E-16  3.412618E-02 -3.164802E-03 -1.656712E-04 -4.906548E-01  0.000000E+00
  5.305654E-01  7.074065E-02  3.666667E-01  5.413816E-01  7.212525E-02  1.132894E-16  3.552410E-02 -2.925061E-03 -1.633444E-04 -5.248350E-01  0.000000E+00
  4.996398E-01  7.312153E-02  3.666667E-01  5.098245E-01  7.455474E-02 -1.699341E-16  3.709643E-02 -2.632726E-03 -1.606176E-04 -5.624227E-01  0.000000E+00
  4.685986E-01  7.513741E-02  3.666667E-01  4.781495E-01  7.661179E-02  1.132894E-16  3.888425E-02 -2.247159E-03 -1.574953E-04 -6.022808E-01  0.000000E+00
  4.376215E-01  7.670739E-02  3.666667E-01  4.465399E-01  7.821383E-02 -5.664470E-17  4.084461E-02 -1.726768E-03 -1.538898E-04 -6.409771E-01  0.000000E+00
  4.068895E-01  7.775135E-02  3.666667E-01  4.151803E-01  7.927911E-02 -5.664470E-17  4.283561E-02 -1.046285E-03 -1.496788E-04 -6.728646E-01  0.000000E+00
  3.765814E-01  7.820585E-02  3.666667E-01  3.842533E-01  7.974288E-02  5.664470E-17  4.464218E-02 -2.263046E-04 -1.447546E-04 -6.930089E-01  0.000000E+00
  3.468696E-01  7.806213E-02  3.666667E-01  3.539348E-01  7.959623E-02 -5.664470E-17  4.606154E-02  6.530681E-04 -1.390465E-04 -7.013776E-01  0.000000E+00
  3.179133E-01  7.737655E-02  3.666667E-01  3.243872E-01  7.889665E-02  0.000000E+00  4.703304E-02  1.496313E-03 -1.325943E-04 -7.036010E-01  0.000000E+00
  2.898519E-01  7.624683E-02  3.666667E-01  2.957527E-01  7.774386E-02  5.664470E-17  4.771155E-02  2.274505E-03 -1.256164E-04 -7.069261E-01  0.000000E+00
  2.628044E-01  7.474638E-02  3.666667E-01  2.681530E-01  7.621277E-02  5.664470E-17  4.837875E-02  3.036861E-03 -1.183562E-04 -7.165096E-01  0.000000E+00
  9.800000E-01  3.499881E-03  3.666667E-01  9.999938E-01  3.511407E-03  5.664470E-17  1.142052E-02 -1.045423E-02 -1.669963E-04 -2.657525E-02  0.000000E+00
  9.720124E-01  5.119113E-03  3.666667E-01  9.918431E-01  5.163703E-03  0.000000E+00  1.508919E-02 -3.142614E-03 -1.716884E-04  9.551223E-02  0.000000E+00
  9.632634E-01  6.916354E-03  3.666667E-01  9.829155E-01  6.997644E-03  1.132894E-16  1.383952E-02 -2.789646E-03 -1.537312E-04  4.889670E-02  0.000000E+00
  9.536907E-01  8.879308E-03  3.666667E-01  9.731473E-01  9.000683E-03 -5.664470E-17  1.293637E-02 -2.639655E-03 -1.401394E-04  2.981999E-02  0.000000E+00
  9.432303E-01  1.099213E-02  3.666667E-01  9.624732E-01  1.115664E-02 -1.699341E-16  1.292246E-02 -2.591888E-03 -1.346055E-04  1.021812E-02  0.000000E+00
  9.318220E-01  1.325918E-02  3.666667E-01  9.508320E-01  1.346999E-02 -5.664470E-17  1.367760E-02 -2.696438E-03 -1.352162E-04 -1.298417E-02  0.000000E+00
  9.194070E-01  1.568563E-02  3.666667E-01  9.381635E-01  1.594600E-02  0.000000E+00  1.487287E-02 -2.882158E-03 -1.393178E-04 -3.631682E-02  0.000000E+00
  9.059278E-01  1.827298E-02  3.666667E-01  9.244090E-01  1.858618E-02 -1.132894E-16  1.620737E-02 -3.082094E-03 -1.447158E-04 -5.974360E-02  0.000000E+00
  8.913299E-01  2.102023E-02  3.666667E-01  9.095130E-01  2.138953E-02  0.000000E+00  1.751349E-02 -3.265250E-03 -1.499346E-04 -8.386475E-02  0.000000E+00
  8.755643E-01  2.392883E-02  3.666667E-01  8.934256E-01  2.435752E-02 -1.132894E-16  1.874538E-02 -3.424875E-03 -1.543165E-04 -1.090298E-01  0.000000E+00
  8.585885E-01  2.699684E-02  3.666667E-01  8.761030E-01  2.748818E-02  3.098465E-14  1.992393E-02 -3.560345E-03 -1.578472E-04 -1.350750E-01  0.000000E+00
  8.403666E-01  3.021298E-02  3.666667E-01  8.575091E-01  3.077000E-02  3.098465E-14  2.108042E-02 -3.672201E-03 -1.607648E-04 -1.616851E-01  0.000000E+00
  8.208730E-01  3.356094E-02  3.666667E-01  8.376175E-01  3.418631E-02 -5.664470E-17  2.223192E-02 -3.763123E-03 -1.632656E-04 -1.889156E-01  0.000000E+00
  8.000947E-01  3.702346E-02  3.666667E-01  8.164149E-01  3.771954E-02 -5.664470E-17  2.338568E-02 -3.833985E-03 -1.654327E-04 -2.169263E-01  0.000000E+00
  7.780326E-01  4.057805E-02  3.666667E-01  7.939022E-01  4.134672E-02 -1.132894E-16  2.454531E-02 -3.882209E-03 -1.672674E-04 -2.456949E-01  0.000000E+00
  7.547032E-01  4.419639E-02  3.666667E-01  7.700964E-01  4.503895E-02  3.075807E-14  2.571162E-02 -3.903423E-03 -1.687348E-04 -2.749424E-01  0.000000E+00
  7.301402E-01  4.784245E-02  3.666667E-01  7.450319E-01  4.875946E-02 -5.664470E-17  2.688134E-02 -3.895253E-03 -1.697820E-04 -3.045082E-01  0.000000E+00
  2.444131E-01 -2.628960E-02  3.666667E-01  2.493860E-01 -2.688638E-02  3.092801E-14  3.175099E-02  7.809032E-04  1.074182E-04 -1.235220E-01  0.000000E+00
  2.700250E-01 -2.555808E-02  3.666667E-01  2.755210E-01 -2.613992E-02  5.664470E-17  3.155513E-02  1.013764E-03  1.104832E-04 -1.140817E-01  0.000000E+00
  2.967058E-01 -2.461214E-02  3.666667E-01  3.027466E-01 -2.517467E-02 -5.664470E-17  3.139089E-02  1.275948E-03  1.134293E-04 -1.088743E-01  0.000000E+00
  3.243554E-01 -2.335054E-02  3.666667E-01  3.309608E-01 -2.388731E-02  3.070143E-14  3.089285E-02  1.620635E-03  1.159620E-04 -1.062596E-01  0.000000E+00
  3.528511E-01 -2.166171E-02  3.666667E-01  3.600385E-01 -2.216399E-02 -5.664470E-17  2.969426E-02  2.021610E-03  1.177214E-04 -9.913068E-02  0.000000E+00
  3.820469E-01 -1.940793E-02  3.666667E-01  3.898304E-01 -1.986419E-02 -1.132894E-16  2.756498E-02  2.420197E-03  1.182316E-04 -8.154923E-02  0.000000E+00
  4.117740E-01 -1.645700E-02  3.666667E-01  4.201645E-01 -1.685299E-02  1.132894E-16  2.460548E-02  2.726274E-03  1.171917E-04 -4.909948E-02  0.000000E+00
  4.418498E-01 -1.273751E-02  3.666667E-01  4.508545E-01 -1.305755E-02 -1.699341E-16  2.133513E-02  2.828785E-03  1.149046E-04 -9.301505E-04  0.000000E+00
  4.721105E-01 -8.409133E-03  3.666667E-01  4.817331E-01 -8.640792E-03 -1.132894E-16  1.863488E-02  2.584738E-03  1.127898E-04  6.897891E-02  0.000000E+00
  5.024968E-01 -4.346204E-03  3.666667E-01  5.127399E-01 -4.494898E-03  5.664470E-17  1.702293E-02  2.120232E-03  1.117535E-04  1.395439E-01  0.000000E+00
  5.328693E-01 -8.885906E-04  3.666667E-01  5.437326E-01 -9.666789E-04 -2.265788E-16  1.627628E-02  1.731900E-03  1.115499E-04  1.776794E-01  0.000000E+00
  5.630297E-01  2.076042E-03  3.666667E-01  5.745090E-01  2.058492E-03  1.132894E-16  1.597803E-02  1.481418E-03  1.120621E-04  1.922774E-01  0.000000E+00
  5.927917E-01  4.665036E-03  3.666667E-01  6.048786E-01  4.700354E-03  0.000000E+00  1.580770E-02  1.319315E-03  1.129472E-04  2.031256E-01  0.000000E+00
  6.219828E-01  6.991245E-03  3.666667E-01  6.346659E-01  7.074065E-03  5.664470E-17  1.559044E-02  1.195106E-03  1.136629E-04  2.164787E-01  0.000000E+00
  6.504533E-01  9.078396E-03  3.666667E-01  6.637177E-01  9.203836E-03 -1.132894E-16  1.530046E-02  1.061446E-03  1.140035E-04  2.325122E-01  0.000000E+00
  6.780742E-01  1.087504E-02  3.666667E-01  6.919026E-01  1.103717E-02  3.092801E-14  1.499168E-02  9.023792E-04  1.140590E-04  2.488717E-01  0.000000E+00
  7.047326E-01  1.233873E-02  3.666667E-01  7.191054E-01  1.253075E-02 -5.664470E-17  1.473840E-02  7.236081E-04  1.140321E-04  2.632795E-01  0.000000E+00
  1.215943E-04 -2.881100E-04  3.666667E-01  1.060950E-04 -3.539364E-04 -2.265788E-16  2.695869E-02 -5.658928E-02  1.013416E-04  1.068909E+00  0.000000E+00
  4.902502E-03 -6.371455E-03  3.666667E-01  4.984629E-03 -6.561505E-03  5.664470E-17  4.624154E-02 -4.081960E-02  6.712966E-05  6.418145E-01  0.000000E+00
  1.254908E-02 -1.066705E-02  3.666667E-01  1.278735E-02 -1.094482E-02  2.265788E-16  4.750827E-02 -2.220741E-02  5.394502E-05  9.413353E-03  0.000000E+00
  2.163699E-02 -1.381844E-02  3.666667E-01  2.206084E-02 -1.416056E-02  5.664470E-17  4.216844E-02 -1.260148E-02  5.549082E-05 -1.307964E-01  0.000000E+00
  3.184423E-02 -1.633190E-02  3.666667E-01  3.247651E-02 -1.672534E-02  0.000000E+00  3.921365E-02 -8.410797E-03  6.164858E-05 -9.788058E-02  0.000000E+00
  4.311596E-02 -1.840554E-02  3.666667E-01  4.397841E-02 -1.884133E-02 -1.132894E-16  3.781939E-02 -6.038919E-03  6.687475E-05 -9.914276E-02  0.000000E+00
  5.546913E-02 -2.007530E-02  3.666667E-01  5.658384E-02 -2.054519E-02 -5.664470E-17  3.678689E-02 -4.507152E-03  7.133094E-05 -1.170412E-01  0.000000E+00
  6.891473E-02 -2.154561E-02  3.666667E-01  7.030400E-02 -2.204552E-02  1.699341E-16  3.619886E-02 -3.672769E-03  7.581116E-05 -1.163922E-01  0.000000E+00
  8.348882E-02 -2.291388E-02  3.666667E-01  8.517570E-02 -2.344173E-02  2.832235E-16  3.597579E-02 -3.107554E-03  8.010386E-05 -1.176265E-01  0.000000E+00
  9.923792E-02 -2.416312E-02  3.666667E-01  1.012464E-01 -2.471648E-02 -1.132894E-16  3.582260E-02 -2.534467E-03  8.410787E-05 -1.306474E-01  0.000000E+00
  1.162051E-01 -2.522155E-02  3.666667E-01  1.185600E-01 -2.579652E-02  5.664470E-17  3.555275E-02 -1.929285E-03  8.797776E-05 -1.448260E-01  0.000000E+00
  1.344203E-01 -2.606351E-02  3.666667E-01  1.371472E-01 -2.665568E-02  0.000000E+00  3.511272E-02 -1.350175E-03  9.173723E-05 -1.514698E-01  0.000000E+00
  1.539027E-01 -2.666387E-02  3.666667E-01  1.570275E-01 -2.726830E-02  3.064478E-14  3.447054E-02 -7.966058E-04  9.522816E-05 -1.528303E-01  0.000000E+00
  1.746592E-01 -2.698525E-02  3.666667E-01  1.782078E-01 -2.759624E-02  3.109794E-14  3.367946E-02 -2.912791E-04  9.843833E-05 -1.500538E-01  0.000000E+00
  1.966815E-01 -2.702590E-02  3.666667E-01  2.006798E-01 -2.763772E-02 -1.132894E-16  3.287429E-02  1.371113E-04  1.014753E-04 -1.429065E-01  0.000000E+00
  2.199461E-01 -2.679073E-02  3.666667E-01  2.244195E-01 -2.739775E-02 -1.699341E-16  3.219359E-02  4.942731E-04  1.044310E-04 -1.335679E-01  0.000000E+00
  2.444131E-01 -2.628960E-02  3.666667E-01  2.493860E-01 -2.688638E-02  3.092801E-14  3.175099E-02  7.809032E-04  1.074182E-04 -1.235220E-01  0.000000E+00
  7.047326E-01  1.233873E-02  3.666667E-01  7.191054E-01  1.253075E-02 -5.664470E-17  1.473840E-02  7.236081E-04  1.140321E-04  2.632795E-01  0.000000E+00