 Title = "ADflow Slice Data"
Variables =  "CoordinateX"  "CoordinateY"  "CoordinateZ"  "XoC"  "YoC"  "ZoC" "VelocityX" "VelocityY" "VelocityZ" "CoefPressure" "Mach" 
Zone T= "Slice_0001 None Relative Regular z = 0.10000000"
 Nodes =          114  Elements=          106  ZONETYPE=FELINESEG
 DATAPACKING=POINT
  7.301402E-01  6.847802E-02  1.000000E-01  7.450359E-01  5.999252E-02  1.416125E-17  2.480192E-02 -4.465614E-03 -1.532781E-04 -4.521126E-01  0.000000E+00
  7.043967E-01  7.296570E-02  1.000000E-01  7.187665E-01  6.457187E-02 -4.248376E-17  2.661975E-02 -4.472204E-03 -1.574762E-04 -4.977855E-01  0.000000E+00
  6.775455E-01  7.731423E-02  1.000000E-01  6.913669E-01  6.900922E-02  3.965151E-16  2.835221E-02 -4.407295E-03 -1.604176E-04 -5.425868E-01  0.000000E+00
  6.496792E-01  8.147125E-02  1.000000E-01  6.629314E-01  7.325115E-02  4.248376E-17  2.998549E-02 -4.279414E-03 -1.617212E-04 -5.869906E-01  0.000000E+00
  6.209097E-01  8.539675E-02  1.000000E-01  6.335743E-01  7.725683E-02 -2.832250E-17  3.153593E-02 -4.093807E-03 -1.612229E-04 -6.310431E-01  0.000000E+00
  5.913667E-01  8.904085E-02  1.000000E-01  6.034278E-01  8.097536E-02 -2.832250E-17  3.303788E-02 -3.855512E-03 -1.590187E-04 -6.747979E-01  0.000000E+00
  5.611982E-01  9.236482E-02  1.000000E-01  5.726431E-01  8.436724E-02  0.000000E+00  3.453755E-02 -3.572125E-03 -1.553620E-04 -7.192642E-01  0.000000E+00
  5.305654E-01  9.532914E-02  1.000000E-01  5.413846E-01  8.739210E-02 -5.664501E-17  3.609864E-02 -3.247695E-03 -1.505666E-04 -7.664225E-01  0.000000E+00
  4.996398E-01  9.790293E-02  1.000000E-01  5.098273E-01  9.001846E-02  0.000000E+00  3.780087E-02 -2.872016E-03 -1.449467E-04 -8.179144E-01  0.000000E+00
  4.685986E-01  1.000388E-01  1.000000E-01  4.781520E-01  9.219795E-02  1.416125E-17  3.971724E-02 -2.411687E-03 -1.388106E-04 -8.728552E-01  0.000000E+00
  4.376215E-01  1.016731E-01  1.000000E-01  4.465423E-01  9.386565E-02 -8.496751E-17  4.185682E-02 -1.830009E-03 -1.323827E-04 -9.284469E-01  0.000000E+00
  4.068895E-01  1.027442E-01  1.000000E-01  4.151825E-01  9.495862E-02  0.000000E+00  4.414617E-02 -1.102003E-03 -1.257911E-04 -9.814483E-01  0.000000E+00
  3.765814E-01  1.032055E-01  1.000000E-01  3.842553E-01  9.542939E-02 -5.664501E-17  4.645013E-02 -2.383568E-04 -1.190406E-04 -1.030907E+00  0.000000E+00
  3.468696E-01  1.030601E-01  1.000000E-01  3.539367E-01  9.528096E-02 -5.664501E-17  4.867622E-02  7.465784E-04 -1.121608E-04 -1.076607E+00  0.000000E+00
  3.179133E-01  1.023140E-01  1.000000E-01  3.243890E-01  9.451961E-02 -2.832250E-17  5.082244E-02  1.862232E-03 -1.052679E-04 -1.117976E+00  0.000000E+00
  2.898519E-01  1.009787E-01  1.000000E-01  2.957543E-01  9.315707E-02 -4.248376E-17  5.291194E-02  3.103165E-03 -9.836162E-05 -1.157543E+00  0.000000E+00
  2.628044E-01  9.908807E-02  1.000000E-01  2.681544E-01  9.122781E-02  0.000000E+00  5.499550E-02  4.465306E-03 -9.133027E-05 -1.198871E+00  0.000000E+00
  9.800000E-01  1.088509E-02  1.000000E-01  9.999993E-01  1.223220E-03 -2.832250E-17  1.037944E-02 -1.336593E-02 -1.263343E-04 -5.592869E-02  0.000000E+00
  9.720124E-01  1.302049E-02  1.000000E-01  9.918485E-01  3.402234E-03 -2.832250E-17  1.181134E-02 -3.235598E-03 -1.285429E-04  7.123734E-02  0.000000E+00
  9.632634E-01  1.538023E-02  1.000000E-01  9.829208E-01  5.810173E-03 -2.832250E-17  8.628219E-03 -2.268961E-03 -1.085008E-04  2.494244E-02  0.000000E+00
  9.536907E-01  1.795383E-02  1.000000E-01  9.731526E-01  8.436343E-03 -2.832250E-17  6.560909E-03 -1.758626E-03 -9.441988E-05  8.410543E-03  0.000000E+00
  9.432303E-01  2.072682E-02  1.000000E-01  9.624785E-01  1.126597E-02  1.416125E-17  5.944119E-03 -1.565973E-03 -8.921745E-05 -9.842313E-03  0.000000E+00
  9.318220E-01  2.370482E-02  1.000000E-01  9.508372E-01  1.430480E-02  1.416125E-17  6.476362E-03 -1.676221E-03 -9.045412E-05 -3.427596E-02  0.000000E+00
  9.194070E-01  2.689354E-02  1.000000E-01  9.381686E-01  1.755865E-02 -8.496751E-17  7.690052E-03 -1.957173E-03 -9.512426E-05 -6.080565E-02  0.000000E+00
  9.059278E-01  3.029398E-02  1.000000E-01  9.244141E-01  2.102855E-02 -5.664501E-17  9.182055E-03 -2.293233E-03 -1.010919E-04 -8.935400E-02  0.000000E+00
  8.913299E-01  3.390336E-02  1.000000E-01  9.095180E-01  2.471166E-02  0.000000E+00  1.072988E-02 -2.625456E-03 -1.071762E-04 -1.205912E-01  0.000000E+00
  8.755643E-01  3.771983E-02  1.000000E-01  8.934304E-01  2.860608E-02 -2.832250E-17  1.227329E-02 -2.937799E-03 -1.129546E-04 -1.547600E-01  0.000000E+00
  8.585885E-01  4.173616E-02  1.000000E-01  8.761078E-01  3.270444E-02  4.106763E-16  1.384944E-02 -3.233509E-03 -1.185689E-04 -1.915831E-01  0.000000E+00
  8.403666E-01  4.593326E-02  1.000000E-01  8.575137E-01  3.698727E-02  3.965151E-16  1.551732E-02 -3.518631E-03 -1.243651E-04 -2.306304E-01  0.000000E+00
  8.208730E-01  5.028420E-02  1.000000E-01  8.376220E-01  4.142709E-02 -8.496751E-17  1.729244E-02 -3.790868E-03 -1.304399E-04 -2.717767E-01  0.000000E+00
  8.000947E-01  5.475812E-02  1.000000E-01  8.164193E-01  4.599238E-02 -2.832250E-17  1.914330E-02 -4.036975E-03 -1.365885E-04 -3.149626E-01  0.000000E+00
  7.780326E-01  5.931559E-02  1.000000E-01  7.939065E-01  5.064295E-02 -2.832250E-17  2.103139E-02 -4.240521E-03 -1.425715E-04 -3.599043E-01  0.000000E+00
  7.547032E-01  6.390832E-02  1.000000E-01  7.701006E-01  5.532949E-02  4.389988E-16  2.292762E-02 -4.386859E-03 -1.482064E-04 -4.059122E-01  0.000000E+00
  7.301402E-01  6.847802E-02  1.000000E-01  7.450359E-01  5.999252E-02  2.832250E-17  2.480192E-02 -4.465614E-03 -1.532781E-04 -4.521126E-01  0.000000E+00
  2.444131E-01 -2.336158E-03  1.000000E-01  2.493874E-01 -1.226808E-02  3.681926E-16  2.795068E-02  1.355430E-03  6.699562E-05  1.682810E-01  0.000000E+00
  2.700250E-01 -1.091784E-03  1.000000E-01  2.755225E-01 -1.099829E-02 -4.248376E-17  2.817312E-02  1.362828E-03  6.973491E-05  1.667498E-01  0.000000E+00
  2.967058E-01  1.870187E-04  1.000000E-01  3.027483E-01 -9.693370E-03 -2.832250E-17  2.848169E-02  1.419480E-03  7.268526E-05  1.594648E-01  0.000000E+00
  3.243554E-01  1.610809E-03  1.000000E-01  3.309626E-01 -8.240498E-03  4.248376E-16  2.850538E-02  1.600222E-03  7.567306E-05  1.478913E-01  0.000000E+00
  3.528511E-01  3.337957E-03  1.000000E-01  3.600404E-01 -6.478072E-03 -4.248376E-17  2.784262E-02  1.916110E-03  7.841667E-05  1.385483E-01  0.000000E+00
  3.820469E-01  5.590953E-03  1.000000E-01  3.898325E-01 -4.179057E-03  5.664501E-17  2.625351E-02  2.300499E-03  8.057626E-05  1.394923E-01  0.000000E+00
  4.117740E-01  8.527984E-03  1.000000E-01  4.201668E-01 -1.182035E-03 -5.664501E-17  2.384939E-02  2.622015E-03  8.192404E-05  1.576755E-01  0.000000E+00
  4.418498E-01  1.220119E-02  1.000000E-01  4.508569E-01  2.566195E-03 -2.832250E-17  2.110281E-02  2.750930E-03  8.252182E-05  1.924705E-01  0.000000E+00
  4.721105E-01  1.642989E-02  1.000000E-01  4.817358E-01  6.881269E-03 -5.664501E-17  1.879703E-02  2.523159E-03  8.315150E-05  2.482065E-01  0.000000E+00
  5.024968E-01  2.031903E-02  1.000000E-01  5.127427E-01  1.084985E-02  1.416125E-17  1.740183E-02  2.041079E-03  8.428750E-05  3.057164E-01  0.000000E+00
  5.328693E-01  2.351124E-02  1.000000E-01  5.437355E-01  1.410726E-02 -4.248376E-17  1.673771E-02  1.606123E-03  8.569150E-05  3.345750E-01  0.000000E+00
  5.630297E-01  2.610849E-02  1.000000E-01  5.745121E-01  1.675756E-02  1.416125E-17  1.646444E-02  1.296797E-03  8.727496E-05  3.431355E-01  0.000000E+00
  5.927917E-01  2.822640E-02  1.000000E-01  6.048819E-01  1.891873E-02  5.664501E-17  1.631716E-02  1.074961E-03  8.876199E-05  3.488003E-01  0.000000E+00
  6.219828E-01  2.998458E-02  1.000000E-01  6.346693E-01  2.071283E-02 -4.248376E-17  1.614392E-02  8.964867E-04  8.971531E-05  3.564925E-01  0.000000E+00
  6.504533E-01  3.141920E-02  1.000000E-01  6.637213E-01  2.217675E-02  5.664501E-17  1.592128E-02  7.129853E-04  8.997161E-05  3.665764E-01  0.000000E+00
  6.780742E-01  3.248710E-02  1.000000E-01  6.919064E-01  2.326646E-02  4.531601E-16  1.569924E-02  5.030756E-04  8.963270E-05  3.772551E-01  0.000000E+00
  7.047326E-01  3.315037E-02  1.000000E-01  7.191093E-01  2.394328E-02  0.000000E+00  1.554704E-02  2.690189E-04  8.895173E-05  3.862560E-01  0.000000E+00
  1.215943E-04  9.348613E-03  1.000000E-01  1.060955E-04 -3.446435E-04 -5.664501E-17 -4.645708E-02  8.285703E-02  7.459585E-05  7.450018E-01  0.000000E+00
  4.902502E-03  3.681896E-03  1.000000E-01  4.984656E-03 -6.127107E-03 -8.496751E-17 -1.758245E-02  2.028526E-02  6.213775E-05  9.412976E-01  0.000000E+00
  1.254908E-02  4.353767E-05  1.000000E-01  1.278742E-02 -9.839782E-03 -2.832250E-17  7.469971E-03 -1.879366E-03  4.873703E-05  5.487851E-01  0.000000E+00
  2.163699E-02 -2.341615E-03  1.000000E-01  2.206096E-02 -1.227365E-02  1.416125E-17  2.152975E-02 -4.426059E-03  4.320894E-05  3.464422E-01  0.000000E+00
  3.184423E-02 -4.014213E-03  1.000000E-01  3.247669E-02 -1.398042E-02 -2.832250E-17  2.740484E-02 -3.586584E-03  4.338252E-05  3.116535E-01  0.000000E+00
  4.311596E-02 -5.184311E-03  1.000000E-01  4.397865E-02 -1.517441E-02 -8.496751E-17  2.964256E-02 -2.373260E-03  4.493128E-05  2.759124E-01  0.000000E+00
  5.546913E-02 -5.894921E-03  1.000000E-01  5.658414E-02 -1.589954E-02  1.416125E-17  3.032278E-02 -1.397375E-03  4.672875E-05  2.429867E-01  0.000000E+00
  6.891473E-02 -6.359506E-03  1.000000E-01  7.030438E-02 -1.637361E-02 -8.496751E-17  3.056551E-02 -8.626808E-04  4.867529E-05  2.305962E-01  0.000000E+00
  8.348882E-02 -6.684381E-03  1.000000E-01  8.517616E-02 -1.670512E-02  5.664501E-17  3.069320E-02 -5.101592E-04  5.057448E-05  2.181649E-01  0.000000E+00
  9.923792E-02 -6.863006E-03  1.000000E-01  1.012469E-01 -1.688740E-02 -9.912876E-17  3.066574E-02 -1.481404E-04  5.241638E-05  1.989333E-01  0.000000E+00
  1.162051E-01 -6.837041E-03  1.000000E-01  1.185607E-01 -1.686090E-02 -8.496751E-17  3.044757E-02  2.238422E-04  5.430457E-05  1.817964E-01  0.000000E+00
  1.344203E-01 -6.598147E-03  1.000000E-01  1.371479E-01 -1.661713E-02 -8.496751E-17  3.006258E-02  5.508672E-04  5.626226E-05  1.722120E-01  0.000000E+00
  1.539027E-01 -6.142379E-03  1.000000E-01  1.570283E-01 -1.615205E-02  4.389988E-16  2.953053E-02  8.343075E-04  5.823041E-05  1.669105E-01  0.000000E+00
  1.746592E-01 -5.457417E-03  1.000000E-01  1.782087E-01 -1.545310E-02  3.257088E-16  2.892637E-02  1.061402E-03  6.022684E-05  1.647367E-01  0.000000E+00
  1.966815E-01 -4.570086E-03  1.000000E-01  2.006809E-01 -1.454764E-02 -2.832250E-17  2.838057E-02  1.216853E-03  6.231462E-05  1.657269E-01  0.000000E+00
  2.199461E-01 -3.516151E-03  1.000000E-01  2.244207E-01 -1.347218E-02 -4.248376E-17  2.802116E-02  1.313000E-03  6.454382E-05  1.674775E-01  0.000000E+00
  2.444131E-01 -2.336158E-03  1.000000E-01  2.493874E-01 -1.226808E-02  3.823538E-16  2.795068E-02  1.355430E-03  6.699562E-05  1.682810E-01  0.000000E+00
  7.047326E-01  3.315037E-02  1.000000E-01  7.191093E-01  2.394328E-02 -2.832250E-17  1.554704E-02  2.690189E-04  8.895173E-05  3.862560E-01  0.000000E+00
  7.303325E-01  3.338683E-02  1.000000E-01  7.452321E-01  2.418457E-02 -2.832250E-17  1.553763E-02  1.328466E-05  8.824173E-05  3.925933E-01  0.000000E+00
  7.547951E-01  3.319410E-02  1.000000E-01  7.701944E-01  2.398791E-02  4.389988E-16  1.574847E-02 -2.740274E-04  8.779841E-05  3.962053E-01  0.000000E+00
  7.780600E-01  3.256393E-02  1.000000E-01  7.939345E-01  2.334486E-02  1.416125E-17  1.624734E-02 -6.101765E-04  8.784376E-05  3.965006E-01  0.000000E+00
  8.000833E-01  3.150799E-02  1.000000E-01  8.164076E-01  2.226735E-02 -4.248376E-17  1.706111E-02 -1.009013E-03  8.848265E-05  3.925116E-01  0.000000E+00
  8.208376E-01  3.005461E-02  1.000000E-01  8.375858E-01  2.078428E-02 -2.832250E-17  1.813460E-02 -1.450977E-03  8.960655E-05  3.829819E-01  0.000000E+00
  8.403144E-01  2.830767E-02  1.000000E-01  8.574605E-01  1.900167E-02  4.389988E-16  1.931284E-02 -1.864464E-03  9.086099E-05  3.669207E-01  0.000000E+00
  8.585258E-01  2.642741E-02  1.000000E-01  8.760438E-01  1.708300E-02  3.965151E-16  2.040006E-02 -2.177986E-03  9.183809E-05  3.468429E-01  0.000000E+00
  8.754993E-01  2.455492E-02  1.000000E-01  8.933641E-01  1.517226E-02 -2.832250E-17  2.125118E-02 -2.373750E-03  9.222535E-05  3.271309E-01  0.000000E+00
  8.912718E-01  2.276975E-02  1.000000E-01  9.094587E-01  1.335063E-02 -2.832250E-17  2.185275E-02 -2.515145E-03  9.194277E-05  3.116370E-01  0.000000E+00
  9.058836E-01  2.105922E-02  1.000000E-01  9.243690E-01  1.160516E-02 -4.248376E-17  2.233576E-02 -2.694400E-03  9.119425E-05  3.009755E-01  0.000000E+00
  9.193796E-01  1.938144E-02  1.000000E-01  9.381406E-01  9.893111E-03 -5.664501E-17  2.289918E-02 -2.941006E-03  9.047121E-05  2.902339E-01  0.000000E+00
  9.318118E-01  1.773263E-02  1.000000E-01  9.508268E-01  8.210626E-03  4.248376E-17  2.375153E-02 -3.270722E-03  9.074941E-05  2.765678E-01  0.000000E+00
  9.432349E-01  1.610351E-02  1.000000E-01  9.624832E-01  6.548231E-03 -2.832250E-17  2.493587E-02 -3.699811E-03  9.279290E-05  2.605158E-01  0.000000E+00
  9.537058E-01  1.449073E-02  1.000000E-01  9.731680E-01  4.902504E-03  0.000000E+00  2.581046E-02 -4.126739E-03  9.492912E-05  2.365049E-01  0.000000E+00
  9.632829E-01  1.289623E-02  1.000000E-01  9.829407E-01  3.275437E-03 -2.832250E-17  2.476588E-02 -4.297323E-03  9.159574E-05  2.023565E-01  0.000000E+00
  9.720275E-01  1.135168E-02  1.000000E-01  9.918640E-01  1.699336E-03  0.000000E+00  2.099414E-02 -3.726749E-03  7.810981E-05  2.005917E-01  0.000000E+00
  9.800000E-01  9.878240E-03  1.000000E-01  9.999993E-01  1.958009E-04  1.416125E-17  1.375092E-02  4.271099E-03  3.930709E-05 -1.207755E-02  0.000000E+00
  1.215943E-04  1.002928E-02  1.000000E-01  1.060955E-04  3.499310E-04 -9.912876E-17  2.280201E-02  5.272996E-02  2.639595E-05  4.485774E-01  0.000000E+00
  7.278129E-05  9.914618E-03  1.000000E-01  5.628543E-05  2.329226E-04  1.416125E-17  1.547136E-02  7.581408E-02  4.259389E-05  2.865698E-01  0.000000E+00
  1.762252E-05  9.686358E-03  1.000000E-01  0.000000E+00  0.000000E+00  0.000000E+00 -1.249217E-02  1.229540E-01  6.623735E-05  3.252756E-01  0.000000E+00
  8.694958E-05  9.461201E-03  1.000000E-01  7.074311E-05 -2.297562E-04  0.000000E+00 -5.175017E-02  1.342623E-01  7.836960E-05  3.745875E-01  0.000000E+00
  1.215943E-04  9.348613E-03  1.000000E-01  1.060955E-04 -3.446435E-04 -4.248376E-17 -4.645708E-02  8.285703E-02  7.459585E-05  7.450018E-01  0.000000E+00
  9.800000E-01  9.878240E-03  1.000000E-01  9.999993E-01  1.958009E-04  0.000000E+00  1.375092E-02  4.271099E-03  3.930709E-05 -1.207755E-02  0.000000E+00
  9.800000E-01  1.004605E-02  1.000000E-01  9.999993E-01  3.670375E-04  0.000000E+00  4.337994E-03 -2.029815E-03 -1.379822E-05 -2.133564E-01  0.000000E+00
  9.800000E-01  1.038167E-02  1.000000E-01  9.999993E-01  7.095106E-04 -2.832250E-17 -4.438404E-04 -1.693704E-02 -6.466387E-05 -1.772468E-01  0.000000E+00
  9.800000E-01  1.071728E-02  1.000000E-01  9.999993E-01  1.051984E-03 -5.664501E-17  3.318244E-03 -2.047510E-02 -1.026267E-04 -1.945699E-01  0.000000E+00
  9.800000E-01  1.088509E-02  1.000000E-01  9.999993E-01  1.223220E-03  0.000000E+00  1.037944E-02 -1.336593E-02 -1.263343E-04 -5.592869E-02  0.000000E+00
  2.628044E-01  9.908807E-02  1.000000E-01  2.681544E-01  9.122781E-02 -2.832250E-17  5.499550E-02  4.465306E-03 -9.133027E-05 -1.198871E+00  0.000000E+00
  2.368706E-01  9.668385E-02  1.000000E-01  2.416909E-01  8.877448E-02  3.681926E-16  5.719212E-02  6.035529E-03 -8.420781E-05 -1.238547E+00  0.000000E+00
  2.121362E-01  9.375249E-02  1.000000E-01  2.164513E-01  8.578325E-02  1.416125E-17  5.949841E-02  7.888183E-03 -7.705991E-05 -1.269488E+00  0.000000E+00
  1.886687E-01  9.030691E-02  1.000000E-01  1.925044E-01  8.226729E-02 -4.248376E-17  6.171795E-02  9.999797E-03 -6.988638E-05 -1.286607E+00  0.000000E+00
  1.665185E-01  8.637574E-02  1.000000E-01  1.699017E-01  7.825582E-02  4.814826E-16  6.361535E-02  1.230275E-02 -6.275539E-05 -1.287270E+00  0.000000E+00
  1.457161E-01  8.201325E-02  1.000000E-01  1.486745E-01  7.380423E-02  4.531601E-16  6.503448E-02  1.472278E-02 -5.576967E-05 -1.272921E+00  0.000000E+00
  1.262764E-01  7.727722E-02  1.000000E-01  1.288377E-01  6.897146E-02  0.000000E+00  6.595602E-02  1.722286E-02 -4.899327E-05 -1.248683E+00  0.000000E+00
  1.081990E-01  7.222592E-02  1.000000E-01  1.103911E-01  6.381698E-02  0.000000E+00  6.641554E-02  1.977899E-02 -4.235073E-05 -1.221612E+00  0.000000E+00
  9.146971E-02  6.692066E-02  1.000000E-01  9.332006E-02  5.840336E-02  0.000000E+00  6.652131E-02  2.254506E-02 -3.583041E-05 -1.186879E+00  0.000000E+00
  7.608258E-02  6.135632E-02  1.000000E-01  7.761864E-02  5.272536E-02  0.000000E+00  6.623046E-02  2.569155E-02 -2.955324E-05 -1.126102E+00  0.000000E+00
  6.202881E-02  5.552165E-02  1.000000E-01  6.327781E-02  4.677151E-02 -5.664501E-17  6.520508E-02  2.907900E-02 -2.367048E-05 -1.022071E+00  0.000000E+00
  4.929579E-02  4.943309E-02  1.000000E-01  5.028471E-02  4.055859E-02 -8.496751E-17  6.308778E-02  3.215937E-02 -1.823147E-05 -8.798463E-01  0.000000E+00
  3.782553E-02  4.320104E-02  1.000000E-01  3.858017E-02  3.419925E-02  4.248376E-17  6.001525E-02  3.471562E-02 -1.317724E-05 -7.262763E-01  0.000000E+00
  2.757469E-02  3.687905E-02  1.000000E-01  2.811994E-02  2.774812E-02 -2.832250E-17  5.649471E-02  3.699072E-02 -8.043680E-06 -6.089530E-01  0.000000E+00
  1.848362E-02  3.054365E-02  1.000000E-01  1.884318E-02  2.128331E-02  5.664501E-17  5.320710E-02  4.044137E-02 -1.914275E-06 -5.118971E-01  0.000000E+00
  1.064273E-02  2.406881E-02  1.000000E-01  1.084213E-02  1.467622E-02  1.416125E-17  4.949206E-02  4.669234E-02  6.301079E-06 -2.730203E-01  0.000000E+00
  4.262692E-03  1.730449E-02  1.000000E-01  4.331778E-03  7.773737E-03  1.416125E-17  4.012523E-02  5.392703E-02  1.652884E-05  2.353079E-01  0.000000E+00
  1.215943E-04  1.002928E-02  1.000000E-01  1.060955E-04  3.499310E-04 -8.496751E-17  2.280201E-02  5.272996E-02  2.639595E-05  4.485774E-01  0.000000E+00
    1    2
    2    3
    3    4
    4    5
    5    6
    6    7
    7    8
    8    9
    9   10
   10   11
   11   12
   12   13
   13   14
   14   15
   15   16
   16   17
   18   19
   19   20
   20   21
   21   22
   22   23
   23   24
   24   25
   25   26
   26   27
   27   28
   28   29
   29   30
   30   31
   31   32
   32   33
   33   34
   35   36
   36   37
   37   38
   38   39
   39   40
   40   41
   41   42
   42   43
   43   44
   44   45
   45   46
   46   47
   47   48
   48   49
   49   50
   50   51
   52   53
   53   54
   54   55
   55   56
   56   57
   57   58
   58   59
   59   60
   60   61
   61   62
   62   63
   63   64
   64   65
   65   66
   66   67
   67   68
   69   70
   70   71
   71   72
   72   73
   73   74
   74   75
   75   76
   76   77
   77   78
   78   79
   79   80
   80   81
   81   82
   82   83
   83   84
   84   85
   85   86
   87   88
   88   89
   89   90
   90   91
   92   93
   93   94
   94   95
   95   96
   97   98
   98   99
   99  100
  100  101
  101  102
  102  103
  103  104
  104  105
  105  106
  106  107
  107  108
  108  109
  109  110
  110  111
  111  112
  112  113
  113  114
Zone T= "Slice_0002 None Relative Regular z = 0.36666667"
 Nodes =          114  Elements=          106  ZONETYPE=FELINESEG
 DATAPACKING=POINT
  7.301402E-01  6.865546E-02  3.666667E-01  7.450357E-01  6.017357E-02 -5.664499E-17  2.509066E-02 -4.496680E-03 -4.972731E-04 -4.494981E-01  0.000000E+00
  7.043967E-01  7.311794E-02  3.666667E-01  7.187663E-01  6.472720E-02 -1.132900E-16  2.690206E-02 -4.495192E-03 -5.054243E-04 -4.943713E-01  0.000000E+00
  6.775455E-01  7.743863E-02  3.666667E-01  6.913667E-01  6.913614E-02  3.058830E-14  2.862166E-02 -4.422718E-03 -5.100509E-04 -5.382726E-01  0.000000E+00
  6.496792E-01  8.156728E-02  3.666667E-01  6.629312E-01  7.334913E-02 -1.699350E-16  3.023696E-02 -4.289310E-03 -5.105061E-04 -5.818253E-01  0.000000E+00
  6.209097E-01  8.546699E-02  3.666667E-01  6.335741E-01  7.732849E-02  0.000000E+00  3.176882E-02 -4.100857E-03 -5.066235E-04 -6.251896E-01  0.000000E+00
  5.913667E-01  8.908954E-02  3.666667E-01  6.034277E-01  8.102503E-02  1.132900E-16  3.325732E-02 -3.861770E-03 -4.987326E-04 -6.684177E-01  0.000000E+00
  5.611982E-01  9.239640E-02  3.666667E-01  5.726430E-01  8.439943E-02  2.265800E-16  3.475219E-02 -3.578990E-03 -4.874070E-04 -7.124962E-01  0.000000E+00
  5.305654E-01  9.534793E-02  3.666667E-01  5.413844E-01  8.741125E-02  1.132900E-16  3.631793E-02 -3.256023E-03 -4.732779E-04 -7.593851E-01  0.000000E+00
  4.996398E-01  9.791291E-02  3.666667E-01  5.098272E-01  9.002862E-02 -1.699350E-16  3.803346E-02 -2.881894E-03 -4.569465E-04 -8.106967E-01  0.000000E+00
  4.685986E-01  1.000433E-01  3.666667E-01  4.781519E-01  9.220251E-02  1.132900E-16  3.996998E-02 -2.422302E-03 -4.390215E-04 -8.655257E-01  0.000000E+00
  4.376215E-01  1.016747E-01  3.666667E-01  4.465422E-01  9.386722E-02 -5.664499E-17  4.213392E-02 -1.839756E-03 -4.199043E-04 -9.210586E-01  0.000000E+00
  4.068895E-01  1.027445E-01  3.666667E-01  4.151824E-01  9.495892E-02 -5.664499E-17  4.444920E-02 -1.108782E-03 -3.997761E-04 -9.740358E-01  0.000000E+00
  3.765814E-01  1.032056E-01  3.666667E-01  3.842552E-01  9.542938E-02  5.664499E-17  4.677878E-02 -2.400635E-04 -3.785456E-04 -1.023481E+00  0.000000E+00
  3.468696E-01  1.030601E-01  3.666667E-01  3.539366E-01  9.528094E-02 -5.664499E-17  4.902920E-02  7.517414E-04 -3.563387E-04 -1.069162E+00  0.000000E+00
  3.179133E-01  1.023140E-01  3.666667E-01  3.243889E-01  9.451959E-02  0.000000E+00  5.119810E-02  1.875738E-03 -3.336796E-04 -1.110496E+00  0.000000E+00
  2.898519E-01  1.009787E-01  3.666667E-01  2.957543E-01  9.315705E-02  5.664499E-17  5.330823E-02  3.126159E-03 -3.107930E-04 -1.149997E+00  0.000000E+00
  2.628044E-01  9.908807E-02  3.666667E-01  2.681543E-01  9.122779E-02  5.664499E-17  5.540963E-02  4.498670E-03 -2.875511E-04 -1.191220E+00  0.000000E+00
  9.800000E-01  1.107122E-02  3.666667E-01  9.999990E-01  1.413149E-03  5.664499E-17  1.036564E-02 -1.329395E-02 -4.663929E-04 -5.683695E-02  0.000000E+00
  9.720124E-01  1.321458E-02  3.666667E-01  9.918483E-01  3.600285E-03  0.000000E+00  1.180704E-02 -3.244694E-03 -4.526797E-04  7.099927E-02  0.000000E+00
  9.632634E-01  1.558233E-02  3.666667E-01  9.829206E-01  6.016405E-03  1.132900E-16  8.678387E-03 -2.289441E-03 -3.823873E-04  2.471890E-02  0.000000E+00
  9.536907E-01  1.816389E-02  3.666667E-01  9.731524E-01  8.650695E-03 -5.664499E-17  6.655936E-03 -1.788818E-03 -3.333346E-04  8.208549E-03  0.000000E+00
  9.432303E-01  2.094463E-02  3.666667E-01  9.624782E-01  1.148823E-02 -1.699350E-16  6.066857E-03 -1.602102E-03 -3.149691E-04 -1.007296E-02  0.000000E+00
  9.318220E-01  2.392995E-02  3.666667E-01  9.508369E-01  1.453453E-02 -5.664499E-17  6.618733E-03 -1.716663E-03 -3.188122E-04 -3.450773E-02  0.000000E+00
  9.194070E-01  2.712534E-02  3.666667E-01  9.381684E-01  1.779518E-02  0.000000E+00  7.848140E-03 -2.000885E-03 -3.342265E-04 -6.100302E-02  0.000000E+00
  9.059278E-01  3.053147E-02  3.666667E-01  9.244138E-01  2.127088E-02 -1.132900E-16  9.351886E-03 -2.338778E-03 -3.536501E-04 -8.949956E-02  0.000000E+00
  8.913299E-01  3.414522E-02  3.666667E-01  9.095177E-01  2.495845E-02  0.000000E+00  1.090986E-02 -2.671879E-03 -3.730019E-04 -1.206600E-01  0.000000E+00
  8.755643E-01  3.796435E-02  3.666667E-01  8.934302E-01  2.885558E-02 -1.132900E-16  1.246749E-02 -2.985469E-03 -3.909037E-04 -1.547162E-01  0.000000E+00
  8.585885E-01  4.198118E-02  3.666667E-01  8.761076E-01  3.295446E-02  3.098481E-14  1.406659E-02 -3.283690E-03 -4.078488E-04 -1.913848E-01  0.000000E+00
  8.403666E-01  4.617615E-02  3.666667E-01  8.575135E-01  3.723512E-02  3.098481E-14  1.576203E-02 -3.571381E-03 -4.248082E-04 -2.302258E-01  0.000000E+00
  8.208730E-01  5.052185E-02  3.666667E-01  8.376218E-01  4.166958E-02 -5.664499E-17  1.755911E-02 -3.843823E-03 -4.418170E-04 -2.711043E-01  0.000000E+00
  8.000947E-01  5.498692E-02  3.666667E-01  8.164191E-01  4.622585E-02 -5.664499E-17  1.942270E-02 -4.087072E-03 -4.581278E-04 -3.139501E-01  0.000000E+00
  7.780326E-01  5.953154E-02  3.666667E-01  7.939063E-01  5.086330E-02 -1.132900E-16  2.131764E-02 -4.285589E-03 -4.730886E-04 -3.584676E-01  0.000000E+00
  7.547032E-01  6.410715E-02  3.666667E-01  7.701004E-01  5.553236E-02  3.075823E-14  2.321714E-02 -4.425459E-03 -4.862884E-04 -4.039503E-01  0.000000E+00
  7.301402E-01  6.865546E-02  3.666667E-01  7.450357E-01  6.017357E-02 -5.664499E-17  2.509066E-02 -4.496680E-03 -4.972731E-04 -4.494981E-01  0.000000E+00
  2.444131E-01 -2.336158E-03  3.666667E-01  2.493873E-01 -1.226808E-02  3.092817E-14  2.818022E-02  1.366483E-03  2.148511E-04  1.653114E-01  0.000000E+00
  2.700250E-01 -1.091784E-03  3.666667E-01  2.755224E-01 -1.099829E-02  5.664499E-17  2.841019E-02  1.374213E-03  2.239580E-04  1.638060E-01  0.000000E+00
  2.967058E-01  1.870187E-04  3.666667E-01  3.027482E-01 -9.693368E-03 -5.664499E-17  2.872746E-02  1.431656E-03  2.337250E-04  1.565248E-01  0.000000E+00
  3.243554E-01  1.610809E-03  3.666667E-01  3.309625E-01 -8.240496E-03  3.070159E-14  2.875562E-02  1.614200E-03  2.435004E-04  1.449311E-01  0.000000E+00
  3.528511E-01  3.337957E-03  3.666667E-01  3.600403E-01 -6.478071E-03 -5.664499E-17  2.808878E-02  1.932994E-03  2.522629E-04  1.355534E-01  0.000000E+00
  3.820469E-01  5.591005E-03  3.666667E-01  3.898324E-01 -4.179003E-03 -1.132900E-16  2.648680E-02  2.321144E-03  2.588250E-04  1.364612E-01  0.000000E+00
  4.117740E-01  8.528681E-03  3.666667E-01  4.201667E-01 -1.181323E-03  1.132900E-16  2.406329E-02  2.646443E-03  2.624173E-04  1.546126E-01  0.000000E+00
  4.418498E-01  1.220403E-02  3.666667E-01  4.508568E-01  2.569095E-03 -1.699350E-16  2.129391E-02  2.777888E-03  2.632939E-04  1.893949E-01  0.000000E+00
  4.721105E-01  1.643735E-02  3.666667E-01  4.817356E-01  6.888879E-03 -1.132900E-16  1.896779E-02  2.549544E-03  2.641350E-04  2.451720E-01  0.000000E+00
  5.024968E-01  2.033453E-02  3.666667E-01  5.127426E-01  1.086567E-02  5.664499E-17  1.755852E-02  2.064672E-03  2.666585E-04  3.027787E-01  0.000000E+00
  5.328693E-01  2.353902E-02  3.666667E-01  5.437354E-01  1.413561E-02 -2.265800E-16  1.688474E-02  1.627582E-03  2.702404E-04  3.317373E-01  0.000000E+00
  5.630297E-01  2.615326E-02  3.666667E-01  5.745119E-01  1.680325E-02  1.132900E-16  1.660257E-02  1.317393E-03  2.747119E-04  3.403795E-01  0.000000E+00
  5.927917E-01  2.829295E-02  3.666667E-01  6.048818E-01  1.898664E-02  0.000000E+00  1.644450E-02  1.095482E-03  2.793218E-04  3.461574E-01  0.000000E+00
  6.219828E-01  3.007737E-02  3.666667E-01  6.346692E-01  2.080751E-02  5.664499E-17  1.625776E-02  9.172164E-04  2.827898E-04  3.540347E-01  0.000000E+00
  6.504533E-01  3.154208E-02  3.666667E-01  6.637211E-01  2.230214E-02 -1.132900E-16  1.602026E-02  7.334051E-04  2.846443E-04  3.643849E-01  0.000000E+00
  6.780742E-01  3.264154E-02  3.666667E-01  6.919062E-01  2.342406E-02  3.092817E-14  1.578480E-02  5.219196E-04  2.851694E-04  3.754109E-01  0.000000E+00
  7.047326E-01  3.333418E-02  3.666667E-01  7.191091E-01  2.413084E-02 -5.664499E-17  1.562286E-02  2.851172E-04  2.850067E-04  3.847700E-01  0.000000E+00
  1.215943E-04  9.348613E-03  3.666667E-01  1.060955E-04 -3.446434E-04 -2.265800E-16 -4.498256E-02  8.025326E-02  2.303941E-04  7.526975E-01  0.000000E+00
  4.902502E-03  3.681896E-03  3.666667E-01  4.984655E-03 -6.127106E-03  5.664499E-17 -1.652076E-02  1.931131E-02  1.932593E-04  9.375556E-01  0.000000E+00
  1.254908E-02  4.353767E-05  3.666667E-01  1.278742E-02 -9.839780E-03  2.265800E-16  8.071118E-03 -2.124590E-03  1.520706E-04  5.416804E-01  0.000000E+00
  2.163699E-02 -2.341615E-03  3.666667E-01  2.206096E-02 -1.227365E-02  5.664499E-17  2.184798E-02 -4.496808E-03  1.352844E-04  3.401108E-01  0.000000E+00
  3.184423E-02 -4.014213E-03  3.666667E-01  3.247668E-02 -1.398041E-02  0.000000E+00  2.764484E-02 -3.618693E-03  1.364321E-04  3.063644E-01  0.000000E+00
  4.311596E-02 -5.184311E-03  3.666667E-01  4.397864E-02 -1.517441E-02 -1.132900E-16  2.987705E-02 -2.392124E-03  1.417757E-04  2.711869E-01  0.000000E+00
  5.546913E-02 -5.894921E-03  3.666667E-01  5.658413E-02 -1.589953E-02 -5.664499E-17  3.056183E-02 -1.408454E-03  1.477767E-04  2.385627E-01  0.000000E+00
  6.891473E-02 -6.359506E-03  3.666667E-01  7.030436E-02 -1.637361E-02  1.699350E-16  3.080930E-02 -8.696158E-04  1.542198E-04  2.264694E-01  0.000000E+00
  8.348882E-02 -6.684381E-03  3.666667E-01  8.517614E-02 -1.670512E-02  2.832250E-16  3.094182E-02 -5.143240E-04  1.605016E-04  2.143135E-01  0.000000E+00
  9.923792E-02 -6.863006E-03  3.666667E-01  1.012469E-01 -1.688739E-02 -1.132900E-16  3.091753E-02 -1.493837E-04  1.665874E-04  1.952821E-01  0.000000E+00
  1.162051E-01 -6.837041E-03  3.666667E-01  1.185606E-01 -1.686090E-02  5.664499E-17  3.069922E-02  2.256531E-04  1.728160E-04  1.782881E-01  0.000000E+00
  1.344203E-01 -6.598147E-03  3.666667E-01  1.371479E-01 -1.661712E-02  0.000000E+00  3.031054E-02  5.553565E-04  1.792731E-04  1.688290E-01  0.000000E+00
  1.539027E-01 -6.142379E-03  3.666667E-01  1.570283E-01 -1.615205E-02  3.064494E-14  2.977188E-02  8.410646E-04  1.857718E-04  1.636457E-01  0.000000E+00
  1.746592E-01 -5.457417E-03  3.666667E-01  1.782087E-01 -1.545309E-02  3.109810E-14  2.916016E-02  1.069914E-03  1.923746E-04  1.615744E-01  0.000000E+00
  1.966815E-01 -4.570086E-03  3.666667E-01  2.006808E-01 -1.454764E-02 -1.132900E-16  2.860865E-02  1.226560E-03  1.992936E-04  1.626478E-01  0.000000E+00
  2.199461E-01 -3.516151E-03  3.666667E-01  2.244206E-01 -1.347218E-02 -1.699350E-16  2.824753E-02  1.323532E-03  2.066969E-04  1.644627E-01  0.000000E+00
  2.444131E-01 -2.336158E-03  3.666667E-01  2.493873E-01 -1.226808E-02  3.092817E-14  2.818022E-02  1.366483E-03  2.148511E-04  1.653114E-01  0.000000E+00
  7.047326E-01  3.333418E-02  3.666667E-01  7.191091E-01  2.413084E-02 -5.664499E-17  1.562286E-02  2.851172E-04  2.850067E-04  3.847700E-01  0.000000E+00