 Title = "ADflow Slice Data"
Variables =  "CoordinateX"  "CoordinateY"  "CoordinateZ"  "XoC"  "YoC"  "ZoC" "VelocityX" "VelocityY" "VelocityZ" "CoefPressure" "Mach" 
Zone T= "Slice_0001 None Relative Regular z = 0.10000000"
 Nodes =          114  Elements=          106  ZONETYPE=FELINESEG
 DATAPACKING=POINT
  7.301402E-01  6.763717E-02  1.000000E-01  7.450340E-01  5.914335E-02  1.416122E-17  2.566761E-02 -4.249134E-03 -1.928376E-04 -4.377097E-01  0.000000E+00
  7.043967E-01  7.175133E-02  1.000000E-01  7.187647E-01  6.334153E-02 -4.248365E-17  2.700859E-02 -4.158551E-03 -1.908961E-04 -4.723905E-01  0.000000E+00
  6.775455E-01  7.573345E-02  1.000000E-01  6.913651E-01  6.740498E-02  3.965140E-16  2.815565E-02 -4.024758E-03 -1.873335E-04 -5.048405E-01  0.000000E+00
  6.496792E-01  7.956875E-02  1.000000E-01  6.629297E-01  7.131861E-02  4.248365E-17  2.914402E-02 -3.879331E-03 -1.822136E-04 -5.382458E-01  0.000000E+00
  6.209097E-01  8.326650E-02  1.000000E-01  6.335726E-01  7.509188E-02 -2.832243E-17  3.008070E-02 -3.733461E-03 -1.756881E-04 -5.748334E-01  0.000000E+00
  5.913667E-01  8.680062E-02  1.000000E-01  6.034263E-01  7.869818E-02 -2.832243E-17  3.109717E-02 -3.577079E-03 -1.679208E-04 -6.149540E-01  0.000000E+00
  5.611982E-01  9.012944E-02  1.000000E-01  5.726417E-01  8.209498E-02  0.000000E+00  3.229203E-02 -3.402589E-03 -1.589746E-04 -6.595138E-01  0.000000E+00
  5.305654E-01  9.320153E-02  1.000000E-01  5.413832E-01  8.522982E-02 -5.664486E-17  3.373682E-02 -3.201465E-03 -1.488551E-04 -7.103016E-01  0.000000E+00
  4.996398E-01  9.596565E-02  1.000000E-01  5.098260E-01  8.805039E-02  0.000000E+00  3.549809E-02 -2.949782E-03 -1.375967E-04 -7.684506E-01  0.000000E+00
  4.685986E-01  9.834756E-02  1.000000E-01  4.781508E-01  9.048094E-02  1.416122E-17  3.762868E-02 -2.601679E-03 -1.253155E-04 -8.324218E-01  0.000000E+00
  4.376215E-01  1.002541E-01  1.000000E-01  4.465411E-01  9.242644E-02 -8.496730E-17  4.011283E-02 -2.108340E-03 -1.121930E-04 -8.984834E-01  0.000000E+00
  4.068895E-01  1.015957E-01  1.000000E-01  4.151815E-01  9.379540E-02  0.000000E+00  4.283584E-02 -1.433060E-03 -9.849518E-05 -9.620543E-01  0.000000E+00
  3.765814E-01  1.023029E-01  1.000000E-01  3.842544E-01  9.451701E-02 -5.664486E-17  4.560063E-02 -5.785791E-04 -8.463231E-05 -1.020625E+00  0.000000E+00
  3.468696E-01  1.023627E-01  1.000000E-01  3.539358E-01  9.457812E-02 -5.664486E-17  4.824323E-02  4.352714E-04 -7.121962E-05 -1.073042E+00  0.000000E+00
  3.179133E-01  1.017782E-01  1.000000E-01  3.243881E-01  9.398169E-02 -2.832243E-17  5.070620E-02  1.599042E-03 -5.895317E-05 -1.118887E+00  0.000000E+00
  2.898519E-01  1.005678E-01  1.000000E-01  2.957536E-01  9.274651E-02 -4.248365E-17  5.299944E-02  2.891353E-03 -4.831043E-05 -1.161230E+00  0.000000E+00
  2.628044E-01  9.877260E-02  1.000000E-01  2.681537E-01  9.091466E-02  0.000000E+00  5.519481E-02  4.300691E-03 -3.940610E-05 -1.204089E+00  0.000000E+00
  9.800000E-01  1.219173E-02  1.000000E-01  9.999967E-01  2.565537E-03 -2.832243E-17  1.059734E-02 -1.317627E-02 -2.041388E-04 -5.668744E-02  0.000000E+00
  9.720124E-01  1.432834E-02  1.000000E-01  9.918460E-01  4.745783E-03 -2.832243E-17  1.211153E-02 -3.310315E-03 -1.904728E-04  6.853676E-02  0.000000E+00
  9.632634E-01  1.668209E-02  1.000000E-01  9.829183E-01  7.147600E-03 -2.832243E-17  9.060870E-03 -2.374507E-03 -1.615745E-04  2.164345E-02  0.000000E+00
  9.536907E-01  1.924143E-02  1.000000E-01  9.731501E-01  9.759212E-03 -2.832243E-17  7.153371E-03 -1.901745E-03 -1.414410E-04  3.716391E-03  0.000000E+00
  9.432303E-01  2.199060E-02  1.000000E-01  9.624760E-01  1.256454E-02  1.416122E-17  6.721694E-03 -1.750616E-03 -1.343261E-04 -1.617568E-02  0.000000E+00
  9.318220E-01  2.493292E-02  1.000000E-01  9.508347E-01  1.556694E-02  1.416122E-17  7.438681E-03 -1.896857E-03 -1.366033E-04 -4.207839E-02  0.000000E+00
  9.194070E-01  2.807135E-02  1.000000E-01  9.381662E-01  1.876947E-02 -8.496730E-17  8.808132E-03 -2.199685E-03 -1.435360E-04 -6.996051E-02  0.000000E+00
  9.059278E-01  3.140386E-02  1.000000E-01  9.244117E-01  2.217004E-02 -5.664486E-17  1.041845E-02 -2.541781E-03 -1.518262E-04 -9.968399E-02  0.000000E+00
  8.913299E-01  3.492430E-02  1.000000E-01  9.095157E-01  2.576238E-02  0.000000E+00  1.206473E-02 -2.869356E-03 -1.598474E-04 -1.317809E-01  0.000000E+00
  8.755643E-01  3.862703E-02  1.000000E-01  8.934281E-01  2.954073E-02 -2.832243E-17  1.371442E-02 -3.173093E-03 -1.671597E-04 -1.663627E-01  0.000000E+00
  8.585885E-01  4.250090E-02  1.000000E-01  8.761056E-01  3.349371E-02  4.106753E-16  1.541072E-02 -3.456565E-03 -1.738787E-04 -2.029990E-01  0.000000E+00
  8.403666E-01  4.652308E-02  1.000000E-01  8.575115E-01  3.759804E-02  3.965140E-16  1.717312E-02 -3.715991E-03 -1.799887E-04 -2.410754E-01  0.000000E+00
  8.208730E-01  5.066330E-02  1.000000E-01  8.376199E-01  4.182282E-02 -8.496730E-17  1.896974E-02 -3.939684E-03 -1.851882E-04 -2.802560E-01  0.000000E+00
  8.000947E-01  5.488810E-02  1.000000E-01  8.164172E-01  4.613390E-02 -2.832243E-17  2.075619E-02 -4.114784E-03 -1.892059E-04 -3.202531E-01  0.000000E+00
  7.780326E-01  5.915712E-02  1.000000E-01  7.939045E-01  5.049011E-02 -2.832243E-17  2.249532E-02 -4.229972E-03 -1.918967E-04 -3.605427E-01  0.000000E+00
  7.547032E-01  6.342402E-02  1.000000E-01  7.700986E-01  5.484416E-02  4.389977E-16  2.414835E-02 -4.275769E-03 -1.931468E-04 -4.001258E-01  0.000000E+00
  7.301402E-01  6.763717E-02  1.000000E-01  7.450340E-01  5.914335E-02  2.832243E-17  2.566761E-02 -4.249134E-03 -1.928376E-04 -4.377097E-01  0.000000E+00
  2.444131E-01 -2.598432E-03  1.000000E-01  2.493868E-01 -1.252669E-02  3.681916E-16  2.790927E-02  1.274935E-03  4.259322E-05  1.668029E-01  0.000000E+00
  2.700250E-01 -1.430754E-03  1.000000E-01  2.755218E-01 -1.133516E-02 -4.248365E-17  2.816530E-02  1.263826E-03  4.514884E-05  1.648986E-01  0.000000E+00
  2.967058E-01 -2.520891E-04  1.000000E-01  3.027475E-01 -1.013242E-02 -2.832243E-17  2.854416E-02  1.298088E-03  4.862318E-05  1.568445E-01  0.000000E+00
  3.243554E-01  1.041612E-03  1.000000E-01  3.309617E-01 -8.812302E-03  4.248365E-16  2.868949E-02  1.455287E-03  5.312084E-05  1.438824E-01  0.000000E+00
  3.528511E-01  2.601574E-03  1.000000E-01  3.600395E-01 -7.220481E-03 -4.248365E-17  2.820283E-02  1.754258E-03  5.850760E-05  1.323363E-01  0.000000E+00
  3.820469E-01  4.645065E-03  1.000000E-01  3.898315E-01 -5.135255E-03  5.664486E-17  2.682647E-02  2.143690E-03  6.434436E-05  1.299952E-01  0.000000E+00
  4.117740E-01  7.340415E-03  1.000000E-01  4.201657E-01 -2.384857E-03 -5.664486E-17  2.463709E-02  2.504083E-03  7.002763E-05  1.439204E-01  0.000000E+00
  4.418498E-01  1.076235E-02  1.000000E-01  4.508558E-01  1.106960E-03 -2.832243E-17  2.207477E-02  2.698162E-03  7.510387E-05  1.743502E-01  0.000000E+00
  4.721105E-01  1.475745E-02  1.000000E-01  4.817345E-01  5.183659E-03 -5.664486E-17  1.991191E-02  2.530743E-03  7.960208E-05  2.267414E-01  0.000000E+00
  5.024968E-01  1.845950E-02  1.000000E-01  5.127414E-01  8.961317E-03  1.416122E-17  1.860824E-02  2.087296E-03  8.392346E-05  2.820525E-01  0.000000E+00
  5.328693E-01  2.153978E-02  1.000000E-01  5.437341E-01  1.210451E-02 -4.248365E-17  1.795915E-02  1.683846E-03  8.845536E-05  3.091720E-01  0.000000E+00
  5.630297E-01  2.412348E-02  1.000000E-01  5.745106E-01  1.474098E-02  1.416122E-17  1.760527E-02  1.410273E-03  9.331244E-05  3.166058E-01  0.000000E+00
  5.927917E-01  2.633998E-02  1.000000E-01  6.048804E-01  1.700274E-02  5.664486E-17  1.727507E-02  1.228580E-03  9.815670E-05  3.225109E-01  0.000000E+00
  6.219828E-01  2.831196E-02  1.000000E-01  6.346677E-01  1.901500E-02 -4.248365E-17  1.682812E-02  1.090295E-03  1.024647E-04  3.321382E-01  0.000000E+00
  6.504533E-01  3.006929E-02  1.000000E-01  6.637196E-01  2.080821E-02  5.664486E-17  1.628021E-02  9.371826E-04  1.059936E-04  3.459361E-01  0.000000E+00
  6.780742E-01  3.153287E-02  1.000000E-01  6.919046E-01  2.230168E-02  4.531589E-16  1.573913E-02  7.381514E-04  1.088497E-04  3.619486E-01  0.000000E+00
  7.047326E-01  3.260602E-02  1.000000E-01  7.191075E-01  2.339675E-02  0.000000E+00  1.531998E-02  4.989496E-04  1.113157E-04  3.765452E-01  0.000000E+00
  1.215943E-04  9.339775E-03  1.000000E-01  1.060953E-04 -3.446640E-04 -5.664486E-17 -4.531304E-02  8.083484E-02  6.919410E-05  7.522555E-01  0.000000E+00
  4.902502E-03  3.672064E-03  1.000000E-01  4.984644E-03 -6.128127E-03 -8.496730E-17 -1.675571E-02  1.952943E-02  5.339822E-05  9.381254E-01  0.000000E+00
  1.254908E-02  3.196779E-05  1.000000E-01  1.278739E-02 -9.842566E-03 -2.832243E-17  7.894721E-03 -2.060920E-03  3.942721E-05  5.429584E-01  0.000000E+00
  2.163699E-02 -2.355504E-03  1.000000E-01  2.206091E-02 -1.227880E-02  1.416122E-17  2.165784E-02 -4.464063E-03  3.350335E-05  3.415446E-01  0.000000E+00
  3.184423E-02 -4.031063E-03  1.000000E-01  3.247660E-02 -1.398858E-02 -2.832243E-17  2.740654E-02 -3.597237E-03  3.265174E-05  3.075907E-01  0.000000E+00
  4.311596E-02 -5.204908E-03  1.000000E-01  4.397854E-02 -1.518640E-02 -8.496730E-17  2.960162E-02 -2.382032E-03  3.307395E-05  2.723318E-01  0.000000E+00
  5.546913E-02 -5.920260E-03  1.000000E-01  5.658400E-02 -1.591636E-02  1.416122E-17  3.026815E-02 -1.408865E-03  3.370859E-05  2.397654E-01  0.000000E+00
  6.891473E-02 -6.390849E-03  1.000000E-01  7.030420E-02 -1.639656E-02 -8.496730E-17  3.050654E-02 -8.773039E-04  3.440188E-05  2.277397E-01  0.000000E+00
  8.348882E-02 -6.723343E-03  1.000000E-01  8.517594E-02 -1.673584E-02  5.664486E-17  3.063315E-02 -5.282520E-04  3.503201E-05  2.156402E-01  0.000000E+00
  9.923792E-02 -6.911675E-03  1.000000E-01  1.012467E-01 -1.692802E-02 -9.912851E-17  3.060560E-02 -1.702938E-04  3.561441E-05  1.966819E-01  0.000000E+00
  1.162051E-01 -6.898126E-03  1.000000E-01  1.185604E-01 -1.691419E-02 -8.496730E-17  3.038747E-02  1.970050E-04  3.622307E-05  1.797812E-01  0.000000E+00
  1.344203E-01 -6.675172E-03  1.000000E-01  1.371476E-01 -1.668669E-02 -8.496730E-17  3.000257E-02  5.186814E-04  3.688372E-05  1.704141E-01  0.000000E+00
  1.539027E-01 -6.239951E-03  1.000000E-01  1.570279E-01 -1.624258E-02  4.389977E-16  2.947078E-02  7.959100E-04  3.759430E-05  1.653070E-01  0.000000E+00
  1.746592E-01 -5.581569E-03  1.000000E-01  1.782083E-01 -1.557075E-02  3.257080E-16  2.886700E-02  1.015649E-03  3.840584E-05  1.632893E-01  0.000000E+00
  1.966815E-01 -4.728745E-03  1.000000E-01  2.006804E-01 -1.470051E-02 -2.832243E-17  2.832216E-02  1.162129E-03  3.941591E-05  1.643775E-01  0.000000E+00
  2.199461E-01 -3.719751E-03  1.000000E-01  2.244201E-01 -1.367091E-02 -4.248365E-17  2.796671E-02  1.246984E-03  4.075292E-05  1.661361E-01  0.000000E+00
  2.444131E-01 -2.598432E-03  1.000000E-01  2.493868E-01 -1.252669E-02  3.823528E-16  2.790927E-02  1.274935E-03  4.259322E-05  1.668029E-01  0.000000E+00
  7.047326E-01  3.260602E-02  1.000000E-01  7.191075E-01  2.339675E-02 -2.832243E-17  1.531998E-02  4.989496E-04  1.113157E-04  3.765452E-01  0.000000E+00
  7.303325E-01  3.322830E-02  1.000000E-01  7.452302E-01  2.403174E-02 -2.832243E-17  1.511309E-02  2.332237E-04  1.137099E-04  3.873707E-01  0.000000E+00
  7.547951E-01  3.337789E-02  1.000000E-01  7.701925E-01  2.418438E-02  4.389977E-16  1.519194E-02 -6.193167E-05  1.163248E-04  3.942664E-01  0.000000E+00
  7.780600E-01  3.304020E-02  1.000000E-01  7.939325E-01  2.383980E-02  1.416122E-17  1.561033E-02 -4.011312E-04  1.193787E-04  3.970118E-01  0.000000E+00
  8.000833E-01  3.222801E-02  1.000000E-01  8.164055E-01  2.301102E-02 -4.248365E-17  1.637961E-02 -7.985537E-04  1.229623E-04  3.949170E-01  0.000000E+00
  8.208376E-01  3.097441E-02  1.000000E-01  8.375837E-01  2.173182E-02 -2.832243E-17  1.743285E-02 -1.238337E-03  1.269520E-04  3.869328E-01  0.000000E+00
  8.403144E-01  2.938767E-02  1.000000E-01  8.574583E-01  2.011267E-02  4.389977E-16  1.860952E-02 -1.655605E-03  1.309834E-04  3.722420E-01  0.000000E+00
  8.585258E-01  2.763093E-02  1.000000E-01  8.760416E-01  1.832005E-02  3.965140E-16  1.971320E-02 -1.983846E-03  1.345718E-04  3.533454E-01  0.000000E+00
  8.754993E-01  2.584810E-02  1.000000E-01  8.933618E-01  1.650081E-02 -2.832243E-17  2.059972E-02 -2.205122E-03  1.372284E-04  3.344662E-01  0.000000E+00
  8.912718E-01  2.412261E-02  1.000000E-01  9.094564E-01  1.474008E-02 -2.832243E-17  2.125364E-02 -2.377129E-03  1.386421E-04  3.192925E-01  0.000000E+00
  9.058836E-01  2.244770E-02  1.000000E-01  9.243666E-01  1.303097E-02 -4.248365E-17  2.179983E-02 -2.585562E-03  1.389033E-04  3.084384E-01  0.000000E+00
  9.193796E-01  2.078773E-02  1.000000E-01  9.381383E-01  1.133709E-02 -5.664486E-17  2.243109E-02 -2.858651E-03  1.387154E-04  2.972430E-01  0.000000E+00
  9.318118E-01  1.914327E-02  1.000000E-01  9.508243E-01  9.659050E-03  4.248365E-17  2.335108E-02 -3.212983E-03  1.395245E-04  2.830333E-01  0.000000E+00
  9.432349E-01  1.750894E-02  1.000000E-01  9.624807E-01  7.991343E-03 -2.832243E-17  2.459896E-02 -3.664852E-03  1.423868E-04  2.663407E-01  0.000000E+00
  9.537058E-01  1.588446E-02  1.000000E-01  9.731655E-01  6.333681E-03  0.000000E+00  2.553233E-02 -4.112730E-03  1.448561E-04  2.415768E-01  0.000000E+00
  9.632829E-01  1.427412E-02  1.000000E-01  9.829382E-01  4.690457E-03 -2.832243E-17  2.454701E-02 -4.301538E-03  1.390545E-04  2.066955E-01  0.000000E+00
  9.720275E-01  1.271052E-02  1.000000E-01  9.918614E-01  3.094920E-03  0.000000E+00  2.085344E-02 -3.747862E-03  1.198250E-04  2.040894E-01  0.000000E+00
  9.800000E-01  1.121565E-02  1.000000E-01  9.999967E-01  1.569523E-03  1.416122E-17  1.388272E-02  4.387782E-03  7.785048E-05 -9.962641E-03  0.000000E+00
  1.215943E-04  1.002045E-02  1.000000E-01  1.060953E-04  3.499090E-04 -9.912851E-17  2.285424E-02  5.299336E-02  3.459833E-05  4.595201E-01  0.000000E+00
  7.278129E-05  9.905790E-03  1.000000E-01  5.628529E-05  2.329108E-04  1.416122E-17  1.553552E-02  7.597827E-02  4.700210E-05  2.998112E-01  0.000000E+00
  1.762252E-05  9.677541E-03  1.000000E-01  0.000000E+00  0.000000E+00  0.000000E+00 -1.210269E-02  1.217713E-01  6.772689E-05  3.398132E-01  0.000000E+00
  8.694958E-05  9.452370E-03  1.000000E-01  7.074293E-05 -2.297698E-04  0.000000E+00 -5.074178E-02  1.317659E-01  7.704132E-05  3.888947E-01  0.000000E+00
  1.215943E-04  9.339775E-03  1.000000E-01  1.060953E-04 -3.446640E-04 -4.248365E-17 -4.531304E-02  8.083484E-02  6.919410E-05  7.522555E-01  0.000000E+00
  9.800000E-01  1.121565E-02  1.000000E-01  9.999967E-01  1.569523E-03  0.000000E+00  1.388272E-02  4.387782E-03  7.785048E-05 -9.962641E-03  0.000000E+00
  9.800000E-01  1.137833E-02  1.000000E-01  9.999967E-01  1.735526E-03  0.000000E+00  4.508353E-03 -1.512985E-03 -1.275112E-05 -2.111683E-01  0.000000E+00
  9.800000E-01  1.170369E-02  1.000000E-01  9.999967E-01  2.067530E-03 -2.832243E-17 -4.408304E-04 -1.596673E-02 -1.158667E-04 -1.755575E-01  0.000000E+00
  9.800000E-01  1.202905E-02  1.000000E-01  9.999967E-01  2.399534E-03 -5.664486E-17  3.427758E-03 -1.967006E-02 -1.799481E-04 -1.938906E-01  0.000000E+00
  9.800000E-01  1.219173E-02  1.000000E-01  9.999967E-01  2.565537E-03  0.000000E+00  1.059734E-02 -1.317627E-02 -2.041388E-04 -5.668744E-02  0.000000E+00
  2.628044E-01  9.877260E-02  1.000000E-01  2.681537E-01  9.091466E-02 -2.832243E-17  5.519481E-02  4.300691E-03 -3.940610E-05 -1.204089E+00  0.000000E+00
  2.368706E-01  9.644108E-02  1.000000E-01  2.416903E-01  8.853553E-02  3.681916E-16  5.744319E-02  5.911158E-03 -3.207898E-05 -1.244429E+00  0.000000E+00
  2.121362E-01  9.356505E-02  1.000000E-01  2.164507E-01  8.560076E-02  1.416122E-17  5.976856E-02  7.797467E-03 -2.603851E-05 -1.275415E+00  0.000000E+00
  1.886687E-01  9.016162E-02  1.000000E-01  1.925039E-01  8.212782E-02 -4.248365E-17  6.199030E-02  9.937403E-03 -2.099196E-05 -1.292134E+00  0.000000E+00
  1.665185E-01  8.626264E-02  1.000000E-01  1.699013E-01  7.814920E-02  4.814813E-16  6.387986E-02  1.226411E-02 -1.671843E-05 -1.292096E+00  0.000000E+00
  1.457161E-01  8.192480E-02  1.000000E-01  1.486741E-01  7.372277E-02  4.531589E-16  6.528406E-02  1.470361E-02 -1.305892E-05 -1.276870E+00  0.000000E+00
  1.262764E-01  7.720770E-02  1.000000E-01  1.288374E-01  6.890933E-02  0.000000E+00  6.618588E-02  1.721912E-02 -9.867512E-06 -1.251661E+00  0.000000E+00
  1.081990E-01  7.217099E-02  1.000000E-01  1.103908E-01  6.376976E-02  0.000000E+00  6.662240E-02  1.978681E-02 -6.983946E-06 -1.223577E+00  0.000000E+00
  9.146971E-02  6.687701E-02  1.000000E-01  9.331983E-02  5.836766E-02  0.000000E+00  6.670344E-02  2.256127E-02 -4.264942E-06 -1.187821E+00  0.000000E+00
  7.608258E-02  6.132141E-02  1.000000E-01  7.761844E-02  5.269860E-02  0.000000E+00  6.638738E-02  2.571379E-02 -1.625948E-06 -1.126044E+00  0.000000E+00
  6.202881E-02  5.549352E-02  1.000000E-01  6.327765E-02  4.675169E-02 -5.664486E-17  6.533712E-02  2.910520E-02  9.511138E-07 -1.021064E+00  0.000000E+00
  4.929579E-02  4.941024E-02  1.000000E-01  5.028458E-02  4.054416E-02 -8.496730E-17  6.319547E-02  3.218691E-02  3.460556E-06 -8.779225E-01  0.000000E+00
  3.782553E-02  4.318229E-02  1.000000E-01  3.858007E-02  3.418902E-02  4.248365E-17  6.009791E-02  3.474066E-02  5.957394E-06 -7.234254E-01  0.000000E+00
  2.757469E-02  3.686351E-02  1.000000E-01  2.811987E-02  2.774119E-02 -2.832243E-17  5.654695E-02  3.700559E-02  8.699752E-06 -6.052365E-01  0.000000E+00
  1.848362E-02  3.053061E-02  1.000000E-01  1.884314E-02  2.127895E-02  5.664486E-17  5.321851E-02  4.043255E-02  1.246898E-05 -5.075514E-01  0.000000E+00
  1.064273E-02  2.405770E-02  1.000000E-01  1.084211E-02  1.467384E-02  1.416122E-17  4.946309E-02  4.665089E-02  1.870200E-05 -2.678239E-01  0.000000E+00
  4.262692E-03  1.729480E-02  1.000000E-01  4.331767E-03  7.772826E-03  1.416122E-17  4.010236E-02  5.389400E-02  2.758004E-05  2.434580E-01  0.000000E+00
  1.215943E-04  1.002045E-02  1.000000E-01  1.060953E-04  3.499090E-04 -8.496730E-17  2.285424E-02  5.299336E-02  3.459833E-05  4.595201E-01  0.000000E+00
    1    2
    2    3
    3    4
    4    5
    5    6
    6    7
    7    8
    8    9
    9   10
   10   11
   11   12
   12   13
   13   14
   14   15
   15   16
   16   17
   18   19
   19   20
   20   21
   21   22
   22   23
   23   24
   24   25
   25   26
   26   27
   27   28
   28   29
   29   30
   30   31
   31   32
   32   33
   33   34
   35   36
   36   37
   37   38
   38   39
   39   40
   40   41
   41   42
   42   43
   43   44
   44   45
   45   46
   46   47
   47   48
   48   49
   49   50
   50   51
   52   53
   53   54
   54   55
   55   56
   56   57
   57   58
   58   59
   59   60
   60   61
   61   62
   62   63
   63   64
   64   65
   65   66
   66   67
   67   68
   69   70
   70   71
   71   72
   72   73
   73   74
   74   75
   75   76
   76   77
   77   78
   78   79
   79   80
   80   81
   81   82
   82   83
   83   84
   84   85
   85   86
   87   88
   88   89
   89   90
   90   91
   92   93
   93   94
   94   95
   95   96
   97   98
   98   99
   99  100
  100  101
  101  102
  102  103
  103  104
  104  105
  105  106
  106  107
  107  108
  108  109
  109  110
  110  111
  111  112
  112  113
  113  114
Zone T= "Slice_0002 None Relative Regular z = 0.36666667"
 Nodes =          114  Elements=          106  ZONETYPE=FELINESEG
 DATAPACKING=POINT
  7.301402E-01  6.685065E-02  3.666667E-01  7.450345E-01  5.836883E-02 -5.664490E-17  2.581546E-02 -4.245314E-03 -6.067928E-04 -4.307467E-01  0.000000E+00
  7.043967E-01  7.093849E-02  3.666667E-01  7.187652E-01  6.254017E-02 -1.132898E-16  2.714258E-02 -4.155574E-03 -5.985266E-04 -4.647744E-01  0.000000E+00
  6.775455E-01  7.489974E-02  3.666667E-01  6.913656E-01  6.658233E-02  3.058825E-14  2.827653E-02 -4.024550E-03 -5.858005E-04 -4.966527E-01  0.000000E+00
  6.496792E-01  7.872107E-02  3.666667E-01  6.629302E-01  7.048170E-02 -1.699347E-16  2.925240E-02 -3.883557E-03 -5.692961E-04 -5.295552E-01  0.000000E+00
  6.209097E-01  8.241294E-02  3.666667E-01  6.335731E-01  7.424898E-02  0.000000E+00  3.017661E-02 -3.743473E-03 -5.498323E-04 -5.656920E-01  0.000000E+00
  5.913667E-01  8.595048E-02  3.666667E-01  6.034267E-01  7.785876E-02  1.132898E-16  3.118009E-02 -3.594159E-03 -5.280003E-04 -6.054328E-01  0.000000E+00
  5.611982E-01  8.929303E-02  3.666667E-01  5.726421E-01  8.126957E-02  2.265796E-16  3.236232E-02 -3.428114E-03 -5.037987E-04 -6.497097E-01  0.000000E+00
  5.305654E-01  9.238966E-02  3.666667E-01  5.413836E-01  8.442945E-02  1.132898E-16  3.379763E-02 -3.236880E-03 -4.768741E-04 -7.003259E-01  0.000000E+00
  4.996398E-01  9.518888E-02  3.666667E-01  5.098264E-01  8.728585E-02 -1.699347E-16  3.555639E-02 -2.996476E-03 -4.468939E-04 -7.584222E-01  0.000000E+00
  4.685986E-01  9.761546E-02  3.666667E-01  4.781512E-01  8.976198E-02  1.132898E-16  3.769421E-02 -2.660611E-03 -4.137750E-04 -8.224717E-01  0.000000E+00
  4.376215E-01  9.957456E-02  3.666667E-01  4.465415E-01  9.176110E-02 -5.664490E-17  4.019538E-02 -2.179561E-03 -3.775976E-04 -8.887703E-01  0.000000E+00
  4.068895E-01  1.009744E-01  3.666667E-01  4.151818E-01  9.318954E-02 -5.664490E-17  4.294349E-02 -1.515397E-03 -3.387108E-04 -9.527895E-01  0.000000E+00
  3.765814E-01  1.017434E-01  3.666667E-01  3.842546E-01  9.397427E-02  5.664490E-17  4.574073E-02 -6.696150E-04 -2.979386E-04 -1.012076E+00  0.000000E+00
  3.468696E-01  1.018666E-01  3.666667E-01  3.539360E-01  9.409996E-02 -5.664490E-17  4.842445E-02  3.396698E-04 -2.569348E-04 -1.065442E+00  0.000000E+00
  3.179133E-01  1.013443E-01  3.666667E-01  3.243884E-01  9.356693E-02  0.000000E+00  5.093765E-02  1.505002E-03 -2.179167E-04 -1.112306E+00  0.000000E+00
  2.898519E-01  1.001921E-01  3.666667E-01  2.957538E-01  9.239124E-02  5.664490E-17  5.328665E-02  2.805419E-03 -1.825983E-04 -1.155589E+00  0.000000E+00
  2.628044E-01  9.844986E-02  3.666667E-01  2.681539E-01  9.061342E-02  5.664490E-17  5.553705E-02  4.228119E-03 -1.516590E-04 -1.199242E+00  0.000000E+00
  9.800000E-01  1.188309E-02  3.666667E-01  9.999974E-01  2.278626E-03  5.664490E-17  1.058740E-02 -1.306820E-02 -6.460652E-04 -5.718352E-02  0.000000E+00
  9.720124E-01  1.399983E-02  3.666667E-01  9.918467E-01  4.438605E-03  0.000000E+00  1.213724E-02 -3.287362E-03 -6.092988E-04  6.917903E-02  0.000000E+00
  9.632634E-01  1.633209E-02  3.666667E-01  9.829190E-01  6.818498E-03  1.132898E-16  9.177307E-03 -2.383286E-03 -5.180374E-04  2.242337E-02  0.000000E+00
  9.536907E-01  1.886827E-02  3.666667E-01  9.731508E-01  9.406472E-03 -5.664490E-17  7.335119E-03 -1.932033E-03 -4.548235E-04  4.533596E-03  0.000000E+00
  9.432303E-01  2.159255E-02  3.666667E-01  9.624767E-01  1.218640E-02 -1.699347E-16  6.937593E-03 -1.790213E-03 -4.326025E-04 -1.526553E-02  0.000000E+00
  9.318220E-01  2.450824E-02  3.666667E-01  9.508354E-01  1.516163E-02 -5.664490E-17  7.667817E-03 -1.937454E-03 -4.397534E-04 -4.098837E-02  0.000000E+00
  9.194070E-01  2.761831E-02  3.666667E-01  9.381669E-01  1.833522E-02  0.000000E+00  9.037149E-03 -2.236415E-03 -4.613587E-04 -6.861926E-02  0.000000E+00
  9.059278E-01  3.092077E-02  3.666667E-01  9.244123E-01  2.170513E-02 -1.132898E-16  1.064076E-02 -2.572609E-03 -4.871722E-04 -9.803138E-02  0.000000E+00
  8.913299E-01  3.440958E-02  3.666667E-01  9.095163E-01  2.526520E-02  0.000000E+00  1.228175E-02 -2.894801E-03 -5.122525E-04 -1.297534E-01  0.000000E+00
  8.755643E-01  3.807925E-02  3.666667E-01  8.934288E-01  2.900982E-02 -1.132898E-16  1.393288E-02 -3.195018E-03 -5.352685E-04 -1.638917E-01  0.000000E+00
  8.585885E-01  4.191886E-02  3.666667E-01  8.761062E-01  3.292784E-02  3.098476E-14  1.563334E-02 -3.475749E-03 -5.563530E-04 -2.000211E-01  0.000000E+00
  8.403666E-01  4.590589E-02  3.666667E-01  8.575121E-01  3.699630E-02  3.098476E-14  1.739327E-02 -3.731174E-03 -5.751105E-04 -2.375320E-01  0.000000E+00
  8.208730E-01  5.001049E-02  3.666667E-01  8.376205E-01  4.118474E-02 -5.664490E-17  1.917869E-02 -3.949501E-03 -5.904795E-04 -2.760936E-01  0.000000E+00
  8.000947E-01  5.419975E-02  3.666667E-01  8.164178E-01  4.545956E-02 -5.664490E-17  2.094978E-02 -4.119236E-03 -6.016789E-04 -3.154248E-01  0.000000E+00
  7.780326E-01  5.843402E-02  3.666667E-01  7.939051E-01  4.978031E-02 -1.132898E-16  2.267302E-02 -4.230084E-03 -6.083114E-04 -3.550110E-01  0.000000E+00
  7.547032E-01  6.266784E-02  3.666667E-01  7.700992E-01  5.410060E-02  3.075818E-14  2.431077E-02 -4.273038E-03 -6.100860E-04 -3.938717E-01  0.000000E+00
  7.301402E-01  6.685065E-02  3.666667E-01  7.450345E-01  5.836883E-02 -5.664490E-17  2.581546E-02 -4.245314E-03 -6.067928E-04 -4.307467E-01  0.000000E+00
  2.444131E-01 -2.888152E-03  3.666667E-01  2.493869E-01 -1.279430E-02  3.092812E-14  2.816995E-02  1.239062E-03  1.458226E-04  1.650545E-01  0.000000E+00
  2.700250E-01 -1.767712E-03  3.666667E-01  2.755220E-01 -1.165098E-02  5.664490E-17  2.844753E-02  1.224494E-03  1.555827E-04  1.629048E-01  0.000000E+00
  2.967058E-01 -6.418562E-04  3.666667E-01  3.027477E-01 -1.050213E-02 -5.664490E-17  2.885218E-02  1.256160E-03  1.681226E-04  1.545099E-01  0.000000E+00
  3.243554E-01  5.941904E-04  3.666667E-01  3.309620E-01 -9.240834E-03  3.070154E-14  2.902046E-02  1.413769E-03  1.835644E-04  1.411036E-01  0.000000E+00
  3.528511E-01  2.093286E-03  3.666667E-01  3.600398E-01 -7.711121E-03 -5.664490E-17  2.854609E-02  1.718042E-03  2.012469E-04  1.290282E-01  0.000000E+00
  3.820469E-01  4.075317E-03  3.666667E-01  3.898318E-01 -5.688610E-03 -1.132898E-16  2.716864E-02  2.117838E-03  2.196063E-04  1.261572E-01  0.000000E+00
  4.117740E-01  6.710869E-03  3.666667E-01  4.201660E-01 -2.999229E-03  1.132898E-16  2.496704E-02  2.491463E-03  2.366951E-04  1.396488E-01  0.000000E+00
  4.418498E-01  1.007665E-02  3.666667E-01  4.508561E-01  4.352894E-04 -1.699347E-16  2.238503E-02  2.698186E-03  2.511934E-04  1.697738E-01  0.000000E+00
  4.721105E-01  1.402128E-02  3.666667E-01  4.817349E-01  4.460493E-03 -1.132898E-16  2.020293E-02  2.537599E-03  2.640016E-04  2.220311E-01  0.000000E+00
  5.024968E-01  1.768035E-02  3.666667E-01  5.127418E-01  8.194287E-03  5.664490E-17  1.888644E-02  2.095061E-03  2.765479E-04  2.773269E-01  0.000000E+00
  5.328693E-01  2.072671E-02  3.666667E-01  5.437345E-01  1.130287E-02 -2.265796E-16  1.822927E-02  1.691816E-03  2.894173E-04  3.043919E-01  0.000000E+00
  5.630297E-01  2.328662E-02  3.666667E-01  5.745110E-01  1.391507E-02  1.132898E-16  1.786857E-02  1.419783E-03  3.031273E-04  3.117052E-01  0.000000E+00
  5.927917E-01  2.548975E-02  3.666667E-01  6.048808E-01  1.616319E-02  0.000000E+00  1.753048E-02  1.240682E-03  3.169905E-04  3.175157E-01  0.000000E+00
  6.219828E-01  2.745837E-02  3.666667E-01  6.346682E-01  1.817202E-02  5.664490E-17  1.707362E-02  1.105268E-03  3.295466E-04  3.271405E-01  0.000000E+00
  6.504533E-01  2.922141E-02  3.666667E-01  6.637201E-01  1.997106E-02 -1.132898E-16  1.651419E-02  9.543163E-04  3.401758E-04  3.410202E-01  0.000000E+00
  6.780742E-01  3.069877E-02  3.666667E-01  6.919051E-01  2.147860E-02  3.092812E-14  1.596096E-02  7.563477E-04  3.492113E-04  3.571633E-01  0.000000E+00
  7.047326E-01  3.179273E-02  3.666667E-01  7.191080E-01  2.259490E-02 -5.664490E-17  1.553013E-02  5.172937E-04  3.573598E-04  3.719201E-01  0.000000E+00
  1.215943E-04  9.312255E-03  3.666667E-01  1.060953E-04 -3.447127E-04 -2.265796E-16 -4.442946E-02  7.930723E-02  2.136166E-04  7.561012E-01  0.000000E+00
  4.902502E-03  3.642291E-03  3.666667E-01  4.984647E-03 -6.130480E-03  5.664490E-17 -1.612093E-02  1.895338E-02  1.669460E-04  9.360837E-01  0.000000E+00
  1.254908E-02 -1.624147E-06  3.666667E-01  1.278740E-02 -9.848817E-03  2.265796E-16  8.268036E-03 -2.215330E-03  1.235140E-04  5.391501E-01  0.000000E+00
  2.163699E-02 -2.393963E-03  3.666667E-01  2.206092E-02 -1.229002E-02  5.664490E-17  2.189505E-02 -4.527853E-03  1.047987E-04  3.382064E-01  0.000000E+00
  3.184423E-02 -4.075419E-03  3.666667E-01  3.247663E-02 -1.400581E-02  0.000000E+00  2.762515E-02 -3.642682E-03  1.023631E-04  3.049552E-01  0.000000E+00
  4.311596E-02 -5.256315E-03  3.666667E-01  4.397857E-02 -1.521083E-02 -1.132898E-16  2.983236E-02 -2.419789E-03  1.040269E-04  2.700888E-01  0.000000E+00
  5.546913E-02 -5.980061E-03  3.666667E-01  5.658404E-02 -1.594936E-02 -5.664490E-17  3.050712E-02 -1.441281E-03  1.063790E-04  2.377174E-01  0.000000E+00
  6.891473E-02 -6.460601E-03  3.666667E-01  7.030425E-02 -1.643971E-02  1.699347E-16  3.074953E-02 -9.076326E-04  1.090274E-04  2.258724E-01  0.000000E+00
  8.348882E-02 -6.804872E-03  3.666667E-01  8.517600E-02 -1.679101E-02  2.832245E-16  3.087935E-02 -5.580107E-04  1.116150E-04  2.139454E-01  0.000000E+00
  9.923792E-02 -7.007131E-03  3.666667E-01  1.012468E-01 -1.699740E-02 -1.132898E-16  3.085401E-02 -1.994911E-04  1.142041E-04  1.951121E-01  0.000000E+00
  1.162051E-01 -7.010032E-03  3.666667E-01  1.185604E-01 -1.700036E-02  5.664490E-17  3.063601E-02  1.683993E-04  1.170579E-04  1.782882E-01  0.000000E+00
  1.344203E-01 -6.806472E-03  3.666667E-01  1.371477E-01 -1.679265E-02  0.000000E+00  3.024900E-02  4.902407E-04  1.202686E-04  1.689701E-01  0.000000E+00
  1.539027E-01 -6.394055E-03  3.666667E-01  1.570280E-01 -1.637181E-02  3.064489E-14  2.971356E-02  7.672344E-04  1.237982E-04  1.638888E-01  0.000000E+00
  1.746592E-01 -5.762398E-03  3.666667E-01  1.782084E-01 -1.572725E-02  3.109805E-14  2.910667E-02  9.862163E-04  1.277850E-04  1.618631E-01  0.000000E+00
  1.966815E-01 -4.940751E-03  3.666667E-01  2.006805E-01 -1.488882E-02 -1.132898E-16  2.856227E-02  1.131246E-03  1.325136E-04  1.628996E-01  0.000000E+00
  2.199461E-01 -3.967907E-03  3.666667E-01  2.244203E-01 -1.389611E-02 -1.699347E-16  2.821333E-02  1.213985E-03  1.383474E-04  1.645549E-01  0.000000E+00
  2.444131E-01 -2.888152E-03  3.666667E-01  2.493869E-01 -1.279430E-02  3.092812E-14  2.816995E-02  1.239062E-03  1.458226E-04  1.650545E-01  0.000000E+00
  7.047326E-01  3.179273E-02  3.666667E-01  7.191080E-01  2.259490E-02 -5.664490E-17  1.553013E-02  5.172937E-04  3.573598E-04  3.719201E-01  0.000000E+00