 Title= "ADflow Lift Distribution Data"
Variables = "eta" "CoordinateX" "CoordinateY" "CoordinateZ" "Lift" "Drag" "Moment" "Normalized Lift" "Normalized Drag" "Normalized Moment" "CL" "CD" "CM" "CLp" "CDp" "CMp" "CLv" "CDv" "CMv" "Elliptical" "thickness" "twist" "chord" "fx" "fy" "fz" 
Zone T= "LiftDist_01 allWalls: : z normal"
 I=          150
 DATAPACKING=BLOCK
  0.000000E+00
  6.711405E-03
  1.342281E-02
  2.013422E-02
  2.684563E-02
  3.355704E-02
  4.026845E-02
  4.697986E-02
  5.369127E-02
  6.040268E-02
  6.711409E-02
  7.382550E-02
  8.053691E-02
  8.724832E-02
  9.395973E-02
  1.006711E-01
  1.073825E-01
  1.140940E-01
  1.208054E-01
  1.275168E-01
  1.342282E-01
  1.409396E-01
  1.476510E-01
  1.543624E-01
  1.610738E-01
  1.677852E-01
  1.744966E-01
  1.812081E-01
  1.879195E-01
  1.946309E-01
  2.013423E-01
  2.080537E-01
  2.147651E-01
  2.214765E-01
  2.281879E-01
  2.348993E-01
  2.416107E-01
  2.483221E-01
  2.550336E-01
  2.617450E-01
  2.684564E-01
  2.751678E-01
  2.818792E-01
  2.885906E-01
  2.953020E-01
  3.020134E-01
  3.087248E-01
  3.154362E-01
  3.221476E-01
  3.288591E-01
  3.355705E-01
  3.422819E-01
  3.489933E-01
  3.557047E-01
  3.624161E-01
  3.691275E-01
  3.758389E-01
  3.825503E-01
  3.892617E-01
  3.959732E-01
  4.026846E-01
  4.093960E-01
  4.161074E-01
  4.228188E-01
  4.295302E-01
  4.362416E-01
  4.429530E-01
  4.496644E-01
  4.563758E-01
  4.630872E-01
  4.697987E-01
  4.765101E-01
  4.832215E-01
  4.899329E-01
  4.966443E-01
  5.033557E-01
  5.100671E-01
  5.167785E-01
  5.234899E-01
  5.302013E-01
  5.369128E-01
  5.436242E-01
  5.503356E-01
  5.570470E-01
  5.637584E-01
  5.704698E-01
  5.771812E-01
  5.838926E-01
  5.906040E-01
  5.973154E-01
  6.040268E-01
  6.107383E-01
  6.174497E-01
  6.241611E-01
  6.308725E-01
  6.375839E-01
  6.442953E-01
  6.510067E-01
  6.577181E-01
  6.644295E-01
  6.711409E-01
  6.778524E-01
  6.845638E-01
  6.912752E-01
  6.979866E-01
  7.046980E-01
  7.114094E-01
  7.181208E-01
  7.248322E-01
  7.315436E-01
  7.382550E-01
  7.449664E-01
  7.516779E-01
  7.583893E-01
  7.651007E-01
  7.718121E-01
  7.785235E-01
  7.852349E-01
  7.919463E-01
  7.986577E-01
  8.053691E-01
  8.120805E-01
  8.187919E-01
  8.255034E-01
  8.322148E-01
  8.389262E-01
  8.456376E-01
  8.523490E-01
  8.590604E-01
  8.657718E-01
  8.724832E-01
  8.791946E-01
  8.859060E-01
  8.926175E-01
  8.993289E-01
  9.060403E-01
  9.127517E-01
  9.194631E-01
  9.261745E-01
  9.328859E-01
  9.395973E-01
  9.463087E-01
  9.530201E-01
  9.597315E-01
  9.664430E-01
  9.731544E-01
  9.798658E-01
  9.865772E-01
  9.932886E-01
  1.000000E+00
  0.000000E+00
  0.000000E+00
  0.000000E+00
  0.000000E+00
  0.000000E+00
  0.000000E+00
  0.000000E+00
  0.000000E+00
  0.000000E+00
  0.000000E+00
  0.000000E+00
  0.000000E+00
  0.000000E+00
  0.000000E+00
  0.000000E+00
  0.000000E+00
  0.000000E+00
  0.000000E+00
  0.000000E+00
  0.000000E+00
  0.000000E+00
  0.000000E+00
  0.000000E+00
  0.000000E+00
  0.000000E+00
  0.000000E+00
  0.000000E+00
  0.000000E+00
  0.000000E+00
  0.000000E+00
  0.000000E+00
  0.000000E+00
  0.000000E+00
  0.000000E+00
  0.000000E+00
  0.000000E+00
  0.000000E+00
  0.000000E+00
  0.000000E+00
  0.000000E+00
  0.000000E+00
  0.000000E+00
  0.000000E+00
  0.000000E+00
  0.000000E+00
  0.000000E+00
  0.000000E+00
  0.000000E+00
  0.000000E+00
  0.000000E+00
  0.000000E+00
  0.000000E+00
  0.000000E+00
  0.000000E+00
  0.000000E+00
  0.000000E+00
  0.000000E+00
  0.000000E+00
  0.000000E+00
  0.000000E+00
  0.000000E+00
  0.000000E+00
  0.000000E+00
  0.000000E+00
  0.000000E+00
  0.000000E+00
  0.000000E+00
  0.000000E+00
  0.000000E+00
  0.000000E+00
  0.000000E+00
  0.000000E+00
  0.000000E+00
  0.000000E+00
  0.000000E+00
  0.000000E+00
  0.000000E+00
  0.000000E+00
  0.000000E+00
  0.000000E+00
  0.000000E+00
  0.000000E+00
  0.000000E+00
  0.000000E+00
  0.000000E+00
  0.000000E+00
  0.000000E+00
  0.000000E+00
  0.000000E+00
  0.000000E+00
  0.000000E+00
  0.000000E+00
  0.000000E+00
  0.000000E+00
  0.000000E+00
  0.000000E+00
  0.000000E+00
  0.000000E+00
  0.000000E+00
  0.000000E+00
  0.000000E+00
  0.000000E+00
  0.000000E+00
  0.000000E+00
  0.000000E+00
  0.000000E+00
  0.000000E+00
  0.000000E+00
  0.000000E+00
  0.000000E+00
  0.000000E+00
  0.000000E+00
  0.000000E+00
  0.000000E+00
  0.000000E+00
  0.000000E+00
  0.000000E+00
  0.000000E+00
  0.000000E+00
  0.000000E+00
  0.000000E+00
  0.000000E+00
  0.000000E+00
  0.000000E+00
  0.000000E+00
  0.000000E+00
  0.000000E+00
  0.000000E+00
  0.000000E+00
  0.000000E+00
  0.000000E+00
  0.000000E+00
  0.000000E+00
  0.000000E+00
  0.000000E+00
  0.000000E+00
  0.000000E+00
  0.000000E+00
  0.000000E+00
  0.000000E+00
  0.000000E+00
  0.000000E+00
  0.000000E+00
  0.000000E+00
  0.000000E+00
  0.000000E+00
  0.000000E+00
  0.000000E+00
  0.000000E+00
  0.000000E+00
  0.000000E+00
  0.000000E+00
  0.000000E+00
  0.000000E+00
  0.000000E+00
  0.000000E+00
  0.000000E+00
  0.000000E+00
  0.000000E+00
  0.000000E+00
  0.000000E+00
  0.000000E+00
  0.000000E+00
  0.000000E+00
  0.000000E+00
  0.000000E+00
  0.000000E+00
  0.000000E+00
  0.000000E+00
  0.000000E+00
  0.000000E+00
  0.000000E+00
  0.000000E+00
  0.000000E+00
  0.000000E+00
  0.000000E+00
  0.000000E+00
  0.000000E+00
  0.000000E+00
  0.000000E+00
  0.000000E+00
  0.000000E+00
  0.000000E+00
  0.000000E+00
  0.000000E+00
  0.000000E+00
  0.000000E+00
  0.000000E+00
  0.000000E+00
  0.000000E+00
  0.000000E+00
  0.000000E+00
  0.000000E+00
  0.000000E+00
  0.000000E+00
  0.000000E+00
  0.000000E+00
  0.000000E+00
  0.000000E+00
  0.000000E+00
  0.000000E+00
  0.000000E+00
  0.000000E+00
  0.000000E+00
  0.000000E+00
  0.000000E+00
  0.000000E+00
  0.000000E+00
  0.000000E+00
  0.000000E+00
  0.000000E+00
  0.000000E+00
  0.000000E+00
  0.000000E+00
  0.000000E+00
  0.000000E+00
  0.000000E+00
  0.000000E+00
  0.000000E+00
  0.000000E+00
  0.000000E+00
  0.000000E+00
  0.000000E+00
  0.000000E+00
  0.000000E+00
  0.000000E+00
  0.000000E+00
  0.000000E+00
  0.000000E+00
  0.000000E+00
  0.000000E+00
  0.000000E+00
  0.000000E+00
  0.000000E+00
  0.000000E+00
  0.000000E+00
  0.000000E+00
  0.000000E+00
  0.000000E+00
  0.000000E+00
  0.000000E+00
  0.000000E+00
  0.000000E+00
  0.000000E+00
  0.000000E+00
  0.000000E+00
  0.000000E+00
  0.000000E+00
  0.000000E+00
  0.000000E+00
  0.000000E+00
  0.000000E+00
  0.000000E+00
  0.000000E+00
  0.000000E+00
  0.000000E+00
  0.000000E+00
  0.000000E+00
  0.000000E+00
  0.000000E+00
  0.000000E+00
  0.000000E+00
  0.000000E+00
  0.000000E+00
  0.000000E+00
  0.000000E+00
  0.000000E+00
  0.000000E+00
  0.000000E+00
  0.000000E+00
  0.000000E+00
  0.000000E+00
  0.000000E+00
  0.000000E+00
  0.000000E+00
  0.000000E+00
  0.000000E+00
  0.000000E+00
  0.000000E+00
  0.000000E+00
  0.000000E+00
  0.000000E+00
  0.000000E+00
  0.000000E+00
  0.000000E+00
  0.000000E+00
  0.000000E+00
  0.000000E+00
  0.000000E+00
  0.000000E+00
  0.000000E+00
  0.000000E+00
  0.000000E+00
  0.000000E+00
  0.000000E+00
  0.000000E+00
  0.000000E+00
  0.000000E+00
  0.000000E+00
  0.000000E+00
  1.000000E-08
  1.695085E-02
  3.390169E-02
  5.085254E-02
  6.780338E-02
  8.475423E-02
  1.017051E-01
  1.186559E-01
  1.356068E-01
  1.525576E-01
  1.695085E-01
  1.864593E-01
  2.034101E-01
  2.203610E-01
  2.373118E-01
  2.542627E-01
  2.712135E-01
  2.881644E-01
  3.051152E-01
  3.220661E-01
  3.390169E-01
  3.559678E-01
  3.729186E-01
  3.898694E-01
  4.068203E-01
  4.237711E-01
  4.407220E-01
  4.576728E-01
  4.746237E-01
  4.915745E-01
  5.085254E-01
  5.254762E-01
  5.424271E-01
  5.593779E-01
  5.763287E-01
  5.932796E-01
  6.102304E-01
  6.271813E-01
  6.441321E-01
  6.610830E-01
  6.780338E-01
  6.949847E-01
  7.119355E-01
  7.288864E-01
  7.458372E-01
  7.627880E-01
  7.797389E-01
  7.966897E-01
  8.136406E-01
  8.305914E-01
  8.475423E-01
  8.644931E-01
  8.814440E-01
  8.983948E-01
  9.153457E-01
  9.322965E-01
  9.492473E-01
  9.661982E-01
  9.831490E-01
  1.000100E+00
  1.017051E+00
  1.034002E+00
  1.050952E+00
  1.067903E+00
  1.084854E+00
  1.101805E+00
  1.118756E+00
  1.135707E+00
  1.152657E+00
  1.169608E+00
  1.186559E+00
  1.203510E+00
  1.220461E+00
  1.237412E+00
  1.254363E+00
  1.271313E+00
  1.288264E+00
  1.305215E+00
  1.322166E+00
  1.339117E+00
  1.356068E+00
  1.373018E+00
  1.389969E+00
  1.406920E+00
  1.423871E+00
  1.440822E+00
  1.457773E+00
  1.474724E+00
  1.491674E+00
  1.508625E+00
  1.525576E+00
  1.542527E+00
  1.559478E+00
  1.576429E+00
  1.593379E+00
  1.610330E+00
  1.627281E+00
  1.644232E+00
  1.661183E+00
  1.678134E+00
  1.695085E+00
  1.712035E+00
  1.728986E+00
  1.745937E+00
  1.762888E+00
  1.779839E+00
  1.796790E+00
  1.813740E+00
  1.830691E+00
  1.847642E+00
  1.864593E+00
  1.881544E+00
  1.898495E+00
  1.915446E+00
  1.932396E+00
  1.949347E+00
  1.966298E+00
  1.983249E+00
  2.000200E+00
  2.017151E+00
  2.034101E+00
  2.051052E+00
  2.068003E+00
  2.084954E+00
  2.101905E+00
  2.118856E+00
  2.135807E+00
  2.152757E+00
  2.169708E+00
  2.186659E+00
  2.203610E+00
  2.220561E+00
  2.237512E+00
  2.254462E+00
  2.271413E+00
  2.288364E+00
  2.305315E+00
  2.322266E+00
  2.339217E+00
  2.356168E+00
  2.373118E+00
  2.390069E+00
  2.407020E+00
  2.423971E+00
  2.440922E+00
  2.457873E+00
  2.474823E+00
  2.491774E+00
  2.508725E+00
  2.525676E+00
  1.106482E+04
  1.106291E+04
  1.106100E+04
  1.105908E+04
  1.105717E+04
  1.105526E+04
  1.105335E+04
  1.105144E+04
  1.104953E+04
  1.104395E+04
  1.103828E+04
  1.103260E+04
  1.102693E+04
  1.102126E+04
  1.101559E+04
  1.100992E+04
  1.100306E+04
  1.099403E+04
  1.098499E+04
  1.097596E+04
  1.096693E+04
  1.095790E+04
  1.094886E+04
  1.093946E+04
  1.092712E+04
  1.091477E+04
  1.090243E+04
  1.089008E+04
  1.087774E+04
  1.086539E+04
  1.085224E+04
  1.083640E+04
  1.082055E+04
  1.080471E+04
  1.078887E+04
  1.077303E+04
  1.075719E+04
  1.073891E+04
  1.071957E+04
  1.070023E+04
  1.068089E+04
  1.066155E+04
  1.064221E+04
  1.062126E+04
  1.059860E+04
  1.057595E+04
  1.055330E+04
  1.053065E+04
  1.050800E+04
  1.048347E+04
  1.045761E+04
  1.043177E+04
  1.040592E+04
  1.038007E+04
  1.035423E+04
  1.032529E+04
  1.029630E+04
  1.026731E+04
  1.023832E+04
  1.020934E+04
  1.017837E+04
  1.014638E+04
  1.011439E+04
  1.008241E+04
  1.005043E+04
  1.001661E+04
  9.981604E+03
  9.946598E+03
  9.911594E+03
  9.876594E+03
  9.838914E+03
  9.800563E+03
  9.762215E+03
  9.723869E+03
  9.684659E+03
  9.642635E+03
  9.600613E+03
  9.558592E+03
  9.516574E+03
  9.471114E+03
  9.425270E+03
  9.379428E+03
  9.333587E+03
  9.284776E+03
  9.235129E+03
  9.185484E+03
  9.135840E+03
  9.083209E+03
  9.030122E+03
  8.977036E+03
  8.923518E+03
  8.867531E+03
  8.811548E+03
  8.755568E+03
  8.697952E+03
  8.639331E+03
  8.580721E+03
  8.521436E+03
  8.460251E+03
  8.399091E+03
  8.337775E+03
  8.274281E+03
  8.210828E+03
  8.147292E+03
  8.081279E+03
  8.015319E+03
  7.948827E+03
  7.879565E+03
  7.810357E+03
  7.739438E+03
  7.666309E+03
  7.593227E+03
  7.516552E+03
  7.439233E+03
  7.360302E+03
  7.278664E+03
  7.196911E+03
  7.110995E+03
  7.025100E+03
  6.935807E+03
  6.845713E+03
  6.752744E+03
  6.658506E+03
  6.561427E+03
  6.463039E+03
  6.361495E+03
  6.259046E+03
  6.152925E+03
  6.045834E+03
  5.936102E+03
  5.824464E+03
  5.711428E+03
  5.595590E+03
  5.478092E+03
  5.358839E+03
  5.237074E+03
  5.112613E+03
  4.985789E+03
  4.856770E+03
  4.726824E+03
  4.600220E+03
  4.487248E+03
  4.405521E+03
  4.390175E+03
  4.478469E+03
  4.440166E+03
  4.000734E+03
  4.500322E+03
  1.337325E+03
 -1.067562E-04
  6.292719E+02
  6.291826E+02
  6.290932E+02
  6.290039E+02
  6.289146E+02
  6.288252E+02
  6.287359E+02
  6.286466E+02
  6.285573E+02
  6.283651E+02
  6.281704E+02
  6.279756E+02
  6.277809E+02
  6.275862E+02
  6.273915E+02
  6.271968E+02
  6.270015E+02
  6.268050E+02
  6.266086E+02
  6.264121E+02
  6.262157E+02
  6.260192E+02
  6.258228E+02
  6.256234E+02
  6.254008E+02
  6.251783E+02
  6.249557E+02
  6.247331E+02
  6.245105E+02
  6.242880E+02
  6.240470E+02
  6.237448E+02
  6.234426E+02
  6.231404E+02
  6.228382E+02
  6.225359E+02
  6.222337E+02
  6.218780E+02
  6.214989E+02
  6.211198E+02
  6.207406E+02
  6.203614E+02
  6.199822E+02
  6.195610E+02
  6.190956E+02
  6.186300E+02
  6.181645E+02
  6.176988E+02
  6.172331E+02
  6.166638E+02
  6.160218E+02
  6.153797E+02
  6.147375E+02
  6.140952E+02
  6.134529E+02
  6.125289E+02
  6.116003E+02
  6.106717E+02
  6.097429E+02
  6.088139E+02
  6.076891E+02
  6.064638E+02
  6.052383E+02
  6.040126E+02
  6.027867E+02
  6.014121E+02
  5.999399E+02
  5.984674E+02
  5.969946E+02
  5.955214E+02
  5.939077E+02
  5.922583E+02
  5.906085E+02
  5.889583E+02
  5.872962E+02
  5.855967E+02
  5.838967E+02
  5.821963E+02
  5.804953E+02
  5.787718E+02
  5.770456E+02
  5.753190E+02
  5.735921E+02
  5.717233E+02
  5.698143E+02
  5.679051E+02
  5.659955E+02
  5.638113E+02
  5.615846E+02
  5.593576E+02
  5.570724E+02
  5.544580E+02
  5.518436E+02
  5.492294E+02
  5.462406E+02
  5.430218E+02
  5.398050E+02
  5.363848E+02
  5.323932E+02
  5.284077E+02
  5.243836E+02
  5.198237E+02
  5.152739E+02
  5.107200E+02
  5.058990E+02
  5.010896E+02
  4.962717E+02
  4.913688E+02
  4.864765E+02
  4.816186E+02
  4.768005E+02
  4.719903E+02
  4.673784E+02
  4.628073E+02
  4.583736E+02
  4.541626E+02
  4.499681E+02
  4.462015E+02
  4.424342E+02
  4.390897E+02
  4.358440E+02
  4.329861E+02
  4.302978E+02
  4.279854E+02
  4.258447E+02
  4.241292E+02
  4.225356E+02
  4.214951E+02
  4.206271E+02
  4.202376E+02
  4.202773E+02
  4.206450E+02
  4.217911E+02
  4.234920E+02
  4.258024E+02
  4.290493E+02
  4.334186E+02
  4.389683E+02
  4.460917E+02
  4.555113E+02
  4.686814E+02
  4.884141E+02
  5.193224E+02
  5.695167E+02
  6.469259E+02
  7.152371E+02
  7.287452E+02
  8.804567E+02
  2.092433E+02
  3.891010E-04
  1.829931E+03
  1.829368E+03
  1.828805E+03
  1.828242E+03
  1.827680E+03
  1.827117E+03
  1.826554E+03
  1.825991E+03
  1.825429E+03
  1.823949E+03
  1.822447E+03
  1.820945E+03
  1.819443E+03
  1.817941E+03
  1.816439E+03
  1.814938E+03
  1.813191E+03
  1.810996E+03
  1.808800E+03
  1.806605E+03
  1.804410E+03
  1.802214E+03
  1.800019E+03
  1.797736E+03
  1.794747E+03
  1.791759E+03
  1.788770E+03
  1.785782E+03
  1.782793E+03
  1.779805E+03
  1.776610E+03
  1.772728E+03
  1.768847E+03
  1.764966E+03
  1.761085E+03
  1.757204E+03
  1.753323E+03
  1.748837E+03
  1.744086E+03
  1.739335E+03
  1.734584E+03
  1.729833E+03
  1.725082E+03
  1.719966E+03
  1.714466E+03
  1.708965E+03
  1.703465E+03
  1.697965E+03
  1.692465E+03
  1.686643E+03
  1.680596E+03
  1.674550E+03
  1.668503E+03
  1.662458E+03
  1.656413E+03
  1.650087E+03
  1.643757E+03
  1.637428E+03
  1.631100E+03
  1.624773E+03
  1.618388E+03
  1.611973E+03
  1.605560E+03
  1.599147E+03
  1.592735E+03
  1.586263E+03
  1.579752E+03
  1.573242E+03
  1.566732E+03
  1.560224E+03
  1.553590E+03
  1.546926E+03
  1.540262E+03
  1.533598E+03
  1.526937E+03
  1.520282E+03
  1.513626E+03
  1.506971E+03
  1.500317E+03
  1.493728E+03
  1.487147E+03
  1.480567E+03
  1.473987E+03
  1.467265E+03
  1.460503E+03
  1.453741E+03
  1.446980E+03
  1.440058E+03
  1.433112E+03
  1.426167E+03
  1.419239E+03
  1.412410E+03
  1.405582E+03
  1.398755E+03
  1.391931E+03
  1.385112E+03
  1.378296E+03
  1.371367E+03
  1.364113E+03
  1.356870E+03
  1.349599E+03
  1.341882E+03
  1.334182E+03
  1.326477E+03
  1.318337E+03
  1.310218E+03
  1.301968E+03
  1.292995E+03
  1.284046E+03
  1.274530E+03
  1.264280E+03
  1.254050E+03
  1.242542E+03
  1.230807E+03
  1.218489E+03
  1.205187E+03
  1.191844E+03
  1.176976E+03
  1.162115E+03
  1.146077E+03
  1.129761E+03
  1.112610E+03
  1.095088E+03
  1.076936E+03
  1.058493E+03
  1.039571E+03
  1.020514E+03
  1.001215E+03
  9.819485E+02
  9.628050E+02
  9.440126E+02
  9.255010E+02
  9.078978E+02
  8.910199E+02
  8.749385E+02
  8.600974E+02
  8.467019E+02
  8.348238E+02
  8.250984E+02
  8.189287E+02
  8.195979E+02
  8.341185E+02
  8.744196E+02
  9.589574E+02
  1.102268E+03
  1.211983E+03
  1.144709E+03
  1.298377E+03
  2.074976E+02
 -7.637457E-11
  1.245119E+00
  1.244904E+00
  1.244689E+00
  1.244474E+00
  1.244259E+00
  1.244044E+00
  1.243829E+00
  1.243614E+00
  1.243399E+00
  1.242771E+00
  1.242132E+00
  1.241494E+00
  1.240856E+00
  1.240218E+00
  1.239580E+00
  1.238941E+00
  1.238170E+00
  1.237153E+00
  1.236137E+00
  1.235120E+00
  1.234104E+00
  1.233087E+00
  1.232071E+00
  1.231013E+00
  1.229624E+00
  1.228235E+00
  1.226845E+00
  1.225456E+00
  1.224067E+00
  1.222678E+00
  1.221198E+00
  1.219415E+00
  1.217632E+00
  1.215849E+00
  1.214067E+00
  1.212284E+00
  1.210501E+00
  1.208445E+00
  1.206268E+00
  1.204092E+00
  1.201915E+00
  1.199739E+00
  1.197563E+00
  1.195205E+00
  1.192656E+00
  1.190107E+00
  1.187558E+00
  1.185009E+00
  1.182460E+00
  1.179700E+00
  1.176791E+00
  1.173882E+00
  1.170974E+00
  1.168065E+00
  1.165157E+00
  1.161900E+00
  1.158638E+00
  1.155376E+00
  1.152114E+00
  1.148853E+00
  1.145368E+00
  1.141768E+00
  1.138168E+00
  1.134569E+00
  1.130970E+00
  1.127165E+00
  1.123226E+00
  1.119286E+00
  1.115347E+00
  1.111409E+00
  1.107169E+00
  1.102853E+00
  1.098538E+00
  1.094223E+00
  1.089811E+00
  1.085082E+00
  1.080353E+00
  1.075624E+00
  1.070896E+00
  1.065780E+00
  1.060622E+00
  1.055463E+00
  1.050304E+00
  1.044812E+00
  1.039225E+00
  1.033639E+00
  1.028052E+00
  1.022130E+00
  1.016156E+00
  1.010182E+00
  1.004160E+00
  9.978594E-01
  9.915596E-01
  9.852603E-01
  9.787768E-01
  9.721802E-01
  9.655848E-01
  9.589136E-01
  9.520283E-01
  9.451460E-01
  9.382463E-01
  9.311012E-01
  9.239610E-01
  9.168113E-01
  9.093829E-01
  9.019603E-01
  8.944780E-01
  8.866841E-01
  8.788961E-01
  8.709156E-01
  8.626865E-01
  8.544626E-01
  8.458343E-01
  8.371337E-01
  8.282516E-01
  8.190649E-01
  8.098653E-01
  8.001972E-01
  7.905315E-01
  7.804833E-01
  7.703451E-01
  7.598834E-01
  7.492788E-01
  7.383545E-01
  7.272830E-01
  7.158563E-01
  7.043277E-01
  6.923860E-01
  6.803350E-01
  6.679870E-01
  6.554244E-01
  6.427046E-01
  6.296693E-01
  6.164473E-01
  6.030278E-01
  5.893257E-01
  5.753201E-01
  5.610487E-01
  5.465303E-01
  5.319075E-01
  5.176608E-01
  5.049481E-01
  4.957514E-01
  4.940245E-01
  5.039601E-01
  4.996500E-01
  4.502009E-01
  5.064192E-01
  1.504886E-01
 -1.201323E-08
  1.123505E+00
  1.123346E+00
  1.123186E+00
  1.123027E+00
  1.122867E+00
  1.122708E+00
  1.122548E+00
  1.122389E+00
  1.122229E+00
  1.121886E+00
  1.121538E+00
  1.121191E+00
  1.120843E+00
  1.120495E+00
  1.120148E+00
  1.119800E+00
  1.119451E+00
  1.119101E+00
  1.118750E+00
  1.118399E+00
  1.118048E+00
  1.117698E+00
  1.117347E+00
  1.116991E+00
  1.116594E+00
  1.116196E+00
  1.115799E+00
  1.115402E+00
  1.115004E+00
  1.114607E+00
  1.114176E+00
  1.113637E+00
  1.113097E+00
  1.112558E+00
  1.112018E+00
  1.111479E+00
  1.110939E+00
  1.110304E+00
  1.109627E+00
  1.108950E+00
  1.108273E+00
  1.107596E+00
  1.106919E+00
  1.106167E+00
  1.105336E+00
  1.104505E+00
  1.103674E+00
  1.102842E+00
  1.102011E+00
  1.100995E+00
  1.099848E+00
  1.098702E+00
  1.097555E+00
  1.096409E+00
  1.095262E+00
  1.093612E+00
  1.091954E+00
  1.090296E+00
  1.088638E+00
  1.086979E+00
  1.084971E+00
  1.082783E+00
  1.080595E+00
  1.078407E+00
  1.076218E+00
  1.073764E+00
  1.071136E+00
  1.068507E+00
  1.065877E+00
  1.063247E+00
  1.060366E+00
  1.057421E+00
  1.054475E+00
  1.051529E+00
  1.048561E+00
  1.045527E+00
  1.042492E+00
  1.039456E+00
  1.036419E+00
  1.033342E+00
  1.030260E+00
  1.027177E+00
  1.024094E+00
  1.020758E+00
  1.017349E+00
  1.013940E+00
  1.010531E+00
  1.006631E+00
  1.002656E+00
  9.986798E-01
  9.945997E-01
  9.899319E-01
  9.852642E-01
  9.805967E-01
  9.752606E-01
  9.695137E-01
  9.637704E-01
  9.576640E-01
  9.505374E-01
  9.434216E-01
  9.362370E-01
  9.280957E-01
  9.199725E-01
  9.118419E-01
  9.032345E-01
  8.946478E-01
  8.860458E-01
  8.772922E-01
  8.685574E-01
  8.598841E-01
  8.512818E-01
  8.426938E-01
  8.344596E-01
  8.262984E-01
  8.183824E-01
  8.108641E-01
  8.033752E-01
  7.966502E-01
  7.899241E-01
  7.839529E-01
  7.781579E-01
  7.730555E-01
  7.682558E-01
  7.641272E-01
  7.603052E-01
  7.572424E-01
  7.543971E-01
  7.525393E-01
  7.509896E-01
  7.502943E-01
  7.503652E-01
  7.510215E-01
  7.530679E-01
  7.561046E-01
  7.602297E-01
  7.660267E-01
  7.738277E-01
  7.837360E-01
  7.964543E-01
  8.132721E-01
  8.367860E-01
  8.720169E-01
  9.272007E-01
  1.016818E+00
  1.155025E+00
  1.276988E+00
  1.301105E+00
  1.571972E+00
  3.735840E-01
  6.947029E-07
  1.255699E+00
  1.255312E+00
  1.254926E+00
  1.254540E+00
  1.254154E+00
  1.253768E+00
  1.253382E+00
  1.252996E+00
  1.252609E+00
  1.251594E+00
  1.250564E+00
  1.249533E+00
  1.248502E+00
  1.247472E+00
  1.246441E+00
  1.245410E+00
  1.244212E+00
  1.242705E+00
  1.241199E+00
  1.239693E+00
  1.238186E+00
  1.236680E+00
  1.235173E+00
  1.233607E+00
  1.231556E+00
  1.229505E+00
  1.227454E+00
  1.225404E+00
  1.223353E+00
  1.221302E+00
  1.219110E+00
  1.216447E+00
  1.213783E+00
  1.211120E+00
  1.208457E+00
  1.205794E+00
  1.203131E+00
  1.200052E+00
  1.196792E+00
  1.193532E+00
  1.190271E+00
  1.187012E+00
  1.183752E+00
  1.180241E+00
  1.176466E+00
  1.172692E+00
  1.168918E+00
  1.165144E+00
  1.161370E+00
  1.157375E+00
  1.153225E+00
  1.149076E+00
  1.144927E+00
  1.140779E+00
  1.136631E+00
  1.132290E+00
  1.127946E+00
  1.123604E+00
  1.119261E+00
  1.114919E+00
  1.110538E+00
  1.106136E+00
  1.101735E+00
  1.097335E+00
  1.092935E+00
  1.088494E+00
  1.084026E+00
  1.079559E+00
  1.075092E+00
  1.070626E+00
  1.066074E+00
  1.061501E+00
  1.056928E+00
  1.052355E+00
  1.047785E+00
  1.043217E+00
  1.038651E+00
  1.034084E+00
  1.029517E+00
  1.024996E+00
  1.020481E+00
  1.015965E+00
  1.011450E+00
  1.006837E+00
  1.002197E+00
  9.975575E-01
  9.929180E-01
  9.881683E-01
  9.834020E-01
  9.786360E-01
  9.738821E-01
  9.691957E-01
  9.645102E-01
  9.598256E-01
  9.551432E-01
  9.504638E-01
  9.457872E-01
  9.410321E-01
  9.360548E-01
  9.310842E-01
  9.260947E-01
  9.207995E-01
  9.155160E-01
  9.102286E-01
  9.046428E-01
  8.990719E-01
  8.934104E-01
  8.872537E-01
  8.811124E-01
  8.745824E-01
  8.675488E-01
  8.605291E-01
  8.526325E-01
  8.445802E-01
  8.361272E-01
  8.269996E-01
  8.178438E-01
  8.076411E-01
  7.974432E-01
  7.864383E-01
  7.752422E-01
  7.634729E-01
  7.514496E-01
  7.389934E-01
  7.263377E-01
  7.133540E-01
  7.002768E-01
  6.870341E-01
  6.738132E-01
  6.606769E-01
  6.477816E-01
  6.350789E-01
  6.229996E-01
  6.114180E-01
  6.003829E-01
  5.901990E-01
  5.810069E-01
  5.728562E-01
  5.661827E-01
  5.619490E-01
  5.624082E-01
  5.723722E-01
  6.000269E-01
  6.580367E-01
  7.563762E-01
  8.316627E-01
  7.854994E-01
  8.909467E-01
  1.423849E-01
 -5.240824E-14
  9.893627E-01
  9.891918E-01
  9.890209E-01
  9.888500E-01
  9.886791E-01
  9.885082E-01
  9.883373E-01
  9.881664E-01
  9.879955E-01
  9.874966E-01
  9.869895E-01
  9.864824E-01
  9.859753E-01
  9.854683E-01
  9.849612E-01
  9.844542E-01
  9.838411E-01
  9.830334E-01
  9.822258E-01
  9.814181E-01
  9.806105E-01
  9.798029E-01
  9.789953E-01
  9.781548E-01
  9.770511E-01
  9.759473E-01
  9.748436E-01
  9.737399E-01
  9.726362E-01
  9.715326E-01
  9.703566E-01
  9.689400E-01
  9.675235E-01
  9.661070E-01
  9.646906E-01
  9.632742E-01
  9.618579E-01
  9.602238E-01
  9.584944E-01
  9.567652E-01
  9.550360E-01
  9.533069E-01
  9.515778E-01
  9.497045E-01
  9.476790E-01
  9.456536E-01
  9.436283E-01
  9.416031E-01
  9.395781E-01
  9.373847E-01
  9.350733E-01
  9.327620E-01
  9.304510E-01
  9.281402E-01
  9.258296E-01
  9.232416E-01
  9.206494E-01
  9.180574E-01
  9.154658E-01
  9.128743E-01
  9.101049E-01
  9.072444E-01
  9.043842E-01
  9.015243E-01
  8.986646E-01
  8.956414E-01
  8.925109E-01
  8.893808E-01
  8.862509E-01
  8.831213E-01
  8.797520E-01
  8.763229E-01
  8.728939E-01
  8.694652E-01
  8.659592E-01
  8.622016E-01
  8.584442E-01
  8.546869E-01
  8.509298E-01
  8.468650E-01
  8.427659E-01
  8.386670E-01
  8.345681E-01
  8.302037E-01
  8.257645E-01
  8.213255E-01
  8.168866E-01
  8.121805E-01
  8.074337E-01
  8.026870E-01
  7.979015E-01
  7.928952E-01
  7.878893E-01
  7.828837E-01
  7.777316E-01
  7.724895E-01
  7.672483E-01
  7.619467E-01
  7.564747E-01
  7.510049E-01
  7.455211E-01
  7.398418E-01
  7.341661E-01
  7.284828E-01
  7.225776E-01
  7.166768E-01
  7.107283E-01
  7.045321E-01
  6.983404E-01
  6.919958E-01
  6.854537E-01
  6.789156E-01
  6.720567E-01
  6.651403E-01
  6.580801E-01
  6.507783E-01
  6.434664E-01
  6.357831E-01
  6.281018E-01
  6.201174E-01
  6.120617E-01
  6.037498E-01
  5.953247E-01
  5.866462E-01
  5.778510E-01
  5.687744E-01
  5.596168E-01
  5.501316E-01
  5.405595E-01
  5.307517E-01
  5.207733E-01
  5.106700E-01
  5.003159E-01
  4.898133E-01
  4.791534E-01
  4.682687E-01
  4.571424E-01
  4.458044E-01
  4.342697E-01
  4.226516E-01
  4.113317E-01
  4.012298E-01
  3.939211E-01
  3.925474E-01
  4.004397E-01
  3.970119E-01
  3.577172E-01
  4.023821E-01
  1.642419E-01
 -2.322075E-03
  5.626645E-02
  5.625846E-02
  5.625048E-02
  5.624249E-02
  5.623450E-02
  5.622652E-02
  5.621853E-02
  5.621055E-02
  5.620256E-02
  5.618538E-02
  5.616797E-02
  5.615056E-02
  5.613315E-02
  5.611575E-02
  5.609834E-02
  5.608093E-02
  5.606347E-02
  5.604591E-02
  5.602835E-02
  5.601078E-02
  5.599322E-02
  5.597566E-02
  5.595810E-02
  5.594028E-02
  5.592038E-02
  5.590049E-02
  5.588059E-02
  5.586069E-02
  5.584080E-02
  5.582090E-02
  5.579936E-02
  5.577235E-02
  5.574533E-02
  5.571832E-02
  5.569130E-02
  5.566428E-02
  5.563726E-02
  5.560547E-02
  5.557158E-02
  5.553769E-02
  5.550379E-02
  5.546989E-02
  5.543599E-02
  5.539834E-02
  5.535673E-02
  5.531511E-02
  5.527349E-02
  5.523186E-02
  5.519023E-02
  5.513932E-02
  5.508192E-02
  5.502451E-02
  5.496710E-02
  5.490967E-02
  5.485224E-02
  5.476962E-02
  5.468660E-02
  5.460356E-02
  5.452051E-02
  5.443745E-02
  5.433688E-02
  5.422731E-02
  5.411773E-02
  5.400814E-02
  5.389852E-02
  5.377561E-02
  5.364397E-02
  5.351231E-02
  5.338061E-02
  5.324889E-02
  5.310459E-02
  5.295711E-02
  5.280959E-02
  5.266203E-02
  5.251342E-02
  5.236145E-02
  5.220945E-02
  5.205741E-02
  5.190532E-02
  5.175121E-02
  5.159686E-02
  5.144248E-02
  5.128807E-02
  5.112098E-02
  5.095028E-02
  5.077957E-02
  5.060883E-02
  5.041352E-02
  5.021442E-02
  5.001529E-02
  4.981095E-02
  4.957717E-02
  4.934339E-02
  4.910963E-02
  4.884237E-02
  4.855452E-02
  4.826686E-02
  4.796100E-02
  4.760403E-02
  4.724758E-02
  4.688769E-02
  4.647985E-02
  4.607290E-02
  4.566557E-02
  4.523433E-02
  4.480412E-02
  4.437313E-02
  4.393454E-02
  4.349688E-02
  4.306230E-02
  4.263128E-02
  4.220097E-02
  4.178841E-02
  4.137951E-02
  4.098290E-02
  4.060624E-02
  4.023106E-02
  3.989418E-02
  3.955725E-02
  3.925819E-02
  3.896795E-02
  3.871245E-02
  3.847213E-02
  3.826546E-02
  3.807417E-02
  3.792094E-02
  3.777861E-02
  3.768577E-02
  3.760837E-02
  3.757379E-02
  3.757758E-02
  3.761069E-02
  3.771342E-02
  3.786574E-02
  3.807256E-02
  3.836309E-02
  3.875397E-02
  3.925035E-02
  3.988744E-02
  4.072980E-02
  4.190746E-02
  4.367182E-02
  4.643539E-02
  5.092331E-02
  5.784451E-02
  6.395203E-02
  6.515922E-02
  7.872327E-02
  2.569797E-02
  8.463409E-03
  1.636236E-01
  1.635732E-01
  1.635229E-01
  1.634726E-01
  1.634223E-01
  1.633720E-01
  1.633217E-01
  1.632713E-01
  1.632210E-01
  1.630888E-01
  1.629545E-01
  1.628202E-01
  1.626859E-01
  1.625516E-01
  1.624173E-01
  1.622830E-01
  1.621268E-01
  1.619306E-01
  1.617343E-01
  1.615380E-01
  1.613417E-01
  1.611454E-01
  1.609492E-01
  1.607450E-01
  1.604778E-01
  1.602106E-01
  1.599434E-01
  1.596762E-01
  1.594090E-01
  1.591418E-01
  1.588561E-01
  1.585091E-01
  1.581621E-01
  1.578151E-01
  1.574681E-01
  1.571211E-01
  1.567741E-01
  1.563730E-01
  1.559481E-01
  1.555233E-01
  1.550985E-01
  1.546738E-01
  1.542490E-01
  1.537916E-01
  1.532998E-01
  1.528079E-01
  1.523161E-01
  1.518244E-01
  1.513327E-01
  1.508121E-01
  1.502714E-01
  1.497308E-01
  1.491902E-01
  1.486496E-01
  1.481091E-01
  1.475435E-01
  1.469775E-01
  1.464116E-01
  1.458458E-01
  1.452800E-01
  1.447091E-01
  1.441355E-01
  1.435621E-01
  1.429887E-01
  1.424153E-01
  1.418366E-01
  1.412545E-01
  1.406723E-01
  1.400903E-01
  1.395083E-01
  1.389151E-01
  1.383192E-01
  1.377234E-01
  1.371276E-01
  1.365319E-01
  1.359368E-01
  1.353417E-01
  1.347467E-01
  1.341517E-01
  1.335626E-01
  1.329741E-01
  1.323857E-01
  1.317974E-01
  1.311963E-01
  1.305917E-01
  1.299871E-01
  1.293826E-01
  1.287637E-01
  1.281426E-01
  1.275216E-01
  1.269021E-01
  1.262914E-01
  1.256808E-01
  1.250704E-01
  1.244602E-01
  1.238504E-01
  1.232409E-01
  1.226212E-01
  1.219724E-01
  1.213245E-01
  1.206742E-01
  1.199839E-01
  1.192951E-01
  1.186057E-01
  1.178774E-01
  1.171510E-01
  1.164128E-01
  1.156100E-01
  1.148092E-01
  1.139578E-01
  1.130407E-01
  1.121254E-01
  1.110960E-01
  1.100462E-01
  1.089443E-01
  1.077546E-01
  1.065612E-01
  1.052316E-01
  1.039026E-01
  1.024686E-01
  1.010097E-01
  9.947627E-02
  9.790979E-02
  9.628702E-02
  9.463830E-02
  9.294695E-02
  9.124342E-02
  8.951842E-02
  8.779627E-02
  8.608518E-02
  8.440547E-02
  8.275085E-02
  8.117746E-02
  7.966887E-02
  7.823145E-02
  7.690490E-02
  7.570753E-02
  7.464579E-02
  7.377645E-02
  7.322496E-02
  7.328489E-02
  7.458318E-02
  7.818652E-02
  8.574514E-02
  9.855864E-02
  1.083679E-01
  1.023517E-01
  1.160903E-01
  2.548357E-02
 -1.661237E-09
  9.894910E-01
  9.893201E-01
  9.891493E-01
  9.889784E-01
  9.888076E-01
  9.886367E-01
  9.884659E-01
  9.882951E-01
  9.881242E-01
  9.876254E-01
  9.871185E-01
  9.866116E-01
  9.861047E-01
  9.855978E-01
  9.850909E-01
  9.845840E-01
  9.839711E-01
  9.831637E-01
  9.823564E-01
  9.815490E-01
  9.807417E-01
  9.799344E-01
  9.791271E-01
  9.782870E-01
  9.771836E-01